/*--------------------------------*- C++ -*----------------------------------*\
| =========                 |                                                 |
| \\      /  F ield         | OpenFOAM: The Open Source CFD Toolbox           |
|  \\    /   O peration     | Version:  2412                                  |
|   \\  /    A nd           | Website:  www.openfoam.com                      |
|    \\/     M anipulation  |                                                 |
\*---------------------------------------------------------------------------*/
FoamFile
{
    version     2.0;
    format      ascii;
    arch        "LSB;label=32;scalar=64";
    class       surfaceScalarField;
    location    "8";
    object      phi;
}
// * * * * * * * * * * * * * * * * * * * * * * * * * * * * * * * * * * * * * //

dimensions      [1 0 -1 0 0 0 0];

oriented        oriented;

internalField   nonuniform List<scalar> 
85
(
1.82688e+08
1.4298e+06
1.70083e+08
3.40395e+06
1.53479e+08
6.09379e+06
1.33004e+08
9.8059e+06
1.38309e+07
1.09928e+08
1.84352e+08
1.72752e+06
1.74271e+08
4.22225e+06
1.61727e+08
7.63512e+06
1.4774e+08
1.20106e+07
1.62225e+07
1.34774e+08
1.85501e+08
1.45886e+06
1.76854e+08
3.61335e+06
1.66287e+08
6.66322e+06
1.5455e+08
1.06029e+07
1.43995e+07
1.44002e+08
1.86543e+08
773881
1.79063e+08
1.94024e+06
1.70125e+08
3.62648e+06
1.6039e+08
5.81627e+06
7.83582e+06
1.52401e+08
1.86953e+08
1.79765e+08
1.71104e+08
1.61441e+08
1.53332e+08
1.04914e+08
-4.36427e+06
9.3822e+07
2.95478e+06
8.29047e+07
2.87587e+06
7.54163e+07
306926
-7.57415e+06
1.18811e+08
-1.17064e+06
1.06729e+08
4.88303e+06
9.7137e+07
3.48303e+06
9.35724e+07
-3.36962e+06
-1.21014e+07
1.26453e+08
809988
1.17447e+08
3.60273e+06
1.12172e+08
1.26312e+06
1.07231e+08
-4.00795e+06
-1.08703e+07
1.32768e+08
990125
1.23271e+08
1.85753e+06
1.17337e+08
105247
1.11094e+08
-2.68709e+06
-6.65285e+06
1.33287e+08
1.24852e+08
1.19242e+08
1.12191e+08
)
;

boundaryField
{
    inlet
    {
        type            calculated;
        value           nonuniform List<scalar> 5(-1.92045e+08 -1.92315e+08 -1.92596e+08 -1.92891e+08 -1.93059e+08);
    }
    sym
    {
        type            calculated;
        value           uniform 0;
    }
    wedge
    {
        type            calculated;
        value           nonuniform List<scalar> 5(0 1.3601e-08 1.37472e-08 0 -1.50091e-08);
    }
    top
    {
        type            calculated;
        value           uniform 0;
    }
    back
    {
        type            empty;
    }
    front
    {
        type            empty;
    }
    outlet
    {
        type            calculated;
        value           nonuniform List<scalar> 5(7.74464e+07 9.27344e+07 1.01818e+08 1.02859e+08 1.01727e+08);
    }
}


// ************************************************************************* //
