/*--------------------------------*- C++ -*----------------------------------*\
| =========                 |                                                 |
| \\      /  F ield         | OpenFOAM: The Open Source CFD Toolbox           |
|  \\    /   O peration     | Version:  2412                                  |
|   \\  /    A nd           | Website:  www.openfoam.com                      |
|    \\/     M anipulation  |                                                 |
\*---------------------------------------------------------------------------*/
FoamFile
{
    version     2.0;
    format      ascii;
    arch        "LSB;label=32;scalar=64";
    class       volScalarField;
    location    "8";
    object      T;
}
// * * * * * * * * * * * * * * * * * * * * * * * * * * * * * * * * * * * * * //

dimensions      [0 0 0 1 0 0 0];

internalField   nonuniform List<scalar> 
50
(
435.145
464.474
498.551
525.246
546.343
425.615
455.52
490.478
519.711
541.161
415.639
445.896
482.688
515.515
540.012
405.211
435.199
473.562
510.492
538.928
399.268
428.989
468.552
508.55
540.29
553.461
554.961
560.906
572.842
573.604
554.765
562.172
571.46
581.138
580.512
560.153
568.837
574.564
578.39
575.838
565.153
575.667
581.08
583.525
581.559
570.052
580.54
584.266
585.491
583.616
)
;

boundaryField
{
    inlet
    {
        type            fixedValue;
        value           uniform 300;
    }
    sym
    {
        type            slip;
    }
    wedge
    {
        type            slip;
    }
    top
    {
        type            slip;
    }
    back
    {
        type            empty;
    }
    front
    {
        type            empty;
    }
    outlet
    {
        type            inletOutlet;
        inletValue      uniform 300;
        value           nonuniform List<scalar> 5(573.456 580.376 575.692 581.429 583.494);
    }
}


// ************************************************************************* //
