/*--------------------------------*- C++ -*----------------------------------*\
| =========                 |                                                 |
| \\      /  F ield         | OpenFOAM: The Open Source CFD Toolbox           |
|  \\    /   O peration     | Version:  2412                                  |
|   \\  /    A nd           | Website:  www.openfoam.com                      |
|    \\/     M anipulation  |                                                 |
\*---------------------------------------------------------------------------*/
FoamFile
{
    version     2.0;
    format      ascii;
    arch        "LSB;label=32;scalar=64";
    class       volVectorField;
    location    "8";
    object      U;
}
// * * * * * * * * * * * * * * * * * * * * * * * * * * * * * * * * * * * * * //

dimensions      [0 1 -1 0 0 0 0];

internalField   nonuniform List<vector> 
50
(
(441.81 3.80873 0)
(390.386 8.31695 0)
(320.592 13.6212 0)
(245.82 20.1994 0)
(176.324 28.0418 0)
(462.127 7.47523 0)
(412.537 16.2369 0)
(345.482 26.0749 0)
(273.721 36.7429 0)
(211.606 46.9039 0)
(482.231 7.25962 0)
(434.598 16.0752 0)
(368.403 26.2568 0)
(295.366 37.0735 0)
(230.832 46.8694 0)
(502.168 5.51993 0)
(457.44 12.4116 0)
(392.888 20.5538 0)
(318.401 29.1537 0)
(250.852 36.5938 0)
(513.178 1.95453 0)
(470.222 4.45442 0)
(406.066 7.47838 0)
(329.092 10.6942 0)
(256.83 13.4413 0)
(108.157 61.7313 0)
(136.745 87.1319 3.46321e-17)
(153.702 100.458 0)
(157.122 105.365 5.04998e-17)
(180.409 116.756 -6.1551e-17)
(158.302 79.3724 3.04865e-17)
(170.414 98.9146 3.5562e-17)
(176.987 101.053 4.21125e-17)
(187.196 96.5879 1.31617e-18)
(215.098 97.3863 -6.22236e-17)
(176.341 64.269 -3.04907e-17)
(183.899 70.6724 -3.49348e-17)
(192.458 68.5251 -4.09176e-17)
(208.006 65.9227 -4.95227e-17)
(233.734 66.2033 6.15006e-17)
(192.625 45.4567 0)
(193.193 48.5093 0)
(198.273 48.0694 0)
(213.285 47.1688 0)
(237.161 46.3985 0)
(192.446 13.5354 0)
(191.784 12.1434 0)
(197.279 9.73487 0)
(213.019 7.71155 0)
(235.631 6.62367 0)
)
;

boundaryField
{
    inlet
    {
        type            fixedValue;
        value           uniform (664 0 0);
    }
    sym
    {
        type            slip;
    }
    wedge
    {
        type            slip;
    }
    top
    {
        type            slip;
    }
    back
    {
        type            empty;
    }
    front
    {
        type            empty;
    }
    outlet
    {
        type            inletOutlet;
        inletValue      uniform (664 0 0);
        value           nonuniform List<vector> 5((180.409 116.756 -6.1551e-17) (215.098 97.3863 -6.22236e-17) (233.734 66.2033 6.15006e-17) (237.161 46.3985 0) (235.631 6.62367 0));
    }
}


// ************************************************************************* //
