/*--------------------------------*- C++ -*----------------------------------*\
| =========                 |                                                 |
| \\      /  F ield         | OpenFOAM: The Open Source CFD Toolbox           |
|  \\    /   O peration     | Version:  2412                                  |
|   \\  /    A nd           | Website:  www.openfoam.com                      |
|    \\/     M anipulation  |                                                 |
\*---------------------------------------------------------------------------*/
FoamFile
{
    version     2.0;
    format      ascii;
    arch        "LSB;label=32;scalar=64";
    class       volScalarField;
    location    "0.004";
    object      ddt0(rho,K);
}
// * * * * * * * * * * * * * * * * * * * * * * * * * * * * * * * * * * * * * //

dimensions      [1 -1 -3 0 0 0 0];

internalField   nonuniform List<scalar> 
180000
(
-2.01236e-05
-4.59254e-06
-3.42418e-07
-1.94807e-05
-1.37136e-06
3.37311e-05
1.00693e-05
5.93359e-06
-1.27503e-05
9.07025e-06
3.17544e-05
1.45042e-05
-9.86358e-06
-3.08817e-05
-7.22259e-06
1.67627e-05
2.40317e-05
-1.68287e-05
-1.35077e-05
3.99987e-05
1.59122e-05
5.93702e-05
4.33108e-06
2.28702e-05
2.26957e-05
-1.45656e-05
-5.26837e-05
-1.60339e-05
-7.00475e-05
-1.94573e-05
8.75796e-06
-4.04793e-05
-3.30243e-05
4.61578e-05
-2.58587e-05
-1.16599e-05
3.08731e-05
-5.90779e-06
-2.24658e-05
-7.80187e-06
2.99611e-05
-3.71038e-05
-1.82272e-05
4.91336e-05
1.16408e-05
-3.76656e-06
2.23105e-05
-1.6336e-05
-3.29941e-05
2.81364e-05
-3.89747e-05
1.98245e-05
2.13871e-05
3.72548e-05
3.79972e-05
5.46153e-05
7.66788e-06
-4.02331e-05
-2.84099e-05
4.31194e-05
1.11425e-05
6.19169e-06
9.79087e-06
-1.70911e-05
4.44712e-05
-4.70518e-05
2.81262e-06
1.81668e-06
-7.35948e-05
-5.63657e-05
-1.89523e-05
-3.11231e-05
-7.73764e-06
1.62064e-05
1.05604e-05
-8.30802e-06
-3.38212e-05
-1.96345e-05
-2.14714e-05
-7.41614e-07
3.43179e-05
-3.73753e-05
-2.2755e-05
1.18617e-05
2.15513e-06
-8.07026e-05
1.59435e-05
2.45357e-05
-2.87515e-06
-9.08491e-06
-6.15867e-06
-7.67463e-06
-4.20124e-06
7.59797e-06
-2.49115e-05
5.81707e-05
-9.71872e-06
1.90569e-06
3.05946e-05
-3.47206e-05
1.15835e-05
-1.83069e-06
9.93391e-07
9.61541e-06
1.06984e-05
-3.7273e-05
4.44972e-06
-1.03412e-05
-1.57287e-05
1.0377e-05
4.44476e-06
2.62715e-05
-2.58416e-05
1.02214e-05
-7.11044e-06
-6.67847e-05
-3.70563e-05
4.97659e-07
-1.87109e-05
1.84049e-05
3.59302e-05
-3.43268e-06
5.87441e-06
4.03596e-05
2.16927e-05
2.36796e-05
3.72725e-05
4.54979e-05
1.10571e-05
-3.96841e-05
-2.7846e-05
1.95678e-05
-9.62504e-06
-6.02455e-05
-1.26895e-05
-2.14953e-05
-2.7725e-05
-1.27039e-05
1.19444e-05
3.32756e-05
3.69844e-05
1.06529e-05
4.37623e-05
-6.3388e-07
1.29307e-05
-5.2305e-06
1.43405e-05
8.57425e-05
-9.58508e-06
1.7608e-05
-7.50844e-06
6.68025e-06
-2.13255e-05
-3.61948e-05
1.13745e-05
1.02981e-05
-4.76449e-05
-1.34888e-05
-5.99554e-06
-3.72721e-05
2.80366e-05
-1.82464e-05
-2.57248e-05
2.18188e-05
1.85518e-05
1.59322e-05
4.52363e-05
-1.8781e-05
-1.39872e-05
8.9751e-06
2.11779e-06
-3.0121e-06
-1.47652e-05
-3.4114e-05
1.60251e-05
3.77377e-05
2.09849e-05
-4.59474e-05
-2.28834e-05
-2.15447e-06
-1.47482e-05
-3.34913e-05
-4.75792e-05
-3.25914e-05
-2.98132e-05
-2.65976e-05
9.83849e-06
4.35314e-06
-6.67742e-06
1.33431e-05
-1.3363e-06
-3.63944e-05
2.46542e-05
-4.26232e-06
-4.37637e-05
-4.8285e-06
-2.17084e-05
2.69688e-05
5.98613e-05
2.23639e-05
4.49257e-05
-1.57377e-05
-2.4187e-05
-4.15318e-05
-2.82374e-05
2.35088e-05
6.44732e-05
-2.28098e-05
1.17697e-05
-1.24047e-05
4.89234e-06
8.99806e-06
-3.46887e-06
3.86047e-05
6.5959e-05
-2.59794e-05
-3.12149e-05
3.22337e-05
2.6379e-05
4.10406e-06
5.37496e-05
4.09438e-05
4.54819e-05
3.66253e-05
-4.16046e-05
-2.78133e-05
-2.85561e-05
-2.22556e-05
-5.8554e-05
-4.49318e-06
5.47042e-06
1.00055e-05
2.09504e-05
-3.68193e-05
-1.4107e-05
-1.80265e-05
-4.8539e-05
-2.37077e-05
4.03969e-05
-2.34181e-06
1.31142e-06
-5.56833e-05
1.58143e-05
-2.35322e-06
1.00562e-05
-6.00065e-05
-3.26512e-05
-2.44707e-05
-8.93464e-06
1.52335e-05
-3.64736e-05
2.92596e-05
-1.16815e-05
-6.38644e-07
4.21941e-05
1.03682e-05
-1.28928e-05
-5.5767e-06
7.36613e-05
0.000106807
6.76183e-05
0.000168165
0.000246646
0.0003414
0.000568486
0.00085026
0.00141687
0.00221031
0.00344676
0.00549992
0.00868042
0.0136371
0.0215955
0.0341357
0.0535238
0.0848181
0.133982
0.21107
0.332501
0.53034
0.838006
1.32695
2.12232
3.39918
5.35516
8.55781
13.7823
21.8589
34.1555
54.4092
82.3154
117.642
170.143
213.174
141.428
-93.9436
-1093.86
-3807.17
-10399.3
-20650.1
1.30786e-05
9.05105e-06
2.10992e-05
-4.85542e-05
-1.87812e-05
6.06955e-05
3.10115e-05
-3.01336e-06
2.09311e-05
-2.94335e-06
1.32567e-06
-1.5452e-06
5.02619e-06
1.37465e-06
-3.20458e-05
1.24503e-05
-2.10308e-05
-5.03249e-05
-6.47116e-07
-2.55964e-05
-3.4088e-05
-2.44307e-05
-6.30449e-05
-1.2075e-05
-3.49188e-07
1.81369e-05
1.98974e-05
-2.91028e-05
-4.60896e-05
1.8281e-06
5.22533e-06
-1.27391e-05
-7.17928e-06
4.10874e-05
1.37132e-05
-2.573e-05
2.08215e-05
-9.50426e-06
-2.08464e-05
8.47738e-06
-2.0878e-05
9.45237e-07
2.93151e-05
4.48876e-05
-1.59993e-05
1.68086e-05
1.36085e-05
1.27615e-05
1.33463e-05
-4.10119e-05
-5.0533e-05
-2.6334e-05
2.24818e-05
1.90696e-05
-4.43366e-06
3.23537e-05
3.84151e-06
4.75851e-05
1.45688e-05
1.75688e-06
-2.3992e-05
2.39791e-05
4.70632e-05
2.74456e-05
-7.83244e-06
-6.96611e-06
2.28169e-05
3.16392e-05
1.90092e-05
-4.58517e-05
-3.19592e-06
-2.49604e-05
-2.06329e-05
-8.7288e-06
7.10105e-06
1.27406e-05
-1.86349e-05
2.28118e-05
1.38394e-05
-1.97266e-05
-5.56763e-05
1.31433e-05
-3.34577e-05
-4.92165e-06
-3.11767e-05
5.68203e-07
-2.27733e-05
-4.80559e-05
-3.47651e-07
3.73783e-05
2.70573e-05
4.13071e-05
8.79732e-06
-1.63411e-06
-1.38738e-05
-8.97721e-06
4.10732e-06
-7.03811e-07
-2.64063e-05
3.3947e-05
-4.20184e-05
-4.88537e-05
1.51053e-05
-5.52308e-06
-7.65946e-06
-8.20954e-06
-1.80126e-05
-2.26657e-05
1.51147e-05
4.22614e-05
-7.01622e-06
-3.40656e-07
-1.30998e-05
-1.09342e-05
4.16665e-06
2.84278e-05
2.94288e-05
3.35546e-05
-2.00261e-05
-4.19055e-05
-5.68605e-06
1.30101e-05
-1.11054e-05
3.20702e-05
-2.95829e-05
-9.42974e-06
8.81919e-06
-6.62969e-05
-3.30092e-05
-3.41188e-05
3.87834e-05
3.33283e-05
-2.82848e-06
4.63583e-05
5.04186e-05
3.33429e-05
1.84189e-05
4.75015e-06
3.97246e-05
2.76547e-05
6.61402e-06
2.3611e-05
2.63208e-07
-4.15809e-05
-3.37467e-05
4.50321e-05
-6.05661e-05
-4.67219e-05
2.28707e-05
-1.62775e-05
-8.96275e-06
3.62715e-05
4.69097e-05
-1.13422e-05
4.47135e-05
4.80176e-05
-3.26569e-05
-3.0323e-05
-3.00267e-06
1.95549e-06
3.019e-05
2.78774e-05
3.35756e-06
2.79083e-05
-7.68946e-06
-7.44921e-05
-5.19588e-05
1.04359e-05
2.46197e-05
2.63986e-05
6.00624e-06
5.15453e-05
-4.26569e-06
-3.33961e-05
8.78857e-06
9.65204e-06
3.075e-05
2.31798e-05
-2.02426e-05
-5.58291e-06
4.21779e-05
-1.30496e-05
2.5134e-05
1.3139e-05
-1.77606e-05
-2.31341e-05
3.84616e-05
-2.58225e-05
-3.11179e-05
1.49149e-05
-2.95101e-05
-3.28709e-05
9.95627e-06
-4.06903e-05
-1.52093e-06
5.80137e-06
1.88275e-05
8.87647e-06
3.25828e-05
-1.76425e-05
-6.11884e-06
2.1512e-05
-3.52665e-05
1.7937e-05
4.09006e-06
-3.12464e-06
-1.09906e-05
-4.23916e-05
-2.85062e-05
3.20112e-05
-1.4896e-05
-2.1377e-05
2.24048e-05
-4.54152e-05
-1.21e-05
1.37057e-05
-1.30602e-05
5.43795e-05
1.30029e-05
6.39762e-06
5.29949e-05
-1.53345e-08
-3.48942e-05
-1.44167e-05
1.1774e-06
-3.89509e-05
-2.75407e-05
-3.06929e-08
-3.25281e-06
1.17693e-05
-6.13496e-06
-3.41634e-05
-1.58783e-05
-1.90926e-06
-3.35529e-05
-9.72583e-06
-4.24994e-05
-5.03947e-06
-1.58196e-05
7.57767e-06
-9.55482e-06
-1.56573e-06
-1.60718e-05
-3.45626e-06
-3.59217e-05
-6.59536e-05
2.9247e-05
-6.43788e-06
-5.92662e-07
1.377e-05
5.08926e-05
5.97466e-06
3.78479e-05
1.75951e-05
2.15478e-05
4.15891e-05
2.81051e-05
2.33258e-05
4.06598e-07
5.57626e-05
0.00011844
0.00010734
0.00025392
0.000397896
0.000524226
0.00082197
0.00132514
0.00210349
0.00337862
0.00532897
0.00841703
0.0132802
0.0208519
0.033094
0.0519893
0.0820472
0.129679
0.20505
0.321591
0.511176
0.811718
1.28299
2.0352
3.27127
5.18691
8.21834
13.2113
21.2937
33.2417
52.7107
83.1576
121.996
177.93
260.751
284.518
219.992
-137.082
-1472.12
-5137.02
-10734.7
2.91646e-06
-1.34926e-05
-1.56954e-05
2.04182e-06
1.42854e-05
-1.07495e-05
4.04183e-05
-1.40635e-05
-1.55815e-05
-4.87184e-06
2.2095e-05
-4.33314e-05
-2.50656e-05
1.05523e-06
1.07916e-05
-3.61184e-05
1.26114e-05
-1.51248e-05
-3.35845e-05
6.31315e-06
-1.22023e-05
1.23143e-05
-1.21076e-05
-2.89446e-05
1.09716e-05
1.18955e-05
-5.77234e-06
3.61119e-06
9.98181e-06
-1.85268e-05
1.57622e-05
3.90749e-06
3.1344e-05
-3.47307e-05
1.74769e-05
3.22441e-05
8.01383e-07
3.19394e-05
5.02e-05
5.54535e-06
1.82357e-05
-6.88068e-05
1.27715e-05
5.27643e-05
2.25634e-05
3.56816e-06
3.97725e-05
3.27627e-05
-2.76058e-06
8.32371e-06
-8.9953e-06
-2.56502e-05
-3.03045e-05
-4.62923e-05
-1.02891e-05
1.21957e-05
1.44697e-05
3.14707e-06
3.24446e-05
-4.82861e-06
8.86044e-06
2.11098e-05
2.13645e-05
3.09862e-06
1.70631e-05
2.25138e-05
4.89112e-05
3.38968e-05
-2.70691e-06
3.68008e-05
-9.88653e-06
-3.29409e-05
-8.93465e-06
-5.80666e-06
-7.84761e-05
-2.74033e-05
-4.04226e-05
-5.37929e-05
1.34787e-05
-4.03301e-05
-8.87495e-06
3.39621e-05
2.13171e-05
1.35302e-05
-1.6067e-05
-9.22383e-06
1.16948e-05
3.95646e-05
-1.99502e-05
-1.06317e-06
1.4419e-05
3.15249e-05
1.70532e-06
7.40015e-06
-4.23513e-05
-3.00665e-05
-4.9077e-05
1.88884e-05
-1.00969e-05
-4.67126e-05
2.56876e-05
-1.41526e-06
-5.41196e-06
-5.46909e-06
-2.7403e-05
-4.54556e-05
-1.035e-05
-1.68703e-06
1.14552e-05
1.68676e-05
-1.34526e-05
-4.39277e-05
2.68925e-05
2.71497e-05
8.30581e-07
-2.33081e-05
-3.92867e-05
5.64711e-05
-8.30196e-07
3.48849e-05
1.05922e-05
-2.46895e-05
-1.91267e-05
-2.48124e-05
-2.2657e-05
-4.76541e-05
-6.94114e-06
1.00394e-05
-2.315e-05
-1.45678e-05
-6.41479e-06
7.63632e-06
-2.27858e-05
-8.55193e-06
6.98237e-06
1.19788e-06
3.77603e-05
5.57732e-05
8.36185e-05
-3.3923e-06
-1.24345e-05
-3.00376e-06
3.16982e-06
-1.56565e-05
3.46257e-05
1.05577e-05
-6.86557e-05
6.32052e-06
2.17895e-05
-1.67526e-06
2.14647e-06
1.88128e-05
1.97954e-05
8.24664e-06
-1.21412e-05
-1.7751e-05
-1.78411e-05
-4.73163e-07
3.69787e-05
-1.0231e-05
-1.59149e-05
3.90561e-06
-7.33621e-06
-1.49447e-05
-1.73246e-05
-2.71652e-05
-3.68756e-05
-7.50139e-06
-2.81701e-05
-2.42963e-05
-4.78094e-06
2.92426e-05
7.09392e-06
-3.25203e-05
-1.64843e-05
3.00263e-06
1.55484e-05
-2.75959e-05
9.48975e-06
4.52833e-05
9.17652e-06
-4.43535e-05
-6.01834e-05
5.18119e-07
1.34703e-05
-2.54713e-05
-5.70741e-06
-1.82745e-05
2.7121e-05
1.91704e-05
-5.94309e-05
-6.2955e-05
5.83014e-05
-8.17816e-06
-1.65084e-05
9.62907e-05
-1.183e-05
1.37092e-06
-1.09902e-05
-3.02866e-05
-1.90514e-05
-4.32605e-05
-1.11848e-05
1.10179e-05
-3.2196e-05
1.03909e-05
2.349e-05
-2.87798e-05
-3.25197e-05
3.0768e-06
-2.32752e-05
5.60372e-06
-1.48445e-06
-3.61083e-05
-1.43384e-05
9.02759e-05
-1.61087e-05
-1.39502e-06
-2.30684e-06
3.52109e-05
-3.39804e-05
-4.07198e-05
-5.40103e-06
1.8643e-06
1.89896e-06
3.92539e-05
-6.74141e-05
1.08199e-05
3.81165e-06
-1.11788e-05
3.9831e-05
-2.46369e-05
-2.65998e-05
2.98323e-05
6.63602e-05
-2.34115e-05
9.09945e-06
9.29994e-06
2.05391e-05
-4.6441e-05
-4.05065e-05
-2.50033e-05
-5.55234e-05
-2.31036e-05
-4.75343e-05
1.89254e-05
-1.74276e-05
2.06873e-05
2.11529e-05
-2.06488e-05
8.6996e-06
2.5257e-05
-3.57774e-05
4.70675e-05
3.06072e-06
-4.35175e-05
3.53484e-05
5.80379e-05
5.69588e-05
7.32648e-05
6.30414e-05
0.000157661
0.00022932
0.00033653
0.000532624
0.00086416
0.00130048
0.00199263
0.00317284
0.00499862
0.00786921
0.0124619
0.0195431
0.030996
0.0487533
0.0766906
0.121085
0.191977
0.300255
0.474784
0.755623
1.1935
1.87568
3.01154
4.79979
7.55004
12.1094
19.7397
30.7033
48.3959
78.3757
117.332
172.624
272.684
350.229
389.493
359.049
-125.152
-2196.48
-4668.94
1.9058e-06
1.00093e-05
3.39058e-05
2.86718e-05
-4.02493e-05
2.04876e-05
2.4668e-05
-5.08374e-05
-7.35726e-07
-6.37963e-06
-1.4756e-06
4.61381e-05
2.08013e-07
5.31151e-06
-2.45333e-05
3.38637e-05
1.79775e-05
3.28967e-05
-1.22684e-05
-9.61356e-06
2.68062e-05
4.02412e-05
-3.11628e-05
-4.71536e-05
4.31564e-05
5.59011e-05
2.39042e-05
-2.3844e-05
-1.69759e-05
-7.78555e-07
-2.14485e-05
1.63845e-05
-1.82731e-05
-1.89763e-06
-9.52638e-06
3.73609e-05
-1.25759e-05
7.98434e-06
1.48022e-05
-2.24902e-05
2.35915e-07
8.4795e-06
1.32332e-05
4.63367e-05
-2.70823e-06
-4.68197e-05
3.864e-06
-6.38296e-05
1.03715e-05
5.48666e-05
2.89316e-05
5.92966e-05
2.63181e-05
1.03637e-05
-2.12682e-06
4.44919e-05
-6.59864e-06
4.4485e-05
-1.34763e-05
-2.26923e-05
-1.24916e-05
2.2766e-05
-1.80362e-05
-6.97216e-06
-3.82705e-05
-4.30381e-06
5.09653e-05
3.01683e-05
-7.27924e-06
4.19767e-05
-3.62061e-05
1.10102e-05
1.79148e-06
2.50296e-05
-1.33331e-06
-1.11116e-05
-5.02815e-05
-2.86003e-06
-2.31727e-05
-5.5843e-05
-9.43893e-06
-4.17204e-05
7.38232e-06
2.13197e-06
-2.081e-05
-8.27946e-06
-2.51671e-05
-1.96995e-05
1.70984e-05
-2.35865e-05
3.82347e-06
-9.77787e-06
-8.3499e-05
2.27171e-05
5.4911e-06
-3.07774e-05
-1.43199e-05
-1.40127e-05
-2.07718e-05
-2.81989e-05
-2.76584e-06
-7.77708e-06
6.9501e-06
1.81679e-05
-6.54814e-06
2.78813e-05
3.26193e-05
-2.12675e-06
-1.81715e-05
-4.19067e-05
-2.21014e-05
-3.76771e-05
-6.592e-06
-3.16164e-05
-1.83736e-05
2.25797e-05
6.03162e-05
4.54651e-05
-4.08009e-05
-2.79449e-06
2.05911e-05
-1.34123e-05
-2.30331e-05
-3.57778e-05
-2.58452e-05
9.55527e-06
2.99727e-05
-8.44812e-06
-7.50704e-06
-9.88833e-06
-5.50176e-08
-3.05673e-05
1.75683e-05
2.67319e-06
7.60468e-06
2.54444e-06
-3.27592e-05
6.77699e-06
9.66212e-06
1.64759e-05
-3.52452e-05
-5.23823e-05
1.84737e-05
-1.68709e-05
-8.9379e-06
-4.17259e-06
9.31598e-06
3.4339e-05
4.10334e-05
-3.00995e-05
-3.52732e-05
5.37215e-05
-1.12609e-05
2.04567e-05
1.75565e-05
-2.53253e-06
1.23981e-05
-3.42411e-05
-3.8219e-05
-3.47897e-05
-1.56443e-05
2.45232e-06
-6.38492e-06
3.2601e-05
-1.58805e-05
4.63048e-05
8.26022e-05
3.26097e-06
1.89504e-06
-2.46548e-05
1.31326e-05
-6.30688e-06
-6.64747e-05
2.25512e-05
-3.14057e-05
-3.59415e-06
1.80469e-06
5.53081e-05
5.15921e-05
-1.7716e-05
1.74782e-05
-4.041e-05
-3.20651e-05
1.32081e-05
-3.64198e-05
-8.99957e-06
-3.92094e-05
-1.91329e-06
2.40213e-05
4.11381e-06
-7.61139e-06
1.31657e-05
4.79936e-05
2.53125e-05
-3.14567e-06
3.04927e-05
4.82624e-05
-3.14612e-06
-1.03809e-05
3.25379e-05
3.25988e-05
-1.6402e-05
-6.42096e-06
-8.85033e-06
-2.77606e-05
-1.91873e-05
-4.4361e-05
2.27611e-05
-6.33225e-06
4.16127e-05
1.3617e-05
-4.18657e-06
5.1588e-05
9.91899e-06
9.60571e-06
5.18862e-05
-9.36563e-06
1.12419e-05
1.6902e-05
-2.46809e-05
9.07881e-06
4.58203e-05
4.50983e-06
-3.18348e-05
-3.16846e-06
-6.61464e-05
-9.22944e-06
-4.73869e-05
-4.77469e-05
-6.37622e-05
-7.34226e-06
-1.35785e-05
2.9399e-06
-3.9068e-05
-2.63389e-05
-3.21519e-05
-2.07864e-05
-3.12978e-05
-1.70326e-05
-3.81122e-05
-2.64823e-05
-3.8918e-05
1.64905e-05
1.24949e-06
-1.09946e-05
9.48295e-07
-1.78613e-05
-5.73049e-05
-1.16306e-05
-2.10475e-06
-1.01832e-05
4.22846e-05
2.72607e-05
4.90502e-05
1.69344e-05
2.10331e-05
8.6063e-05
4.47784e-05
5.20824e-05
9.48773e-05
9.59216e-05
0.000120124
0.000217142
0.000313712
0.000467035
0.00071424
0.00117537
0.00181185
0.00290921
0.00451256
0.00713996
0.0113199
0.0177851
0.0281025
0.0443218
0.06939
0.10925
0.173423
0.271013
0.426055
0.677094
1.07085
1.6707
2.66559
4.25895
6.67572
10.6276
17.4295
27.2414
42.5136
69.6288
106.827
157.168
256.179
363.021
454.97
579.973
593.024
-457.305
-1050.57
-5.14554e-06
1.38418e-05
4.76842e-06
-1.28331e-05
-9.31216e-06
1.57014e-05
4.85291e-05
-2.27626e-05
1.2036e-05
-1.64675e-05
6.6833e-06
3.58646e-06
2.75925e-05
-3.18295e-06
-1.82387e-05
5.62153e-06
2.02843e-06
-1.40921e-06
-1.0366e-05
-3.00511e-05
1.21926e-05
-9.39467e-06
-2.01768e-06
3.34653e-05
-4.3874e-05
8.33827e-06
-3.4621e-05
1.84757e-05
2.2439e-05
-2.83589e-05
4.15852e-06
6.57359e-06
1.5377e-05
-3.15932e-05
-4.10667e-05
-1.10568e-05
-5.71513e-05
-2.25841e-06
3.29342e-05
-1.99803e-05
-1.29533e-05
-2.05842e-05
-2.05925e-05
4.30647e-05
1.87347e-05
8.32751e-06
-3.63173e-06
-6.33095e-05
-1.16677e-05
-1.7521e-05
3.50933e-05
6.90708e-06
7.89288e-06
-1.27432e-05
1.04095e-05
1.83663e-05
1.33499e-05
-4.34387e-06
2.02663e-05
4.20365e-05
-9.23409e-06
1.02171e-06
6.55632e-05
3.08473e-05
4.41755e-05
2.33129e-05
-1.19912e-05
1.57892e-05
-3.22213e-05
-9.84994e-06
4.06571e-05
4.42119e-05
-9.30312e-06
-3.95373e-05
-1.82693e-05
-4.32232e-05
-3.11664e-05
-4.00524e-05
-3.86255e-05
-6.549e-06
-5.35511e-05
1.71298e-05
3.68745e-05
2.48625e-05
-2.84556e-05
-3.85666e-05
-5.88775e-07
2.44813e-05
-1.12225e-05
-3.20236e-05
4.69578e-06
5.67644e-05
4.83e-05
4.47175e-06
-2.33381e-05
-8.53446e-07
3.68392e-05
-2.11309e-05
2.91324e-05
5.56078e-05
-1.5963e-05
-4.22528e-05
-2.93658e-06
-1.76995e-05
-1.65651e-05
1.82369e-06
-2.36436e-05
-2.65019e-05
-3.06837e-05
4.58796e-06
2.37285e-05
1.16008e-06
-1.38593e-05
-1.48932e-05
6.85606e-06
1.15715e-05
-1.64005e-05
2.21228e-05
8.78937e-06
1.15044e-05
5.48494e-05
-2.42257e-05
4.71923e-06
-7.10878e-06
-4.70029e-05
-3.37759e-05
-3.84544e-06
5.45551e-05
1.90155e-05
9.06975e-06
-1.79927e-06
2.51268e-05
3.05852e-05
-3.32702e-05
1.0326e-05
-3.60962e-05
8.17428e-06
-9.47136e-06
-2.14848e-05
1.36211e-05
-3.09346e-05
1.88854e-05
-4.84699e-05
-4.23076e-05
5.18322e-06
-1.79838e-05
-4.03495e-05
1.14227e-05
3.16473e-05
2.48538e-05
1.13699e-05
8.93832e-06
-2.47708e-05
-4.03566e-06
5.05312e-05
3.51863e-05
-1.9349e-06
3.57604e-05
1.65975e-05
-5.03351e-05
-2.76187e-07
6.11266e-05
4.78097e-05
4.94412e-05
1.46901e-05
-1.47376e-05
-4.28553e-06
-1.20001e-05
-1.64368e-05
-1.41478e-05
-4.26456e-05
-5.21997e-05
6.83334e-06
2.67703e-05
1.55852e-05
-4.10334e-05
-1.27894e-05
4.47754e-05
4.54241e-05
-2.48763e-05
4.73762e-06
2.96101e-07
-1.46111e-05
3.27764e-05
4.63623e-06
1.80852e-05
-2.16434e-05
5.07019e-05
3.16027e-05
-7.44417e-06
2.22807e-05
4.03159e-05
4.14801e-06
6.76719e-06
1.48823e-05
-3.6852e-05
-3.35664e-05
-6.67672e-07
-3.14823e-06
1.06176e-05
1.22865e-05
-2.7918e-05
-3.42799e-05
3.37887e-05
9.7533e-06
-5.23999e-05
1.74226e-05
1.4231e-05
4.81688e-06
-2.69253e-05
-8.64626e-06
3.98822e-07
-5.92452e-06
2.62844e-05
-2.5437e-05
-2.03331e-05
5.74848e-05
1.00628e-05
3.94787e-07
-4.18192e-06
-6.42116e-06
2.25458e-05
-2.97941e-05
-3.83959e-05
-2.8872e-05
-2.23822e-05
3.05985e-05
4.69409e-05
3.25291e-05
-3.21079e-05
-4.40335e-05
8.04969e-06
-2.16372e-05
-4.92779e-05
-2.33787e-05
-3.29816e-05
-3.45782e-05
-5.58e-05
-1.16401e-05
-2.84646e-05
-1.5569e-05
-1.77953e-05
-2.3528e-05
-5.24839e-06
1.16188e-05
-4.14206e-05
-2.44615e-05
-7.8192e-06
-1.39875e-05
-3.90941e-05
-4.6899e-05
4.76383e-06
2.54413e-05
7.44973e-06
4.14974e-06
5.41236e-06
2.19647e-05
-2.55401e-05
1.84497e-05
6.32955e-05
6.50709e-05
0.000153458
0.000164359
0.000281778
0.000394796
0.00065819
0.00100466
0.0015954
0.00255894
0.00404698
0.00634413
0.010032
0.0156845
0.02477
0.0389528
0.061005
0.0956477
0.151747
0.237156
0.370866
0.587768
0.92994
1.44335
2.28665
3.65417
5.713
9.01866
14.8085
23.2438
35.9632
59.1788
92.5166
136.069
224.602
336.995
446.976
626.14
874.503
418.517
810.607
-4.24574e-06
-7.18075e-06
1.45445e-05
-2.03132e-05
6.71081e-06
-5.07992e-06
2.79725e-06
2.51445e-05
-1.01892e-05
1.90192e-05
2.08953e-05
5.88518e-06
-2.68008e-05
4.16244e-05
-4.07528e-05
-5.68638e-05
-5.52892e-05
-2.076e-05
-5.14809e-05
-1.35785e-05
5.36035e-05
1.87058e-05
7.16071e-05
1.76918e-05
-1.88747e-05
1.64451e-05
-4.08885e-05
-5.04107e-05
-5.35826e-06
1.55228e-05
-4.92282e-05
2.04221e-05
4.89317e-05
3.6704e-05
-2.72473e-06
1.37893e-05
3.53976e-05
-1.02874e-06
-2.56706e-05
-2.67997e-06
2.70939e-05
-3.46433e-06
-3.80697e-05
-1.54207e-05
6.34118e-05
3.00144e-05
-1.90575e-05
-1.25651e-05
-1.88962e-05
3.15606e-05
-3.93562e-05
1.36272e-05
1.09784e-05
-3.14564e-05
-2.79258e-05
1.57621e-05
8.56421e-07
2.73556e-05
-3.08565e-05
-7.30314e-06
-9.23245e-06
-1.93436e-05
-2.00807e-06
4.54691e-05
-1.24519e-05
1.9072e-05
3.64893e-06
-2.11537e-05
-2.22518e-05
-1.74341e-05
-4.44652e-05
-7.07373e-05
3.98584e-06
8.57753e-06
-1.95942e-05
-2.91556e-05
6.50112e-06
-3.27429e-06
2.40243e-05
1.21918e-05
6.18124e-06
2.29442e-05
2.17977e-05
3.75233e-05
8.57859e-05
-1.93606e-06
-8.18762e-06
1.78428e-05
1.00684e-05
-3.65993e-05
3.34997e-06
-2.34151e-05
4.40129e-05
2.70872e-05
4.32317e-05
2.22138e-05
6.6329e-05
2.92464e-05
1.78798e-05
-6.41068e-06
5.29389e-05
7.69162e-05
9.39466e-06
-1.92285e-05
-1.44266e-05
3.40178e-05
2.23475e-05
-5.78051e-06
4.02615e-05
-3.21375e-05
2.52874e-05
4.6767e-05
5.11746e-06
-4.32625e-05
-1.98195e-05
-3.61647e-05
-6.07655e-05
-3.5259e-05
-1.34082e-05
-8.07101e-05
1.20972e-05
2.31923e-05
2.06918e-05
2.506e-05
-1.14137e-05
-5.54593e-05
-1.41856e-05
-4.6634e-05
-4.9596e-05
2.82585e-06
1.23864e-05
5.08256e-05
-2.97644e-05
-3.55926e-05
-4.13256e-06
-1.22131e-05
-2.70657e-05
4.51324e-05
2.19704e-05
6.80356e-05
4.3548e-05
-2.78157e-05
-2.39436e-05
-5.06936e-06
-9.76349e-06
-4.86048e-05
-4.469e-06
2.36027e-05
6.11044e-07
6.60284e-06
-7.95551e-06
9.92e-06
1.98675e-05
2.81408e-05
1.61874e-05
-9.35344e-06
-3.31737e-05
2.35381e-05
4.61486e-06
1.20741e-05
3.40729e-06
7.04947e-06
-9.97891e-06
3.47049e-05
-3.32923e-05
-1.37394e-05
-5.0949e-05
-3.7737e-05
-2.71578e-05
-8.87573e-06
-2.08101e-05
-6.12833e-05
1.82786e-05
2.85216e-05
-3.87526e-05
2.13975e-05
-4.33094e-05
-1.69999e-05
-1.89044e-05
5.75191e-05
1.80143e-05
1.76136e-05
3.1028e-05
-7.6245e-06
1.96812e-05
1.92708e-05
2.85123e-05
1.333e-05
-2.33113e-05
-6.95327e-07
-2.40116e-06
-1.44995e-05
-2.49084e-05
1.65807e-05
3.79402e-05
-9.86375e-07
-2.64879e-05
-8.02039e-06
-2.9573e-05
-6.4411e-05
-3.89228e-05
-6.48831e-05
-1.48766e-06
-8.38154e-07
-5.43799e-06
1.26928e-05
9.82231e-06
-3.04869e-05
5.61839e-05
5.23006e-05
3.36719e-05
5.17898e-05
1.75995e-05
3.17589e-05
2.30963e-05
-7.88897e-06
4.2035e-05
2.0031e-05
2.27982e-05
-1.16003e-05
-2.01578e-05
4.99242e-06
3.12264e-05
1.84473e-05
1.20856e-05
3.49046e-05
1.02265e-05
1.39295e-05
-1.21075e-05
-1.79904e-05
-6.07967e-06
-2.72455e-06
2.43305e-05
3.57135e-05
4.41752e-05
-1.24295e-05
3.7412e-05
-6.84531e-05
1.55113e-05
2.82855e-05
-3.20742e-05
-2.25112e-05
-5.94505e-05
-4.34609e-05
-1.51149e-05
-2.95137e-05
1.4473e-05
-2.45068e-05
-1.29889e-05
1.09914e-05
2.47699e-05
1.65719e-05
4.05514e-05
-7.89873e-07
-3.15353e-05
2.18517e-06
7.4222e-05
6.11611e-05
5.60497e-05
2.78522e-05
8.35986e-05
9.50823e-05
0.000197899
0.000218597
0.000355099
0.000574546
0.000889682
0.00142216
0.00220769
0.00350964
0.00546092
0.00862952
0.0134478
0.0212866
0.0334598
0.05223
0.0815748
0.129243
0.201887
0.314564
0.496973
0.785952
1.21526
1.91339
3.05333
4.7635
7.46472
12.2373
19.2481
29.5674
48.6666
77.0282
113.287
187.921
291.985
400.11
583.702
914.413
779.929
1606.02
1.22749e-05
-2.80303e-05
-1.47033e-05
4.03971e-05
1.45717e-05
-8.03422e-06
1.06163e-05
4.51996e-06
2.14527e-05
-1.09776e-05
1.34193e-05
4.19482e-05
-1.83427e-05
1.33008e-05
-2.33569e-05
5.89203e-05
-3.16792e-05
-7.59435e-06
1.54918e-05
4.12923e-05
5.63019e-06
-5.62576e-05
2.92036e-05
1.28437e-05
9.38752e-06
1.75021e-05
1.72808e-05
-8.92305e-06
-3.30135e-06
1.49375e-05
-5.95613e-06
1.16026e-05
3.70071e-06
3.41318e-06
5.58426e-06
-4.20848e-06
5.69909e-06
3.78659e-06
-1.01816e-05
-4.82169e-05
-5.34561e-05
-2.28223e-05
-7.4669e-06
1.63181e-06
5.24217e-05
-9.44634e-06
1.27243e-05
2.18274e-05
-1.75288e-05
1.07555e-05
1.18624e-05
1.90339e-05
6.23649e-06
-3.40835e-05
2.19612e-05
4.54796e-06
-5.30237e-06
2.75058e-05
4.93165e-05
-6.91312e-06
-2.19665e-05
1.16081e-05
-3.1821e-05
-4.76014e-05
-3.51318e-05
-4.96105e-05
-2.59835e-05
-6.66089e-05
-9.9771e-06
2.44658e-05
-9.52868e-06
4.5314e-05
4.69934e-05
-3.37654e-05
-1.47488e-06
-8.70655e-06
-1.6123e-05
4.20789e-05
6.09711e-06
2.84834e-05
3.62821e-05
-5.42858e-05
-6.51403e-06
4.46068e-05
-2.72442e-05
-3.80268e-05
-8.85195e-06
-8.06892e-05
-8.59204e-07
2.08316e-05
4.37475e-05
5.14339e-06
-2.10129e-05
1.74326e-05
6.08819e-08
2.32942e-05
-3.55239e-05
-4.57394e-05
3.86358e-05
-1.45485e-05
4.39452e-06
-2.26991e-07
-3.39867e-05
-1.8484e-06
2.58832e-05
2.80555e-05
9.93635e-06
-6.71406e-06
2.37544e-05
7.76414e-06
7.50972e-06
4.55719e-05
7.27434e-05
7.11131e-06
7.98179e-07
-1.61627e-05
-6.12232e-05
-1.32987e-05
-4.4542e-05
-4.09269e-05
3.27573e-05
-2.30383e-05
-4.32657e-05
-1.96552e-05
-7.72514e-06
4.05131e-05
-1.5885e-05
1.66475e-05
1.09386e-05
-1.72962e-05
2.39019e-05
-3.94231e-05
-4.16708e-05
1.01449e-05
-2.39373e-05
-2.80655e-05
-8.99153e-06
-4.52418e-05
-2.59291e-05
5.09323e-05
5.57894e-05
4.07326e-05
-1.13531e-06
-1.97695e-05
4.06828e-05
1.79523e-05
3.58514e-06
-2.23681e-05
1.5529e-05
8.47275e-06
6.61645e-05
6.75423e-07
-1.92233e-05
-4.00326e-05
-3.19408e-05
8.13314e-06
3.31573e-06
1.75743e-05
-4.68308e-05
1.79054e-05
-2.01913e-05
-1.40006e-05
2.04549e-05
-3.59625e-06
-2.80043e-05
-1.35158e-05
-1.87081e-05
-2.74369e-05
4.68712e-05
3.4851e-05
2.63768e-05
1.97419e-05
2.62319e-06
4.38763e-05
4.24141e-05
-2.82986e-05
-1.5972e-05
7.18411e-06
2.62165e-05
1.24664e-05
1.35337e-05
3.34249e-05
3.43878e-05
2.88221e-05
-7.45324e-06
-3.52046e-05
2.3521e-05
-1.53607e-05
6.21329e-06
3.4377e-05
-1.60318e-05
4.98904e-06
7.55133e-06
2.89537e-05
-3.58953e-05
-4.23897e-05
-6.17623e-05
-5.93312e-05
-3.99963e-05
3.80733e-05
-4.9886e-06
-2.10062e-05
-7.53119e-06
-3.19385e-05
-1.6046e-05
-4.06851e-06
2.76075e-05
7.27055e-06
-1.88e-05
2.81073e-05
5.6714e-05
3.43098e-05
2.65798e-05
-9.95029e-06
4.73794e-05
1.56994e-05
-1.99421e-05
-1.10726e-05
2.84079e-05
-4.0796e-05
-1.50069e-05
9.23335e-06
-1.67935e-05
-2.06464e-05
1.29594e-06
-5.47533e-06
-3.19961e-05
-2.36393e-05
-2.34085e-06
3.49883e-05
-1.28666e-05
9.1375e-06
2.2616e-05
-3.42036e-06
-8.70187e-06
-1.82119e-05
1.36083e-05
1.11789e-07
-7.95456e-07
-3.76731e-05
9.7091e-06
-1.39589e-05
7.6738e-06
3.12579e-05
5.44145e-05
-1.78918e-05
-2.61839e-05
5.90403e-06
-5.09692e-05
-2.02195e-05
-5.90411e-05
-5.87063e-05
1.67021e-05
-1.56037e-05
-5.5033e-05
-8.61885e-06
3.30646e-05
2.35788e-05
5.44522e-06
8.66183e-05
5.19352e-05
6.45291e-05
0.000115707
0.00022056
0.000322258
0.000512518
0.000773664
0.00118939
0.00191964
0.00294216
0.00462458
0.00724244
0.01128
0.0177956
0.0279642
0.0437121
0.068133
0.107736
0.168121
0.261216
0.41162
0.650378
1.00279
1.57091
2.5017
3.89561
6.06873
9.92208
15.6171
23.8465
39.1816
62.4755
91.8009
152.44
242.114
338.32
503.655
835.639
858.713
1801.92
-1.62474e-05
-9.75465e-06
-7.34817e-06
-5.47319e-05
-3.9657e-05
2.20127e-05
2.86961e-05
-5.28058e-05
6.47763e-06
5.22013e-05
7.63592e-06
-3.74595e-05
-2.41683e-05
9.05227e-06
1.77297e-05
6.02479e-05
3.28575e-05
3.23148e-05
1.52684e-05
-5.49274e-06
-4.02896e-05
-2.54353e-07
-7.32951e-06
-3.08344e-05
7.20287e-06
-9.09365e-06
4.48536e-05
3.05766e-05
-8.51147e-06
-2.46577e-06
1.34243e-05
3.61322e-06
7.1736e-06
-6.3726e-05
-1.68585e-05
-1.7144e-05
-5.75929e-07
-3.07836e-06
2.30212e-05
3.75375e-05
4.77844e-05
-3.938e-05
-3.74455e-05
1.24104e-05
-6.48038e-06
-4.66866e-05
-9.90771e-06
-2.63303e-05
-2.66262e-05
-2.44357e-05
6.50116e-06
2.42841e-05
2.89857e-05
1.4115e-05
2.96578e-05
2.91352e-05
1.91056e-05
-1.19764e-05
-2.55967e-05
-2.90683e-05
-2.52741e-05
-4.38133e-05
3.35906e-06
2.56544e-05
-1.10445e-05
-3.07624e-06
-2.45187e-05
6.53768e-05
7.59537e-06
-2.4796e-06
-5.60125e-05
-2.60749e-05
-2.44284e-05
-3.22396e-05
1.48718e-05
4.841e-05
2.4256e-05
-8.07396e-06
-1.99791e-05
-6.79345e-06
-1.24253e-05
-3.59331e-05
3.27498e-06
9.94126e-08
-7.10847e-05
-6.62073e-05
-1.93987e-05
-1.02003e-06
-6.92945e-05
-7.82557e-05
-2.02772e-05
-2.62029e-05
-1.18765e-05
1.24173e-05
1.38479e-05
1.99162e-05
-5.80364e-06
3.40197e-05
-2.25079e-06
5.14759e-05
-2.46379e-05
1.7994e-06
1.1266e-05
3.03342e-05
2.56711e-05
-1.63403e-05
2.5901e-05
2.97681e-05
-2.62221e-05
6.16928e-05
-9.44519e-06
-2.3176e-05
-3.42296e-05
-3.0441e-05
3.05222e-05
1.13522e-05
2.26447e-05
2.38097e-05
6.28821e-06
-1.58461e-05
-2.45282e-05
-2.74299e-06
-9.25608e-06
-1.46438e-05
4.30705e-05
-3.85422e-05
9.67385e-06
-3.91103e-05
-2.13354e-05
1.86627e-07
-2.27583e-05
5.38911e-05
-9.98793e-06
-6.33792e-06
-2.6575e-05
-2.70081e-05
-3.84506e-05
2.82845e-06
1.94078e-05
-2.00905e-05
-3.73534e-05
-3.6025e-05
-3.02998e-05
-1.52668e-05
-3.77114e-05
5.8054e-06
4.46053e-05
1.73591e-05
1.17573e-05
-3.6065e-05
-2.18112e-05
4.99589e-05
1.37817e-05
-5.22055e-05
-2.41928e-06
2.14297e-05
2.48296e-05
-2.81662e-05
6.19383e-07
-3.38461e-05
-1.36564e-05
-6.23783e-06
3.87157e-05
-3.53215e-06
-2.44631e-05
4.30872e-05
2.25749e-05
-7.01024e-06
-5.7922e-05
-2.19529e-05
-2.20972e-05
2.71418e-05
3.71808e-05
-3.51022e-05
5.71624e-05
-7.51581e-06
-2.57934e-05
1.52275e-05
8.27793e-05
5.44833e-05
5.70198e-05
4.38991e-05
-8.41004e-06
2.63004e-05
5.3877e-05
-7.63399e-06
-1.7598e-05
-2.15726e-05
4.31681e-05
-9.04051e-06
-3.44058e-05
1.98296e-05
3.2925e-05
2.47105e-05
4.24893e-05
-8.73348e-06
-5.7537e-05
1.13202e-05
-3.40779e-05
-7.32105e-05
-4.13571e-05
4.91437e-06
2.58477e-05
-1.03927e-05
2.42347e-05
4.59514e-05
1.30892e-05
-1.10686e-05
-3.13966e-05
-1.03272e-05
2.26471e-05
3.20208e-05
9.78601e-06
-1.43546e-05
-2.77495e-05
-6.6928e-06
-5.81155e-06
-4.24999e-05
4.27123e-05
3.88482e-05
5.36962e-05
3.71333e-05
-4.27719e-05
-4.20708e-05
-1.72795e-05
-9.86126e-05
-7.6146e-05
-4.29282e-05
-1.36389e-05
1.70376e-05
3.94375e-05
4.25591e-06
2.05674e-05
2.78917e-05
5.00964e-06
1.65874e-05
-1.11707e-05
-1.10112e-05
-4.09194e-05
4.2843e-07
3.71563e-06
2.31301e-05
2.25767e-05
2.43488e-05
5.61164e-05
1.04636e-05
-2.36245e-05
1.53836e-05
-3.3521e-05
4.20783e-05
2.47754e-06
-4.76722e-05
-2.40689e-05
-4.99035e-05
-1.12155e-05
-2.98983e-05
-6.15601e-06
2.59156e-05
1.85553e-05
-1.12611e-05
0.000109086
0.000124706
0.000141105
0.000187868
0.000264893
0.000379311
0.000629221
0.000961786
0.00150754
0.00239724
0.00383404
0.0060165
0.00933176
0.0146506
0.0230069
0.035924
0.0558417
0.0881852
0.137551
0.21324
0.335035
0.528939
0.813985
1.2703
2.01879
3.13842
4.86693
7.93459
12.4845
18.9746
31.0925
49.7714
73.0354
121.191
195.042
275.718
415.104
711.564
799.243
1695.49
7.98348e-06
-2.68585e-05
4.43927e-07
-1.35164e-05
2.18276e-06
1.91501e-05
3.3888e-05
-2.11425e-05
-5.54249e-05
3.66902e-05
2.46062e-06
3.23544e-05
5.8489e-05
-3.10865e-05
-2.56026e-05
2.22525e-05
5.69198e-05
-4.94898e-06
2.2143e-06
1.46634e-05
-1.30638e-05
4.18946e-05
3.38839e-05
-4.03129e-05
-1.58987e-05