/*--------------------------------*- C++ -*----------------------------------*\
| =========                 |                                                 |
| \\      /  F ield         | OpenFOAM: The Open Source CFD Toolbox           |
|  \\    /   O peration     | Version:  2412                                  |
|   \\  /    A nd           | Website:  www.openfoam.com                      |
|    \\/     M anipulation  |                                                 |
\*---------------------------------------------------------------------------*/
FoamFile
{
    version     2.0;
    format      ascii;
    arch        "LSB;label=32;scalar=64";
    class       volScalarField;
    location    "0.004";
    object      ddt0(rho,e);
}
// * * * * * * * * * * * * * * * * * * * * * * * * * * * * * * * * * * * * * //

dimensions      [1 -1 -3 0 0 0 0];

internalField   nonuniform List<scalar> 
180000
(
-1.20747e-05
8.31509e-06
-1.89719e-05
2.52165e-05
-3.55168e-05
2.1197e-05
-2.70587e-05
-1.43993e-05
6.0436e-05
-2.35663e-05
-3.83521e-05
-6.36455e-05
3.24163e-05
6.14339e-05
5.73163e-05
2.74116e-05
6.78538e-06
1.51692e-05
6.2493e-05
1.98055e-05
-7.19294e-05
-4.55801e-05
-8.46826e-05
-7.70152e-06
-5.20388e-05
1.09084e-05
-1.97536e-05
8.55504e-05
3.65002e-05
8.7633e-05
3.1056e-05
5.01589e-05
-2.39338e-05
-3.78967e-05
-1.93225e-05
-0.000102162
-4.75462e-05
-1.82847e-05
2.47288e-05
1.74449e-05
1.30954e-05
4.28385e-05
5.77961e-05
-3.92073e-05
-9.77905e-06
5.3075e-05
-1.32498e-05
2.85271e-05
-2.21414e-06
2.51969e-06
8.43638e-05
1.1233e-05
-4.19412e-05
-5.97716e-05
-0.000152062
-0.000103384
7.03111e-06
-6.83714e-06
-3.89793e-05
-0.000101945
-1.54843e-05
7.72199e-05
7.25708e-05
2.46738e-05
-5.3795e-05
4.3069e-05
-2.44146e-05
6.59053e-05
0.000118729
8.32868e-05
8.66286e-05
6.94485e-05
-5.53496e-06
-3.97297e-05
-3.53717e-05
2.67844e-05
6.06664e-05
5.58669e-05
5.15022e-05
-3.24303e-05
-2.26725e-05
2.26718e-05
1.16735e-05
-0.000117269
-1.46447e-05
6.61227e-05
-2.47482e-06
-4.5993e-05
-4.88146e-05
2.79011e-05
5.17763e-05
5.02773e-05
-3.68035e-05
2.92474e-05
-1.29316e-05
-4.52886e-05
-5.35422e-05
-0.000129879
-1.34202e-05
-3.88299e-06
2.96468e-05
-7.29691e-06
-1.02457e-06
1.33001e-05
-6.17167e-05
-5.50592e-05
-1.7843e-05
-6.62618e-05
-8.85372e-06
-2.85436e-05
-0.000105843
1.56332e-05
-2.0104e-06
-4.78011e-05
-2.48948e-06
8.8582e-05
0.000116057
9.14277e-05
9.81437e-05
5.68042e-05
1.65334e-06
8.02405e-05
1.47905e-05
5.57617e-05
2.31539e-05
-2.97277e-05
-3.00868e-05
-9.50698e-05
-7.9037e-05
2.74157e-05
-5.25475e-05
-9.72004e-05
-1.51309e-05
1.42178e-05
3.53709e-06
0.000154414
7.85375e-05
6.40135e-05
7.3482e-05
3.88466e-05
2.31787e-05
-5.29764e-05
-7.26808e-05
-1.38134e-05
-7.80139e-05
1.55991e-05
-3.52523e-05
-9.89943e-05
-4.65836e-05
-7.13967e-05
-5.3079e-05
1.06573e-05
-6.93699e-06
1.78306e-05
3.20049e-05
-3.82644e-05
2.26918e-05
6.87056e-05
6.04255e-05
3.04782e-05
5.58733e-05
5.37332e-05
-1.04301e-05
-1.85854e-05
-5.0372e-05
-6.67071e-05
-7.16802e-05
-2.77111e-05
3.66326e-05
-4.18197e-05
-3.12808e-05
8.33714e-06
3.48936e-05
3.09546e-05
-1.8386e-05
-5.74723e-05
5.61281e-05
3.55089e-06
-1.34597e-05
-2.50333e-05
-4.58061e-06
-4.50646e-05
1.24682e-06
3.87151e-05
5.20273e-05
0.000107736
1.6339e-05
9.51141e-06
-4.56337e-05
-4.77609e-07
4.37687e-05
4.00622e-05
-6.78066e-05
-5.83955e-05
-1.01672e-05
8.24626e-05
7.69717e-05
3.47218e-05
-5.06752e-05
-3.23866e-05
5.07154e-05
3.76935e-05
4.95882e-05
2.02005e-05
3.87568e-05
5.12365e-05
3.79085e-05
-4.22014e-06
-1.51173e-05
-2.45269e-06
2.4308e-05
-1.30343e-05
-1.72363e-05
-7.1265e-05
-0.000134352
-3.11389e-05
4.07181e-05
1.61492e-05
5.28302e-05
-1.7537e-05
-4.50667e-05
-2.40272e-05
-6.98412e-05
3.61245e-05
2.8334e-05
3.71448e-05
-1.5885e-05
7.97791e-05
6.95359e-05
7.88915e-05
1.73401e-05
1.5295e-05
9.66762e-05
3.78213e-05
6.09039e-05
1.85317e-05
8.13596e-05
3.64582e-05
3.86823e-05
-8.6305e-05
-9.3068e-06
5.02867e-06
-1.85568e-05
-4.85929e-05
-2.7798e-05
6.71644e-05
7.32599e-05
2.81158e-05
-3.09228e-05
-2.66804e-05
1.71517e-06
-3.34429e-05
1.17579e-05
2.88713e-05
-4.31183e-05
2.63098e-05
4.64641e-05
8.73418e-05
6.24007e-05
0.000226169
0.000436526
0.00064912
0.00103005
0.00167761
0.00273993
0.00433479
0.00684468
0.0108968
0.0172425
0.0271491
0.0429985
0.0681092
0.107677
0.170429
0.270366
0.427818
0.677145
1.07428
1.70231
2.69091
4.27166
6.79102
10.7578
17.0599
27.1901
43.1479
68.4281
109.63
175.859
279.135
447.706
722.885
1151.96
1873.92
3126.35
5046.28
8455.31
14522.1
24838.4
38864.2
1.82721e-06
-2.11996e-05
5.65522e-06
2.41203e-05
-1.87712e-05
1.9545e-05
-2.99544e-05
-3.91059e-05
-1.4739e-05
-3.67071e-05
3.58742e-05
6.46329e-05
-1.64527e-06
5.02932e-05
2.49319e-05
-6.14869e-05
-3.00023e-05
-2.86811e-06
-4.50103e-05
-3.66469e-05
5.57734e-05
5.62055e-05
0.000144315
4.7211e-05
-9.00147e-06
-6.79978e-05
-5.59415e-05
5.37244e-06
1.90645e-06
3.00752e-07
3.13925e-05
3.42045e-05
1.11105e-05
-8.89045e-05
-4.78695e-05
-6.25165e-05
-3.16962e-05
4.48691e-06
2.81151e-05
4.70954e-05
6.07562e-05
2.9655e-05
-4.82934e-06
-5.08006e-05
2.53946e-05
-7.32008e-06
-7.53468e-05
-4.88545e-05
-1.91807e-05
5.29527e-05
3.20047e-05
2.15631e-05
-1.78729e-05
-4.88496e-05
-4.53776e-05
-6.60788e-05
-1.97189e-06
-1.42407e-05
-4.23427e-05
-5.93408e-06
1.03859e-05
3.4603e-07
-1.31816e-05
2.63314e-05
2.19235e-05
8.1851e-05
2.36676e-05
-5.81501e-05
-7.9873e-06
2.64131e-05
3.5793e-06
4.85317e-05
2.64372e-05
9.08979e-05
9.68365e-05
-3.12382e-05
3.18355e-05
4.80658e-07
-8.14546e-05
-1.01036e-05
8.85897e-06
-1.9077e-05
4.59926e-05
8.53482e-06
1.63644e-05
4.84064e-06
3.65766e-05
0.000100498
9.80429e-05
3.42158e-06
-7.41808e-05
-0.000130138
-0.000138685
-7.66742e-05
-8.60977e-05
-4.95393e-05
6.36059e-06
-1.24444e-05
-8.61319e-07
-5.64348e-05
6.54743e-05
2.91813e-05
-2.44427e-05
-3.51663e-06
8.85382e-07
-2.19548e-05
3.69898e-05
1.53396e-05
-0.000112591
-2.95605e-05
-1.87608e-05
3.33407e-05
7.30098e-05
3.57403e-05
9.56858e-06
-4.88289e-05
-5.17744e-05
-3.19263e-05
4.88709e-05
9.70886e-05
1.2084e-05
-2.83577e-05
7.25666e-06
6.20385e-07
4.45331e-05
-2.25237e-05
3.10536e-05
0.000129069
6.77833e-05
5.46404e-05
-2.33471e-05
5.599e-05
8.16028e-06
-5.15043e-05
-9.0648e-05
-4.68211e-05
-2.45557e-05
6.45328e-06
2.5179e-06
-0.000101595
-0.000113573
-3.58749e-05
1.88208e-05
9.83505e-05
-3.61525e-05
-1.06592e-06
6.65865e-05
5.47672e-05
5.21184e-05
8.66337e-05
-2.50425e-05
-9.55801e-05
-3.29751e-05
-2.9118e-05
-0.000180882
-9.74522e-05
-3.14651e-05
3.49921e-05
8.10988e-05
1.62793e-05
4.64275e-05
-4.7678e-05
-8.52514e-05
-7.82422e-05
4.90628e-05
0.00010395
5.86499e-05
3.78345e-05
1.93844e-05
5.3268e-06
-0.000105401
-8.51353e-05
2.63266e-05
-1.1801e-05
3.60798e-05
-6.57783e-05
-9.70941e-05
1.74302e-05
1.50858e-05
6.92252e-05
3.68428e-05
5.42358e-06
3.88216e-05
-2.02562e-05
5.15803e-05
1.04163e-05
-3.9857e-05
5.47606e-06
-1.09553e-05
-1.03892e-05
4.96671e-05
2.75893e-05
3.12745e-05
-1.43484e-05
5.21115e-06
-1.27043e-05
2.3055e-06
3.94793e-05
-3.25226e-05
1.43834e-06
1.42776e-05
1.25565e-05
2.26706e-05
-1.30306e-05
8.86351e-06
-4.29504e-05
-2.8737e-05
6.84799e-05
4.04101e-05
-2.1273e-05
3.30993e-05
6.57082e-06
3.41051e-06
-2.05191e-05
-9.89252e-06
4.16929e-05
2.3939e-05
5.7845e-05
-2.10698e-05
-4.2189e-05
-1.72632e-05
2.7872e-05
3.16599e-05
-3.17001e-05
0.000109671
0.000104077
6.04137e-05
7.56414e-06
-3.28639e-05
-4.47597e-05
-2.48108e-05
-4.34925e-05
2.05095e-05
4.91443e-05
6.51122e-05
5.92507e-05
6.16476e-05
7.00432e-05
3.40086e-05
6.10171e-05
2.39788e-05
-3.26289e-05
2.05918e-05
-2.01264e-05
0.000103533
0.000111159
-6.56186e-05
-4.17182e-05
4.47888e-05
-6.79248e-05
-0.000121668
2.64102e-05
-4.97017e-05
-4.57759e-05
-4.12796e-05
-6.47309e-05
-8.23533e-05
0.000129403
0.000217128
0.000250709
0.000475785
0.000689829
0.000988033
0.00165156
0.0025953
0.00412539
0.00659706
0.0103814
0.0164002
0.0258791
0.0409467
0.0648505
0.102517
0.162014
0.256568
0.405955
0.641105
1.01401
1.60728
2.53789
4.0109
6.36466
10.0831
15.9163
25.2473
40.0924
63.3679
100.581
161.199
255.743
404.712
651.739
1039.2
1646.86
2713.62
4393.09
7050.5
11753.4
19925.2
30898
-3.18295e-05
2.2922e-05
4.05222e-05
-5.62441e-05
4.20454e-05
-4.15776e-06
-5.57223e-05
-3.48185e-05
9.15721e-06
5.47507e-05
-5.08894e-05
8.46909e-05
7.58595e-05
-3.52583e-07
8.32876e-06
-1.04907e-06
-6.23568e-05
-3.12684e-05
8.10221e-05
-3.33133e-05
-2.53379e-05
7.5029e-06
5.12399e-05
3.30213e-05
-1.82243e-05
-3.62828e-06
1.92476e-05
-2.10645e-05
3.01903e-05
1.04682e-05
2.11102e-06
6.767e-05
-3.72075e-05
-8.32855e-06
2.87418e-05
3.32905e-05
0.00010007
-3.53508e-05
-0.000138951
-9.4789e-05
2.1952e-05
0.000136787
-4.84451e-06
-8.18027e-05
3.08783e-05
-2.73829e-05
-0.000160522
-3.15381e-05
1.04664e-05
-1.58735e-05
-5.30827e-05
1.184e-05
7.79526e-06
7.03774e-05
0.000122105
3.60111e-05
-2.63717e-05
-3.24618e-05
-3.63103e-05
1.5554e-05
3.41928e-05
3.68614e-06
4.7729e-06
2.84713e-05
-8.81912e-06
-1.65224e-05
-3.94927e-05
-7.24254e-05
-4.24587e-05
-4.85855e-05
-5.52319e-05
-7.02891e-05
-1.7088e-05
9.78175e-06
3.25202e-05
4.37192e-05
0.000139804
0.000130105
3.85694e-05
6.17722e-05
8.72775e-05
-4.21556e-06
-2.92169e-05
4.47749e-06
4.00134e-05
5.25611e-05
-1.43011e-05
-2.59167e-05
-2.46541e-05
3.29933e-05
-5.48847e-05
-0.000122154
-8.91405e-05
-5.31128e-05
-3.69133e-05
-1.86398e-05
1.63136e-05
-3.01739e-05
-1.06788e-05
-4.86193e-06
-1.82222e-05
-4.88819e-05
1.74137e-05
-4.76723e-05
-2.88951e-05
7.27075e-06
5.98754e-05
-1.45845e-05
-7.48961e-06
2.91044e-05
7.90651e-05
1.89571e-05
2.33958e-05
-8.64128e-05
9.15275e-06
0.000131752
3.53227e-05
-8.64142e-06
1.92698e-05
-3.69591e-05
-1.77175e-05
8.95443e-06
-1.70575e-05
4.9957e-05
2.12376e-05
8.17619e-05
1.34722e-05
1.66039e-05
2.08021e-05
-1.28966e-05
-2.81174e-05
2.83051e-05
-5.97981e-06
4.96306e-05
3.20195e-05
-4.27541e-05
-5.3852e-05
-9.98573e-05
-0.000101893
-8.11392e-05
-3.93172e-05
8.41856e-05
2.4601e-05
-6.7681e-05
-8.49232e-05
9.10451e-06
6.61821e-05
-6.139e-06
7.38248e-05
3.52724e-05
5.01634e-06
-4.54129e-06
-1.66161e-05
6.68099e-06
3.53834e-07
5.55163e-06
5.98109e-05
-9.19966e-06
-0.000107552
6.26031e-05
8.49724e-06
-2.09567e-05
-3.94411e-05
-4.78929e-05
-8.89745e-06
5.71483e-07
9.55987e-06
-1.38248e-05
2.19806e-05
-7.89634e-06
-4.09342e-05
-5.85119e-05
-4.07842e-05
1.13747e-05
4.8095e-05
4.32214e-05
6.81125e-05
-9.3427e-06
-9.88925e-06
-4.52841e-05
-1.68709e-05
4.20522e-05
-5.22648e-05
-1.15554e-05
2.36733e-05
-6.34228e-06
3.02444e-05
1.76472e-07
1.80363e-05
7.71825e-06
0.000115716
5.73049e-05
1.61561e-05
4.32447e-05
-6.49538e-05
-8.43419e-05
1.70405e-05
-1.06596e-05
9.10871e-06
6.63697e-06
1.29102e-05
-4.2187e-05
-4.39781e-05
-3.20224e-06
-6.61275e-05
-2.42947e-05
-4.9933e-05
1.15594e-05
1.46992e-05
6.37994e-05
5.42607e-05
3.52091e-05
-2.83799e-05
4.85147e-05
3.57029e-05
-3.68459e-05
2.03211e-05
7.45371e-06
3.83957e-05
6.19091e-05
1.37957e-05
2.85646e-05
5.47473e-05
5.92287e-06
4.46351e-06
4.04499e-05
1.81529e-06
3.11584e-05
-1.04934e-05
2.1473e-05
-2.46099e-05
2.12394e-05
5.97603e-05
-4.92295e-05
-8.0305e-07
-7.57416e-06
-4.03134e-05
-3.06225e-05
-9.83337e-05
2.52136e-06
-1.05674e-05
3.96501e-05
5.25422e-05
5.27509e-05
3.49592e-05
2.34403e-05
8.24505e-05
-2.06826e-05
1.13261e-05
-8.09665e-06
-0.000107592
2.6729e-05
4.73977e-05
-2.76845e-06
6.94936e-05
2.83391e-05
9.88029e-06
3.28087e-05
8.21694e-05
0.000288209
0.000372728
0.000554299
0.000995859
0.00153206
0.00240274
0.00381542
0.00604876
0.00949408
0.0150461
0.0237874
0.0375149
0.0591859
0.0934291
0.147394
0.232766
0.367849
0.579632
0.913419
1.44575
2.28027
3.58768
5.67348
8.98109
14.1104
22.2504
35.3252
55.6816
87.6778
140.262
221.887
346.763
557.037
890.572
1386.96
2257.92
3658.33
5744.74
9311.63
15838.3
24196.8
3.18251e-05
3.48514e-05
-4.34809e-05
1.99967e-06
2.51989e-05
-6.92516e-05
-9.02003e-06
5.61807e-05
1.55109e-05
2.91254e-05
-3.26757e-05
-6.36652e-05
-4.5897e-05
-3.12766e-05
0.000135363
9.25604e-06
-0.000100549
-1.9129e-05
-7.56655e-05
4.82928e-05
-1.09551e-05
3.38471e-06
6.55772e-05
7.24447e-05
1.88238e-05
-6.21693e-05
-1.25005e-05
3.17301e-05
2.38776e-05
9.57478e-05
7.16616e-05
-4.63349e-05
-3.18355e-07
3.56106e-05
-3.6889e-06
-3.89457e-05
-7.60074e-05
-1.83849e-05
-8.92208e-06
1.94081e-05
-4.70606e-05
-8.11487e-05
-8.10521e-05
-3.24264e-05
7.63883e-06
-8.71295e-06
5.13895e-05
7.4287e-05
2.53749e-05
-1.04825e-05
9.35891e-06
-0.000121209
-1.80958e-05
5.21172e-05
2.65e-05
-5.18748e-05
-1.08396e-05
-3.46818e-05
-6.91527e-05
-2.50722e-05
-1.36002e-05
4.9853e-05
4.18639e-05
8.05958e-05
0.000120463
4.77234e-05
-4.26703e-05
-8.99124e-05
-2.25328e-05
-2.6935e-05
5.42939e-05
5.35324e-05
-5.00212e-05
-8.0888e-06
-2.97819e-05
4.09048e-05
2.95633e-05
-9.08172e-05
4.10258e-05
9.5429e-05
5.04443e-05
9.93568e-06
4.16707e-05
6.51452e-08
1.28602e-06
6.56942e-06
7.62642e-05
2.35328e-05
-4.71194e-05
1.69828e-06
-4.58001e-05
4.62613e-05
-1.36751e-05
-5.55749e-05
3.36238e-05
-3.49555e-05
-7.22391e-05
-5.3461e-05
1.28022e-05
6.24929e-05
2.10431e-05
2.8693e-05
-5.19719e-05
-4.45719e-05
-2.44153e-05
-1.63251e-05
-0.000152621
-2.72085e-05
4.46403e-05
1.1608e-05
2.65546e-05
4.52345e-05
9.22153e-05
0.000128494
0.000118176
-3.52047e-05
-3.50266e-05
-3.02477e-06
0.00010675
1.05509e-05
-0.000114401
-6.35275e-05
-6.90304e-06
7.50483e-05
4.52972e-05
-6.53779e-05
-3.55111e-05
1.4868e-05
1.06314e-05
-3.09944e-05
9.27912e-05
7.59268e-05
7.44335e-06
-1.21896e-05
-4.94753e-05
-4.07952e-05
2.57647e-05
-1.74659e-05
-0.00016693
-5.03413e-05
2.81239e-05
1.45937e-05
5.02278e-06
-1.23398e-05
3.97504e-05
1.1889e-05
6.35873e-07
-1.33264e-05
-2.18524e-05
3.80706e-05
6.92356e-05
-1.21012e-05
-4.27394e-05
-9.87554e-05
-8.74712e-06
2.30231e-05
4.84982e-06
0.000117913
9.80589e-05
8.99639e-05
4.71928e-05
3.41906e-05
-5.27424e-06
-1.19842e-06
4.71792e-05
-0.00011539
-0.000127594
-6.77564e-05
1.38029e-05
1.64406e-05
3.14763e-05
0.000114412
3.55711e-05
-2.19289e-05
1.97748e-05
3.38669e-05
6.38254e-06
-7.27488e-05
-9.0497e-05
-7.30034e-05
-1.24044e-05
8.2163e-06
-1.82821e-05
-6.78317e-06
1.574e-05
4.10156e-05
5.1213e-05
5.17204e-05
-6.01585e-07
7.85272e-05
7.70592e-05
2.71959e-05
-6.82079e-05
-4.82522e-05
7.40499e-06
-2.01387e-05
-5.63377e-05
-2.15664e-05
3.4168e-05
-2.93859e-05
-7.55351e-05
-4.36304e-05
2.61283e-05
1.68617e-05
1.90455e-05
2.01516e-05
1.8351e-06
2.86338e-05
-6.45024e-05
-7.4989e-06
7.78087e-06
-3.31134e-05
-4.75538e-05
2.52121e-05
1.75094e-05
-1.53309e-06
2.54111e-05
4.2191e-05
5.68414e-06
4.95267e-05
2.41213e-06
-5.52178e-05
1.5067e-05
4.90554e-05
-3.34403e-05
-5.67864e-05
2.83692e-05
5.63413e-05
0.00013069
0.000180198
-2.90359e-05
-2.37617e-05
-4.04725e-05
-1.46849e-05
1.56259e-05
-1.33456e-05
-5.93519e-05
2.10214e-06
-5.10284e-06
-1.14608e-05
1.20319e-05
2.67039e-05
3.21044e-05
1.47426e-05
8.26873e-06
-7.80773e-06
4.77986e-05
7.50891e-05
0.000119093
8.76261e-05
1.16387e-05
-2.0081e-05
-2.83659e-05
3.51892e-06
3.10209e-05
-6.31144e-07
-7.00645e-06
-1.94661e-05
9.89192e-05
0.000161356
0.000412904
0.000532296
0.000861975
0.00138417
0.0022231
0.00340519
0.00530584
0.00843379
0.0133101
0.0210745
0.0331866
0.0520763
0.0821637
0.129082
0.20337
0.321002
0.504872
0.792593
1.251
1.9712
3.09046
4.8654
7.69088
12.0467
18.8763
29.8872
47.0547
73.6183
117.272
185.517
287.283
457.767
734.89
1133.61
1815.93
2951.39
4595.44
7249.83
12332.6
18642.8
8.94386e-06
-5.78762e-05
1.29796e-05
2.03832e-05
2.58476e-05
-6.53258e-05
1.43058e-05
-3.09744e-05
4.46034e-05
1.69123e-05
1.59712e-05
-5.40278e-05
-8.89049e-05
-1.51385e-05
7.5018e-05
-8.18505e-06
-1.54967e-05
2.54225e-05
1.19084e-05
-4.92022e-06
4.05087e-05
3.79399e-05
-2.54081e-05
-2.64535e-05
2.27665e-05
5.06232e-05
4.51178e-05
-4.86128e-05
5.46495e-06
-1.43616e-06
-3.89262e-05
-4.7045e-05
-1.69787e-05
3.45561e-05
5.09637e-05
1.51254e-05
8.1031e-05
5.91798e-05
-2.17897e-05
3.31364e-05
5.3453e-05
0.000108298
1.52984e-05
-0.000114359
-4.22777e-05
-2.8008e-05
-3.06917e-05
6.93199e-05
7.62742e-05
1.4995e-05
3.1622e-05
-7.94406e-05
6.7866e-06
9.45276e-06
-1.59234e-05
1.25745e-05
2.39622e-05
7.35651e-06
-1.34042e-05
-5.53429e-05
1.78061e-05
1.24745e-05
-9.45341e-05
-7.54381e-05
-0.000103957
-6.79553e-05
-3.57634e-05
-2.23458e-05
4.86617e-05
7.99094e-05
-4.2085e-06
-8.48368e-05
-6.33531e-06
4.58418e-05
7.27255e-05
4.51983e-06
7.37322e-05
5.50535e-05
-1.89361e-05
-6.92011e-06
6.62064e-05
-7.18124e-05
-5.16121e-05
-5.73385e-05
-1.52875e-05
5.72358e-05
-1.33965e-05
3.62343e-05
6.45824e-05
4.67172e-05
3.20502e-05
-6.03034e-05
-0.00015932
-4.52149e-05
-3.74837e-05
3.5212e-06
-1.84442e-05
1.61166e-06
3.04649e-06
-8.64708e-05
-5.52856e-05
1.18061e-05
-1.70813e-05
6.45192e-05
4.40685e-05
7.54281e-05
0.000113672
5.80419e-05
1.3299e-05
-1.88639e-06
-3.80996e-05
1.30266e-05
-1.1044e-05
1.5532e-05
-4.3848e-05
6.10843e-05
3.28369e-06
-4.06659e-05
-1.83903e-05
-3.57145e-05
-7.61381e-06
5.25959e-05
-9.2771e-06
-2.59201e-05
5.62578e-06
8.28543e-05
5.95459e-05
6.64093e-06
-4.95073e-05
7.26205e-06
6.82795e-05
-3.46492e-05
-8.38774e-05
-4.50554e-05
2.62258e-06
2.48169e-05
-1.81859e-05
-9.7526e-06
-4.78765e-05
2.65844e-05
-2.03143e-05
-3.43021e-05
3.34298e-05
-4.54923e-05
-8.79988e-05
5.86535e-05
1.45636e-05
2.36262e-05
-2.3819e-05
2.37389e-06
-1.60473e-05
2.94205e-05
0.000101925
7.49372e-05
-5.67815e-05
-8.14037e-05
-5.75282e-05
-8.49994e-06
0.000117667
7.62813e-05
9.95526e-06
-7.73634e-05
-6.94469e-05
-6.65928e-05
-4.44039e-05
-6.91226e-05
-3.40579e-05
-1.90108e-06
-2.31061e-05
6.04281e-05
0.000107461
5.8292e-05
7.36726e-06
-2.73549e-05
-2.69206e-05
7.641e-05
9.60224e-05
-4.92282e-05
-9.38061e-06
-1.7172e-06
2.02362e-05
8.46464e-05
4.78165e-05
2.45449e-05
-3.12803e-05
4.06249e-05
5.74731e-06
-2.15669e-05
1.61488e-05
-2.82347e-05
-4.99547e-05
-6.06616e-05
-4.5866e-05
-6.99506e-05
-3.56276e-05
8.45286e-05
2.26633e-06
2.38012e-05
3.80832e-05
-5.83871e-05
-3.78282e-05
5.11479e-05
1.56548e-05
-5.2775e-05
-2.77061e-05
1.07234e-05
-6.54694e-05
-5.1646e-05
6.75021e-09
-4.68257e-07
6.40587e-06
8.14907e-05
-2.32953e-06
9.72928e-06
2.64366e-05
1.01171e-05
-6.0293e-05
-2.87136e-05
1.35863e-06
-3.19886e-05
-2.48355e-05
-4.40193e-05
-5.03218e-05
6.04594e-06
5.29793e-05
5.99653e-05
-2.84225e-05
-8.30735e-05
9.07123e-06
3.46381e-05
0.00010072
2.01859e-05
-1.22206e-05
3.54887e-05
2.22646e-05
1.03086e-05
1.84871e-05
-6.05141e-06
2.79791e-05
4.89062e-05
4.61482e-05
3.10825e-05
4.83827e-06
-4.35609e-05
-5.55985e-05
5.24645e-05
4.78925e-05
3.11726e-05
3.70876e-05
5.32634e-05
6.69954e-05
-4.33921e-05
-1.66499e-05
2.36729e-05
7.19259e-05
6.4637e-05
3.20668e-05
0.000141303
0.000178011
0.000212824
0.00031388
0.000461657
0.00065484
0.0011767
0.00189638
0.00295088
0.00467505
0.00734457
0.0114972
0.0179758
0.0283163
0.0445528
0.0701369
0.109988
0.172653
0.271809
0.426928
0.667951
1.05125
1.65442
2.58696
4.05594
6.39999
10.0044
15.5943
24.6114
38.7157
60.265
95.556
151.202
232.729
368.064
592.973
910.166
1437.25
2340.89
3639.73
5622.33
9543.35
14312.6
3.16603e-06
-1.13907e-05
2.77971e-05
6.71505e-06
-2.32723e-06
2.72757e-05
-4.12718e-05
-3.27547e-05
-2.5427e-05
-7.66878e-06
-2.46877e-06
2.98082e-05
3.32629e-05
-3.98805e-05
-3.4135e-05
9.05989e-05
5.48227e-05
2.97683e-05
0.000119063
2.59315e-05
-4.83359e-05
-7.5544e-05
-6.64228e-05
-3.89963e-05
-3.8634e-06
-3.23945e-05
4.66162e-05
4.32416e-05
-1.15219e-05
6.85389e-05
0.000119146
-2.7368e-05
-9.93293e-05
-2.47622e-05
-4.8627e-05
-2.75436e-05
-3.27124e-05
3.97826e-05
7.39688e-05
3.43862e-05
-1.83789e-05
2.53298e-05
4.22672e-05
-7.40562e-05
-9.2005e-05
-9.69382e-05
4.95618e-05
6.75952e-05
-1.42555e-05
7.99443e-06
2.02394e-05
6.86817e-05
-5.38297e-05
3.43983e-05
2.11254e-05
1.62446e-05
-2.68508e-05
-1.03869e-05
-3.55386e-05
3.9525e-06
2.95748e-05
4.70537e-05
1.30581e-05
-6.37555e-05
-1.69889e-05
-5.9666e-07
-1.11698e-05
-1.41e-05
-0.000100958
8.4143e-05
0.000105864
4.65378e-05
8.07964e-05
4.67249e-05
4.65615e-05
0.000107873
5.64344e-05
2.78195e-05
-3.23584e-05
-1.51806e-05
7.28976e-06
-5.20407e-05
-6.80856e-05
-8.1183e-05
-0.000142043
-4.53271e-05
-4.63424e-05
-1.13061e-05
6.11509e-05
8.57526e-05
1.79067e-05
3.65496e-05
-9.57547e-06
-6.52646e-05
-1.22285e-05
-0.000118713
-7.19105e-05
-2.13475e-05
-2.123e-05
1.22875e-05
-5.73439e-05
-3.78109e-05
-2.20231e-06
4.42897e-05
7.6367e-05
4.00905e-05
7.07165e-05
3.35199e-05
2.56757e-05
2.47487e-05
-1.15545e-05
-0.000107955
-8.50294e-05
2.95169e-05
-5.34955e-08
-2.96316e-06
4.86268e-05
-6.4177e-05
3.11423e-05
5.2823e-05
1.9947e-05
-2.34031e-07
-3.95351e-05
-5.08562e-05
-2.84158e-05
-5.98054e-06
3.84823e-05
0.000168326
0.000139045
7.42091e-05
-2.76327e-05
-0.000113308
2.31818e-05
3.35471e-05
-2.10766e-05
2.17682e-05
4.16522e-05
2.52184e-05
-3.64759e-05
-7.36018e-05
-8.72527e-05
-3.9601e-05
-5.74894e-05
-3.77919e-05
1.56049e-05
7.10878e-05
1.31296e-05
2.66837e-05
-3.39425e-06
1.62757e-05
1.87808e-05
6.391e-06
-1.31323e-06
-1.06327e-05
-1.7917e-06
4.15063e-05
6.46498e-05
-7.36144e-05
-6.1898e-05
-8.18252e-05
-4.88899e-05
6.3965e-05
-1.44801e-05
-2.23068e-05
-1.85882e-05
-1.06432e-05
-8.59593e-06
2.77634e-05
4.4457e-05
-8.60291e-06
9.8956e-05
5.39475e-05
-5.74336e-05
-0.000106598
-7.12508e-05
3.65934e-05
7.08942e-05
0.000130992
8.77197e-05
4.83642e-05
3.64486e-06
7.9886e-06
-6.19309e-06
1.68113e-05
7.95973e-05
1.6025e-05
-2.5776e-05
-4.15381e-05
5.1733e-05
1.57211e-05
-2.58254e-05
-4.73997e-05
9.94829e-06
2.74802e-05
1.05424e-05
-1.20807e-05
-1.84668e-06
-3.78197e-05
2.81166e-06
0.000121757
0.000170227
7.40001e-05
2.93938e-05
2.85709e-05
9.79087e-06
1.30034e-05
-1.38902e-05
-2.40411e-05
-1.27961e-05
-5.67445e-06
-1.97948e-05
1.52047e-05
-3.22349e-05
-7.86351e-05
-5.57477e-05
-2.16726e-05
-1.35269e-05
-4.55888e-05
-1.09694e-05
-2.23289e-05
2.48577e-05
1.07958e-05
-9.47114e-05
-3.35757e-06
-5.29137e-05
-3.03692e-05
1.47933e-05
1.4221e-05
-6.59173e-06
3.63051e-05
3.68276e-05
7.31443e-05
-2.82883e-06
-7.33646e-05
-2.54053e-05
-5.22923e-05
-3.89777e-05
5.02349e-05
-1.40183e-06
-3.72527e-05
-7.5848e-06
6.21669e-05
9.57471e-05
0.000107183
5.4374e-05
7.18641e-05
-1.75366e-06
-5.34404e-06
-3.26362e-05
-7.87244e-05
-3.88128e-05
-2.47534e-05
-1.91571e-05
-6.8161e-05
7.31399e-05
7.9139e-05
4.37721e-05
6.70572e-05
9.41805e-05
0.000232241
0.000288244
0.000416623
0.000683425
0.000972219
0.00155481
0.00245442
0.00390327
0.00612668
0.00963376
0.0151549
0.0236973
0.0371402
0.058504
0.0913112
0.143088
0.224979
0.3528
0.550633
0.864244
1.35824
2.1194
3.31139
5.21573
8.14031
12.6388
19.8883
31.2633
48.4899
76.5717
121.137
185.694
291.843
471.23
721.587
1126.96
1837.34
2859.97
4350.52
7361.91
10972.4
-3.58902e-05
3.04788e-05
1.62564e-05
-4.14359e-05
-3.09739e-05
3.3933e-05
1.20233e-05
-2.20985e-05
-1.83958e-05
7.77602e-05
6.42295e-06
-4.26005e-05
8.0133e-06
6.05576e-05
1.72971e-05
1.15202e-05
2.32894e-05
-8.42272e-05
-7.28119e-05
-9.77905e-05
1.13228e-05
6.7843e-05
1.3067e-05
7.41955e-06
1.13392e-05
-4.78049e-05
-8.2899e-05
6.2573e-05
4.10611e-05
-1.56922e-05
7.41121e-06
-5.13702e-05
1.30809e-05
-7.08867e-06
-1.08962e-05
-3.74539e-05
4.44559e-05
4.76813e-06
-9.05886e-05
6.31471e-05
0.000162353
9.88466e-05
4.17775e-05
-6.04673e-05
-8.41094e-05
-2.59949e-05
-4.48178e-07
4.21374e-05
9.02918e-05
-4.68103e-05
9.88119e-06
6.18011e-05
-9.02096e-05
-2.29588e-06
-5.9172e-05
-5.00324e-05
-1.17219e-05
-6.55248e-05
-7.03719e-05
-3.22693e-05
-5.71566e-05
-5.96604e-05
-5.35528e-06
4.35268e-05
4.75518e-05
0.000126752
5.28902e-05
4.82388e-05
7.72704e-05
-1.68532e-05
-7.50342e-05
-4.56708e-05
7.95373e-06
6.00846e-05
6.80934e-05
4.2522e-05
5.70012e-05
1.73795e-05
2.61102e-05
-0.000115204
-5.30119e-05
3.29489e-05
-0.000117262
-5.35268e-05
4.78317e-05
7.63588e-05
6.99478e-05
1.47712e-05
4.00497e-05
-3.88239e-05
-6.3704e-05
2.19105e-05
-4.58212e-05
-9.55427e-05
-9.57095e-05
-1.27265e-05
0.000112057
3.70558e-05
-9.8608e-06
4.39177e-05
2.37189e-05
2.35478e-05
3.96143e-05
2.18876e-05
3.51644e-05
1.37165e-05
1.7347e-05
0.000104188
3.86543e-05
2.94572e-05
-1.43851e-05
-9.59454e-05
-0.000118466
-9.69592e-05
-0.000133771
-1.91277e-05
1.11879e-05
3.12465e-05
6.65172e-05
1.67227e-05
-7.05131e-06
6.93263e-05
-1.78509e-05
8.43634e-05
2.96558e-05
-3.71654e-05
-7.74633e-05
-2.31428e-05
-4.39591e-05
-3.8919e-05
-3.12926e-05
4.48355e-05
1.90076e-05
-3.0741e-05
3.66237e-05
9.48725e-06
-1.27529e-05
0.000138303
3.48731e-05
4.39103e-05
-3.58512e-05
-2.94532e-05
2.67671e-05
1.85575e-06
-1.05857e-05
1.87018e-06
-2.8813e-06
4.58475e-05
2.19992e-05
-4.46747e-05
-0.000105601
-9.26019e-05
1.82938e-05
1.84025e-05
-4.50187e-05
4.0065e-05
-2.07615e-05
-1.73657e-05
-5.49215e-06
5.72072e-05
4.59605e-05
3.53287e-05
-3.94816e-05
5.78367e-05
7.18607e-05
5.95835e-05
0.000122529
6.21107e-05
-4.09697e-05
-8.95008e-05
-0.000100243
-4.41821e-05
-7.26593e-07
-5.82972e-05
-3.41862e-05
-1.04992e-05
4.1915e-05
-2.02659e-05
1.23732e-05
-2.6072e-05
1.73492e-05
1.14255e-05
-5.44435e-05
-1.14697e-05
6.50384e-05
1.89233e-05
-5.27873e-05
2.26057e-05
-4.00334e-05
-7.11701e-05
2.19079e-05
-1.42998e-05
-0.00010171
-0.000120512
-1.54015e-05
2.35972e-05
3.74003e-05
9.09214e-05
3.58825e-05
-7.35571e-05
4.43017e-05
6.84898e-05
5.06294e-05
0.000126572
0.000124034
9.14931e-05
-1.58298e-05
2.66257e-05
9.23663e-05
-2.99047e-05
-6.12682e-06
-4.02452e-05
-9.77184e-05
-3.87812e-05
-8.73391e-05
-5.44362e-05
5.39728e-06
2.18562e-05
-9.1346e-05
-3.52057e-06
-6.35474e-05
-2.91383e-05
-1.04123e-05
2.07544e-05
-5.10941e-05
5.76495e-06
6.1277e-05
4.36665e-05
1.00572e-05
4.78828e-06
2.64069e-05
-6.22097e-06
1.10104e-05
-1.16211e-05
4.31406e-05
-5.23394e-06
3.70737e-05
8.33287e-05
5.14318e-05
5.55687e-05
-2.13891e-06
7.91438e-05
2.54489e-05
-6.89506e-05
-0.000100206
-6.21071e-05
-6.3655e-06
-5.41326e-06
-2.96614e-06
-6.12617e-06
6.18868e-05
5.97797e-05
-1.47065e-05
2.02326e-05
6.98654e-05
2.46777e-05
-2.38684e-05
0.000144854
0.000171865
0.000120014
0.000306221
0.000345995
0.000502546
0.000843808
0.00128239
0.00202085
0.00326318
0.00502294
0.00793843
0.0123546
0.0194116
0.030448
0.0478579
0.0747226
0.116572
0.18284
0.286391
0.446071
0.698577
1.09653
1.70795
2.66151
4.18503
6.52368
10.0992
15.8528
24.9034
38.5288
60.6448
95.9053
146.596
229.262
370.671
566.864
877.895
1431.71
2232.74
3360.07
5666.95
8405.7
7.53544e-07
-1.98989e-05
-1.52194e-05
6.01828e-05
2.79868e-05
-2.22877e-05
-1.03578e-05
3.23879e-05
5.11818e-06
-4.26266e-05
1.00554e-05
4.86932e-05
8.07254e-05
0.00010717
-2.77243e-05
-4.0556e-05
-8.66729e-05
-8.4781e-05
-2.92342e-05
6.03112e-05
5.25002e-05
4.37708e-05
5.29912e-05
4.6823e-05
1.85616e-05
-3.87076e-05
-7.99954e-05
-8.04881e-05
-7.17462e-06
-1.64298e-05
2.77891e-06
-7.98232e-05
-7.47748e-05
4.95741e-05
7.5827e-05
-2.13206e-05
-2.57697e-05
3.79757e-05
1.0154e-05
-0.000141844
-8.42508e-05
1.39611e-05
5.69786e-05
8.49256e-06
-1.29263e-05
-7.72707e-06
-4.50109e-05
6.12409e-05
6.10691e-05
3.69035e-05
-5.0191e-05
-4.13462e-05
-3.62446e-05
-5.13145e-05
-8.87503e-05
-5.88014e-06
-4.83407e-06
8.09476e-06
-9.9929e-06
9.45217e-06
5.0872e-05
0.000114647
2.54138e-05
-2.32842e-06
-6.32659e-05
7.75032e-05
-1.16081e-05
-6.48391e-05
-7.11892e-05
-1.68317e-05
8.54902e-05
5.18832e-05
8.72846e-05
0.000121671
6.13031e-05
-7.11188e-05
-4.64622e-05
-4.26375e-05
-1.0227e-05
-4.79134e-05
-3.01938e-05
-2.58371e-05
-3.41797e-05
4.81089e-05
3.16545e-05
6.90971e-05
1.35162e-07
-4.53161e-05
3.45986e-05
6.66484e-05
3.20593e-05
7.27184e-05
8.24082e-05
-2.6925e-05
-8.69212e-07
3.6147e-05
-3.40127e-05
-2.49966e-05
-2.82448e-05
3.2927e-05
2.13286e-05
-2.06464e-05
-4.75791e-05
-5.5012e-05
-2.75086e-05
1.00403e-05
-3.5512e-06
-3.15836e-05
-5.33949e-05
-1.89731e-05
2.15141e-05
9.84195e-06
9.39967e-05
7.20268e-05
-2.71334e-05
-3.24265e-05
-8.02712e-05
-5.4174e-05
-6.41971e-05
1.27295e-05
7.50829e-05
5.41119e-05
-3.37889e-05
-2.35146e-05
3.67688e-06
-6.45127e-05
-2.18739e-07
2.83687e-05
3.00132e-05
1.34711e-05
3.81674e-05
-5.22569e-05
-1.19746e-05
-1.24805e-05
5.62729e-06
0.000106724
6.11412e-05
-4.40401e-05
-3.65266e-05
1.47763e-05
1.45866e-05
2.35766e-05
4.18667e-05
8.12704e-05
0.000106421
0.000103084
-7.59262e-05
-5.35001e-05
-6.62136e-05
4.78249e-05
2.60648e-05
-6.25797e-05
1.10413e-05
8.0397e-06
-4.66869e-07
-1.27517e-05
5.27689e-06
-6.20627e-06
-7.20469e-05
-2.60231e-05
-3.54645e-06
-3.6417e-06
9.17877e-06
4.8121e-05
4.23005e-05
-9.89199e-05
-0.000114615
1.02436e-05
5.64134e-05
7.77267e-05
8.29077e-05
-5.77269e-05
5.49713e-06
5.97708e-05
-3.64899e-05
3.79886e-05
0.000117335
5.40366e-07
-0.000112326
-0.000124185
-0.000111471
-8.44671e-05
-4.07776e-05
-4.83835e-05
-3.9465e-05
-9.02598e-06
-1.41555e-05
-2.02689e-05
1.39727e-05
8.48566e-05
6.37233e-05
5.43063e-05
-2.99509e-05
-3.62632e-05
-0.000101898
-7.11601e-05
-1.09726e-05
-8.6052e-05
2.8702e-05
0.000143437
0.000135775
3.1047e-05
-3.54522e-05
3.93897e-05
4.38041e-05
-1.14004e-05
-7.54041e-05
3.91492e-05
0.000103611
-1.67225e-05
3.88861e-05
2.82908e-05
1.20791e-05
-2.06224e-05
-2.58092e-05
-1.14906e-05
-1.68593e-05
9.95619e-06
-1.67245e-05
-8.40702e-05
-9.2465e-05
-5.69339e-05
1.69739e-05
-5.02622e-05
-3.29159e-05
4.90733e-05
0.00011705
9.18749e-05
6.96036e-05
-2.4215e-05
4.86667e-05
1.71784e-06
-3.28642e-05
-3.82867e-05
-2.97643e-05
-6.13468e-05
-4.21607e-06
8.67896e-05
0.000139732
4.72134e-05
2.64158e-05
2.69839e-05
-4.75357e-06
-5.34188e-05
-6.36932e-05
1.95019e-05
-1.97618e-05
9.25039e-06
-2.82421e-05
-9.37663e-05
-4.27999e-05
-2.80167e-05
-1.50021e-05
7.66462e-07
4.46063e-06
6.76549e-06
1.98841e-05
0.00010158
0.000131572
0.000221641
0.000216006
0.00021308
0.000421335
0.000631035
0.00109621
0.00175332
0.00266009
0.00414961
0.00655894
0.0101138
0.0157353
0.0245792
0.0384515
0.0601184
0.0936963
0.146613
0.229349
0.356487
0.557183
0.873705
1.35924
2.11368
3.319
5.16837
7.98401
12.5082
19.6371
30.3274
47.6192
75.27
114.832
178.934
289.462
442.289
680.855
1110.13
1733.52
2589
4353.8
6434.91
-1.82534e-05
1.02252e-05
1.41541e-05
8.20835e-06
-2.41631e-05
-4.32213e-05
-5.58284e-05
7.38901e-05
7.55135e-05
6.53228e-05
-5.21403e-05
-9.0469e-05
-5.97221e-05
0.000117155
9.33882e-05
-2.89803e-05
-1.61325e-05
-1.91241e-06
3.51639e-05
8.88056e-06
4.40486e-05
-3.62646e-05
-4.78965e-05
5.80314e-05
3.36195e-05
-1.56493e-05
-0.000123001
-1.40454e-05
1.92623e-05
-4.76762e-05
7.76859e-06
1.26587e-05
-1.11596e-05
4.83343e-05
-9.3181e-06
2.55142e-05
2.40304e-05
3.01155e-05
-1.96329e-06