/*--------------------------------*- C++ -*----------------------------------*\
| =========                 |                                                 |
| \\      /  F ield         | OpenFOAM: The Open Source CFD Toolbox           |
|  \\    /   O peration     | Version:  2412                                  |
|   \\  /    A nd           | Website:  www.openfoam.com                      |
|    \\/     M anipulation  |                                                 |
\*---------------------------------------------------------------------------*/
FoamFile
{
    version     2.0;
    format      ascii;
    arch        "LSB;label=32;scalar=64";
    class       volScalarField;
    location    "0.004";
    object      ddt0(thermo:psi,p);
}
// * * * * * * * * * * * * * * * * * * * * * * * * * * * * * * * * * * * * * //

dimensions      [1 -3 -1 0 0 0 0];

internalField   nonuniform List<scalar> 
180000
(
1.54186e-11
-2.58451e-11
6.83006e-11
-8.65381e-11
7.05798e-11
-8.58062e-11
5.28534e-11
5.1258e-11
-7.87472e-11
6.87599e-11
4.6192e-11
1.29769e-10
-7.77656e-11
-1.16258e-10
-7.97792e-11
-3.57713e-11
1.82674e-11
-1.4282e-11
-7.58682e-11
4.23543e-11
2.3229e-10
1.18299e-10
1.85698e-10
-1.81473e-11
1.08401e-10
-7.63914e-11
3.84874e-11
-1.73197e-10
-1.53402e-10
-1.47234e-10
-2.4986e-11
-1.91235e-10
-5.26002e-11
7.59162e-13
-1.27286e-10
8.01308e-11
-2.78463e-13
-1.67625e-11
-9.89908e-11
9.32798e-11
5.61317e-11
-5.92623e-11
-9.05058e-11
2.32013e-10
1.84101e-11
-8.80292e-11
9.19206e-11
-2.96126e-11
6.59265e-11
9.20562e-11
-2.05439e-10
2.63509e-11
6.02688e-11
1.72484e-10
2.63758e-10
1.61904e-10
-3.60859e-11
-6.7136e-11
-3.01895e-11
2.40874e-10
8.79349e-12
-1.30342e-10
-6.56046e-11
-1.242e-11
1.71283e-10
-1.59724e-10
3.90791e-11
-1.74209e-10
-2.92237e-10
-1.61995e-10
-2.0505e-10
-1.4054e-10
-4.13325e-11
-8.45757e-12
8.18481e-11
-3.59948e-11
-8.27578e-11
-9.36762e-11
-2.10778e-10
9.6248e-12
-7.93273e-12
-5.73805e-11
-1.56796e-10
1.69606e-10
-1.12931e-11
-2.44468e-10
3.83702e-11
1.48922e-10
1.59109e-10
-3.75342e-11
-6.40527e-13
-4.47401e-11
1.0294e-10
-3.0885e-11
6.78306e-11
1.81835e-10
3.52505e-11
2.19445e-10
-7.4687e-11
-6.1308e-12
-1.01945e-10
-2.17684e-12
-4.95448e-11
2.80887e-11
1.16306e-10
-1.66702e-11
-5.77465e-11
-3.08959e-11
-4.391e-11
5.6274e-11
1.74418e-10
-1.09714e-10
-2.57889e-12
5.34379e-11
-1.96473e-11
-2.28151e-10
-1.30456e-10
-3.7142e-11
-9.40136e-11
8.64701e-11
1.50046e-10
-6.00156e-11
1.93325e-10
-4.92633e-11
4.75441e-11
1.56106e-10
7.50795e-11
2.31123e-10
1.36329e-10
-1.77127e-10
-4.19229e-11
5.73859e-11
-3.84971e-11
-9.41656e-11
3.71171e-11
-3.31372e-10
-2.541e-11
-2.06432e-11
1.01363e-11
1.12018e-10
7.486e-11
1.70288e-10
1.11616e-10
-5.98006e-11
1.31782e-10
-1.16592e-10
2.62963e-11
2.35222e-10
3.23578e-11
5.68896e-11
7.11883e-11
-6.49351e-11
5.94775e-11
-6.39174e-11
3.81787e-11
1.67387e-10
-1.2036e-10
-1.22903e-10
-8.04172e-11
-9.01247e-11
-6.95311e-11
-8.11928e-11
4.14676e-11
2.05834e-11
8.90076e-11
1.05153e-10
1.49543e-10
1.29761e-11
-1.05294e-10
1.67181e-10
3.09463e-11
-1.30331e-11
2.158e-11
-8.74714e-11
3.07404e-11
1.52161e-10
-8.36866e-11
-2.54217e-11
-2.91984e-12
-1.12551e-10
-1.08305e-10
-6.7337e-12
-2.06906e-10
-1.8374e-10
-1.48779e-10
-1.484e-10
5.9282e-11
-4.09923e-11
1.31634e-10
4.43976e-11
-5.52979e-12
-1.45635e-10
5.00114e-11
-1.49485e-11
-2.2722e-11
-1.26785e-10
1.07958e-11
2.01548e-11
2.15905e-10
1.66437e-10
-2.42074e-11
2.19515e-11
-3.52108e-11
5.02835e-12
-7.37832e-11
-3.3979e-11
4.29743e-11
6.07883e-11
9.61517e-11
3.90094e-11
-4.11118e-11
6.26148e-11
-1.63933e-11
2.03699e-10
2.82834e-10
3.9715e-11
-6.22356e-11
9.63916e-11
-2.14954e-11
1.73193e-10
2.04255e-10
1.00779e-10
2.48186e-10
-3.38842e-11
-8.32645e-11
-1.20654e-10
1.04795e-11
-2.26375e-10
-1.55738e-10
-1.85799e-10
-3.74418e-12
8.14671e-11
-1.96083e-10
1.50457e-11
-1.60395e-10
-4.43975e-12
-1.63314e-10
-2.51529e-11
-5.35709e-11
1.76837e-10
-1.1383e-11
-4.29094e-11
-6.66504e-12
1.09841e-11
-4.41619e-11
-2.27606e-10
-1.74669e-10
-4.81542e-11
4.98344e-11
1.23545e-10
1.15166e-11
1.64306e-10
1.36387e-10
2.00182e-10
5.33164e-10
5.74079e-10
9.06962e-10
1.32127e-09
2.43588e-09
3.49187e-09
5.43207e-09
8.59202e-09
1.36748e-08
2.15673e-08
3.39543e-08
5.35952e-08
8.49104e-08
1.34126e-07
2.1199e-07
3.35668e-07
5.3089e-07
8.39951e-07
1.32933e-06
2.10428e-06
3.32898e-06
5.2709e-06
8.345e-06
1.32098e-05
2.0917e-05
3.3162e-05
5.25582e-05
8.33451e-05
0.000132342
0.000210284
0.000333931
0.000531406
0.000847158
0.00134987
0.00215015
0.0034327
0.00546391
0.00867933
0.0138348
0.0219431
0.0344163
0.054233
0.0839972
0.127793
0.188966
0.278796
-6.91581e-12
-5.66003e-12
-6.40819e-12
-1.3408e-10
5.97898e-12
3.80475e-11
5.30365e-11
6.81075e-11
-1.69806e-11
2.2363e-11
-3.00357e-11
-5.07464e-11
1.4686e-10
-7.84953e-11
-1.18263e-10
4.49042e-11
-8.55476e-11
-1.55728e-10
3.36075e-11
-5.10976e-11
-1.98025e-10
-9.49906e-11
-2.79802e-10
-7.81945e-11
-5.96399e-11
1.53837e-10
6.97226e-11
-7.71011e-11
-1.31974e-10
-2.68043e-11
-6.29421e-11
-3.48262e-11
-5.15424e-11
2.24426e-10
2.49845e-11
4.8109e-11
3.3802e-11
2.55127e-11
-3.66741e-11
-1.2222e-12
-6.81416e-11
6.51366e-11
1.28202e-11
1.13626e-10
-2.09428e-11
3.24613e-11
1.30327e-10
6.22347e-11
6.78471e-11
-1.91001e-10
-1.22605e-10
-8.63036e-11
9.75748e-11
5.50294e-11
1.39613e-11
1.48697e-10
1.25833e-11
1.97832e-11
8.31097e-11
5.88894e-11
-5.22942e-11
5.99235e-11
7.2735e-11
-2.04931e-11
3.58894e-11
-1.08265e-10
6.08986e-11
2.18433e-10
7.72721e-11
-1.16494e-10
1.14144e-11
-8.78073e-11
5.71868e-11
-1.14909e-10
-1.11692e-10
1.46442e-10
-1.42557e-10
-4.12088e-11
1.27917e-10
-7.02714e-11
-1.35211e-10
2.49291e-12
-2.08894e-10
4.3377e-12
2.98598e-12
-3.40189e-11
-3.59541e-11
-2.18811e-10
-4.11961e-11
2.20095e-10
1.26838e-10
2.09764e-10
1.07682e-10
-4.0327e-11
3.55966e-11
2.55343e-11
-9.86632e-11
-3.57836e-11
-9.51848e-11
8.09048e-11
-1.77624e-10
-4.06776e-11
2.94573e-11
-3.4585e-12
-6.86288e-12
1.06727e-10
-5.62258e-11
-6.22774e-11
2.19781e-10
-3.68402e-11
7.19171e-11
-3.48954e-12
-1.05555e-10
-3.04411e-11
-7.29995e-11
1.38324e-10
1.11771e-10
2.90613e-11
-1.6086e-10
-2.25897e-10
5.35879e-12
3.88387e-11
3.9131e-11
1.88293e-11
-1.69367e-10
6.78831e-11
-2.01354e-11
-2.15793e-10
-2.58826e-11
-5.14749e-11
1.91301e-10
-1.89737e-11
7.3876e-11
1.50034e-10
2.54368e-10
1.49944e-10
2.24809e-11
7.01691e-12
7.8416e-11
2.68402e-10
1.66272e-10
5.28414e-11
-6.19164e-12
-2.1514e-10
2.74409e-11
4.8558e-12
-1.59986e-10
-7.33594e-11
-4.93205e-11
-1.57884e-10
5.93469e-12
1.65797e-10
9.4535e-11
-5.35848e-12
3.5339e-10
1.54866e-10
-7.89689e-11
-1.17438e-10
-9.28189e-11
6.26191e-11
2.27466e-11
1.18575e-10
1.11711e-10
1.66955e-10
-1.44704e-10
-1.81171e-10
-1.22217e-10
-6.68488e-11
3.33588e-11
1.36384e-12
2.74758e-10
2.08245e-10
-9.61279e-11
2.17712e-11
-1.11368e-10
1.76965e-10
1.74753e-10
-6.81073e-12
6.5958e-11
-9.95474e-11
7.04818e-11
-2.72756e-12
-6.76135e-11
6.56968e-11
-1.06199e-10
2.6116e-11
5.32593e-11
-5.62899e-11
3.32436e-12
1.73034e-11
-9.8115e-11
1.45758e-11
-7.74788e-11
1.68751e-11
-2.56463e-11
4.86072e-11
4.81947e-11
-1.22449e-11
1.78857e-10
4.93371e-11
5.49646e-11
5.72759e-11
-8.06559e-12
1.21855e-10
-6.90642e-11
3.49636e-11
7.22932e-11
-1.43841e-10
-5.52895e-11
9.00926e-11
-1.84537e-11
5.7129e-11
-1.75828e-11
3.33723e-11
2.6219e-11
-2.53185e-11
-8.04429e-12
-3.35333e-11
1.6984e-10
1.61517e-10
1.12823e-10
-4.53377e-11
-6.09802e-11
1.58908e-10
-2.05486e-10
-1.31388e-10
-1.34533e-10
-4.81246e-11
1.27143e-11
5.65572e-11
-6.23597e-11
3.4074e-11
-1.00593e-10
-1.53815e-10
-9.96945e-11
-1.50078e-10
-1.14691e-10
-6.33793e-11
7.95777e-11
-8.70202e-11
-4.72283e-11
-1.63663e-11
-1.04544e-10
6.63514e-11
-2.82776e-10
-1.69199e-10
1.7146e-10
1.4265e-10
-8.50007e-11
1.72624e-10
3.79248e-10
-7.36724e-12
3.39363e-10
3.14091e-10
4.94959e-10
6.6029e-10
1.12528e-09
1.14754e-09
1.95629e-09
3.40121e-09
5.21988e-09
8.16311e-09
1.31903e-08
2.06609e-08
3.26777e-08
5.15159e-08
8.12251e-08
1.28539e-07
2.03154e-07
3.2128e-07
5.07904e-07
8.02674e-07
1.2688e-06
2.0065e-06
3.17104e-06
5.01328e-06
7.92785e-06
1.2537e-05
1.98146e-05
3.13561e-05
4.96293e-05
7.85393e-05
0.000124369
0.000197233
0.000312604
0.000495767
0.000787932
0.0012533
0.00198935
0.00316348
0.00503079
0.00796159
0.0126157
0.0200196
0.0313513
0.0490627
0.0764617
0.116999
0.174494
0.261895
1.08399e-10
-7.54258e-11
-1.53199e-10
5.57461e-11
-1.16471e-10
7.16021e-11
7.16344e-11
2.39009e-11
-6.55086e-11
-4.98786e-11
2.02377e-10
-1.74022e-10
-1.59274e-10
2.80799e-11
-7.84154e-11
-1.27552e-10
1.38913e-10
3.77349e-11
-2.15792e-10
4.38467e-11
-2.15538e-11
4.09924e-11
-1.27713e-11
-5.10919e-12
4.33549e-11
3.64785e-11
-1.00703e-10
8.87114e-11
-9.9183e-11
6.96387e-11
7.76286e-11
-1.2707e-10
1.93927e-10
-5.46312e-11
9.04693e-12
-3.17999e-11
-1.172e-10
1.62837e-10
2.39609e-10
1.20879e-10
-4.18302e-11
-2.38111e-10
1.15993e-10
2.13246e-10
-8.73211e-12
6.45414e-11
4.11696e-10
6.8959e-12
-4.71171e-11
-2.02006e-11
4.53042e-11
-1.3631e-10
-7.13753e-11
-2.07741e-10
-2.19072e-10
5.69811e-11
8.39481e-11
4.88253e-11
1.07106e-10
-8.77319e-12
8.62946e-13
1.08683e-10
1.40412e-10
7.46796e-11
9.33482e-11
8.07942e-11
8.90842e-11
6.27963e-11
-2.02198e-11
4.98095e-11
-1.46885e-11
-1.06909e-11
-1.06077e-10
-1.31235e-10
-1.33144e-10
-1.09822e-10
-2.65487e-10
-2.20509e-10
5.66942e-11
-5.81167e-11
-1.14237e-10
6.4699e-11
9.84505e-11
-2.51112e-11
-2.75839e-11
-6.76556e-11
1.13062e-10
8.65662e-11
3.56625e-11
-4.69448e-11
3.69406e-11
1.55122e-10
4.58422e-11
-8.29531e-12
-2.99074e-11
-2.74424e-11
-1.25506e-10
5.98749e-11
-9.0574e-11
-9.71555e-11
3.09679e-11
8.66541e-11
-6.64888e-11
1.10055e-10
-3.41729e-11
3.78383e-12
-1.13788e-10
1.07147e-10
5.74816e-11
6.02392e-11
-7.31451e-11
-5.3493e-11
3.05567e-11
2.90165e-10
1.00887e-10
-2.4387e-10
-3.61305e-11
3.5553e-12
-4.94487e-11
4.47023e-11
-2.76164e-11
-9.26593e-11
-4.07578e-11
-1.09697e-10
-7.78846e-11
-2.21748e-10
-1.07227e-12
-9.12677e-12
-5.35927e-11
2.55525e-12
-9.56692e-12
-7.86937e-11
3.87073e-11
-1.28706e-10
-9.40413e-11
1.65837e-10
4.71134e-11
2.1939e-10
1.91271e-10
1.51135e-10
-4.50292e-12
-2.1698e-10
-4.48312e-11
1.27784e-10
1.84951e-10
-3.86677e-11
-1.10864e-10
7.54756e-11
-6.78641e-11
3.28214e-11
1.0834e-10
3.33715e-11
4.35722e-11
9.04625e-12
-2.31141e-11
-9.3145e-11
-1.86478e-10
-4.0491e-11
2.32198e-10
-2.53127e-10
8.02983e-11
-2.06312e-11
-2.86983e-11
-3.8617e-11
-1.56702e-11
-1.08198e-10
-1.49753e-10
-5.77459e-12
-8.57391e-11
-2.1524e-11
2.07091e-11
1.15857e-10
9.86537e-11
-4.92003e-11
-5.72229e-11
1.55381e-11
-5.11518e-11
8.52545e-11
1.30073e-10
1.49575e-10
4.55752e-11
-2.30185e-10
1.53055e-11
-1.21265e-10
-9.87079e-13
-2.13909e-11
-3.38948e-11
1.33043e-11
-5.19209e-11
2.18458e-11
-2.24473e-10
-5.98329e-11
4.35133e-11
-4.26711e-11
9.59879e-11
2.24943e-10
-6.67267e-11
1.10546e-10
-5.37159e-11
-1.45866e-11
-1.65994e-10
-9.13761e-12
-3.00399e-11
-6.65127e-11
6.56255e-11
-2.46469e-11
1.50549e-10
-9.71424e-11
-9.90549e-11
-1.51578e-10
-8.0331e-11
-1.35008e-11
8.7608e-11
-5.9383e-11
7.57852e-11
3.18691e-10
1.24627e-11
6.08078e-11
3.49568e-11
2.25651e-11
1.42463e-11
-7.58507e-11
-1.54377e-10
2.54774e-11
4.03665e-11
-6.16647e-11
-5.70327e-11
-1.16003e-10
5.41481e-11
2.9822e-12
1.27486e-10
-9.11167e-11
-1.18613e-10
1.84138e-10
6.08833e-11
-1.48868e-11
3.90164e-12
-5.64986e-11
1.24686e-10
-2.29921e-10
-1.07869e-10
-1.3898e-10
-1.70454e-10
-1.48799e-10
-4.86412e-11
3.91719e-11
-1.77062e-10
6.29155e-11
-2.76532e-12
-4.14974e-11
3.03489e-10
4.07978e-11
1.08471e-10
3.2099e-10
2.26094e-10
5.25363e-10
8.74343e-10
1.34416e-09
2.11634e-09
3.00323e-09
4.92725e-09
7.85478e-09
1.2156e-08
1.92187e-08
3.02296e-08
4.775e-08
7.51831e-08
1.18658e-07
1.87147e-07
2.95415e-07
4.66299e-07
7.36051e-07
1.16144e-06
1.83349e-06
2.8931e-06
4.56449e-06
7.20376e-06
1.13719e-05
1.79312e-05
2.82998e-05
4.46932e-05
7.05418e-05
0.000111309
0.000176006
0.000278252
0.000439626
0.000696281
0.00110478
0.00174642
0.00276546
0.00439125
0.00692909
0.0109293
0.0173367
0.0271191
0.0422606
0.0659868
0.101707
0.152302
0.232905
-3.97547e-11
-1.33581e-11
1.04401e-10
4.37368e-11
-1.5434e-10
1.50815e-10
8.76569e-12
-1.59464e-10
3.65201e-11
-5.19045e-11
5.59072e-11
1.37166e-10
3.2857e-11
7.44865e-11
-3.12301e-10
1.25743e-11
2.17064e-10
1.52216e-11
2.35542e-10
-8.79469e-11
1.58749e-10
1.08119e-10
-1.24991e-10
-1.30012e-10
8.75464e-11
2.1133e-10
6.37825e-12
-7.94822e-11
-5.41516e-11
-1.69481e-10
-1.17055e-10
2.06422e-10
5.87268e-12
-6.25261e-11
-6.49638e-14
1.45954e-10
2.1291e-10
3.87796e-11
4.75784e-11
-1.13439e-10
4.97424e-11
1.03884e-10
6.84788e-11
2.4624e-11
-6.02735e-11
-3.4703e-11
-1.17949e-10
-1.36207e-10
7.35232e-11
1.53359e-10
1.50816e-11
3.19604e-10
3.05984e-11
-3.99994e-11
3.68883e-11
2.10401e-10
5.14171e-12
1.59954e-10
5.82062e-11
6.11247e-12
1.62917e-11
-3.58845e-11
-3.09142e-11
-1.06594e-10
-1.16238e-10
-4.02091e-11
1.83742e-10
1.62626e-10
3.46546e-11
9.14631e-11
-8.06089e-11
-5.09449e-11
1.23623e-10
-8.53812e-11
1.27586e-10
-1.44526e-10
-2.01261e-10
1.03573e-10
-1.68845e-10
-2.39892e-10
-1.04422e-10
-6.76668e-11
-8.17746e-11
2.46718e-12
-2.09435e-11
8.04784e-12
-1.72363e-10
-5.1953e-11
6.39634e-11
-5.83829e-11
1.25992e-10
-1.95542e-10
-1.58507e-10
6.70348e-11
-1.46194e-10
8.54747e-11
-2.54992e-12
-1.41678e-11
-1.23658e-10
-1.47045e-10
6.0564e-11
-9.83452e-11
9.68717e-11
9.35518e-11
2.73853e-11
-6.72634e-11
2.59592e-10
1.12488e-11
-1.3827e-10
-3.53973e-13
-3.66622e-11
-9.8102e-11
-8.17914e-11
-1.26618e-10
-9.03708e-11
1.68866e-10
1.16714e-10
1.07083e-10
-1.97456e-10
-4.25327e-11
9.61511e-11
-2.18676e-11
-7.29355e-11
-1.38188e-10
-1.76184e-10
2.03383e-10
1.14197e-10
-1.27095e-11
-1.58102e-11
1.38092e-10
-1.07015e-10
-6.31006e-11
1.22122e-10
1.03908e-10
1.0514e-10
2.6824e-11
-9.43851e-11
-9.72473e-11
2.26188e-10
-2.13839e-11
-1.17385e-10
-1.34166e-10
-7.61103e-11
-7.62304e-11
-1.33482e-10
-2.86029e-11
9.58694e-12
8.7783e-11
1.29763e-10
-3.28832e-11
-1.46028e-10
1.13068e-10
5.8576e-11
1.97988e-10
2.40675e-11
4.04747e-12
9.82638e-11
-2.17265e-10
-1.09422e-10
-6.84891e-11
-9.28199e-13
-1.02271e-10
1.15901e-10
1.12461e-10
-1.02529e-10
2.01155e-10
2.42005e-10
1.12557e-10
-8.53119e-12
-7.39783e-11
3.40708e-11
-2.35538e-10
-2.49644e-11
5.47712e-11
-4.2963e-11
-6.63241e-11
1.62478e-11
2.01947e-10
1.89763e-10
1.01506e-10
-3.78276e-11
-1.32902e-10
4.68941e-12
4.65757e-11
-7.95095e-11
-1.16237e-10
-8.07827e-11
-9.09287e-11
1.04826e-10
-4.3932e-11
-6.86915e-11
-3.6137e-11
2.16333e-10
1.53979e-10
-2.03599e-11
7.53493e-11
8.17342e-11
9.04468e-12
-1.01785e-10
8.25913e-11
1.27993e-10
4.94193e-11
-1.70606e-10
-4.63942e-11
-6.3535e-11
-3.59615e-11
2.63857e-11
-1.00549e-10
1.22391e-10
1.35369e-11
6.21004e-11
1.17414e-10
1.12023e-10
1.19801e-11
5.35805e-11
2.08176e-10
6.12832e-11
4.16144e-11
6.47355e-11
-5.06589e-11
2.52298e-11
3.18312e-10
3.68446e-11
-1.33317e-10
1.16282e-10
3.03157e-11
-1.22538e-10
-1.48011e-10
-1.93819e-10
-3.55355e-10
1.37805e-10
-6.54605e-11
8.08196e-11
-8.01135e-11
-1.71948e-10
-1.03821e-10
3.97212e-11
-1.33808e-10
-1.28229e-10
-4.54415e-11
-9.95288e-11
-1.21631e-10
-4.00151e-11
-4.07574e-12
-5.90048e-12
1.04194e-10
-4.76377e-11
-2.83339e-11
-1.45553e-10
-5.0895e-11
1.39216e-10
2.24189e-10
2.27725e-10
3.40598e-10
3.57089e-10
5.77002e-10
9.45512e-10
1.3956e-09
1.78653e-09
2.95921e-09
4.33358e-09
7.06269e-09
1.09706e-08
1.72751e-08
2.70182e-08
4.26244e-08
6.72731e-08
1.057e-07
1.66675e-07
2.62365e-07
4.13361e-07
6.51627e-07
1.02593e-06
1.61677e-06
2.54582e-06
4.00675e-06
6.30849e-06
9.93751e-06
1.56323e-05
2.4599e-05
3.87465e-05
6.0997e-05
9.59097e-05
0.000151122
0.000238231
0.000375066
0.000591707
0.000936279
0.00147536
0.00232577
0.00368437
0.00580384
0.00911506
0.0144389
0.022608
0.0351298
0.0548653
0.085172
0.128072
0.198154
-5.00285e-11
1.36706e-10
-3.13679e-11
-5.34106e-11
-1.47588e-10
9.34813e-11
-8.1354e-11
3.24667e-11
-1.27251e-10
-3.02145e-11
-5.14627e-11
6.56005e-11
1.48538e-10
-4.54141e-11
-2.18559e-10
1.61422e-11
2.00896e-11
-2.12436e-11
-4.35186e-11
-3.18952e-11
-9.98765e-11
-8.33184e-11
-1.08541e-11
4.99334e-11
-3.86802e-11
-2.24906e-11
-1.17092e-10
1.31249e-10
-1.14606e-10
-6.87762e-11
-9.19767e-14
3.91268e-11
1.26312e-11
-1.37419e-10
-1.17233e-10
-1.12181e-10
-1.91937e-10
-1.07656e-10
9.84312e-11
-7.74571e-11
-1.01747e-10
-1.61809e-10
4.90015e-12
2.49612e-10
-2.20452e-11
7.10338e-11
4.24664e-11
-8.57405e-11
-1.46946e-10
-3.2204e-11
-4.92796e-12
1.45168e-10
-2.00437e-12
-5.45655e-11
5.74382e-11
-9.064e-13
1.35806e-11
-3.51984e-11
4.75247e-11
1.46486e-10
2.13876e-12
6.78154e-11
2.60044e-10
1.78391e-10
2.21711e-10
2.06695e-10
3.55016e-11
-6.34544e-11
-1.14633e-10
-1.23635e-10
1.86954e-11
1.62622e-10
-9.5266e-12
-1.4047e-10
-1.52119e-10
-5.82998e-11
-2.09176e-10
-2.2307e-10
-9.26006e-11
-2.95881e-11
-1.96144e-10
1.17345e-10
-2.14138e-11
5.16559e-11
-1.79755e-11
-2.05465e-10
1.38334e-10
-3.43046e-11
-3.1247e-11
-1.49639e-11
-9.6742e-11
1.73462e-10
4.27829e-10
3.29875e-11
4.45174e-11
-1.27381e-10
8.72978e-11
-4.35118e-11
-3.34697e-11
2.34213e-10
-3.32755e-11
-1.39889e-10
-1.85497e-11
-2.03855e-10
-6.58603e-12
-1.03568e-10
-1.40364e-10
-7.10795e-11
-2.5309e-11
9.85707e-12
1.38941e-10
-5.74937e-11
-1.82875e-11
-1.00514e-10
1.34926e-10
-9.95845e-11
1.34321e-11
7.49801e-11
-4.07543e-11
6.27361e-11
9.13891e-11
-1.41285e-10
-8.64676e-12
-1.86603e-11
-7.72531e-11
-1.78491e-10
-6.45455e-11
1.19385e-10
1.87106e-10
7.26773e-11
-4.38416e-11
1.69477e-10
1.24971e-10
2.08098e-11
-8.94528e-11
-9.12917e-11
1.08611e-11
-4.91923e-11
5.29646e-11
-8.20994e-11
9.36952e-12
-2.10322e-11
-2.4349e-10
-6.05634e-11
1.29397e-10
-2.38023e-10
1.27907e-11
-5.39141e-11
4.9153e-11
3.94089e-11
6.31989e-11
1.73913e-11
-1.75928e-10
-5.92995e-11
1.84561e-10
1.41119e-10
9.1675e-11
5.72303e-11
-1.75392e-10
-4.18799e-11
-1.8627e-11
1.40017e-10
1.66033e-10
1.83013e-10
8.07154e-11
5.05471e-11
-5.4575e-11
-7.8338e-11
1.61082e-11
-1.54697e-10
-1.90802e-10
-6.1983e-11
3.38961e-11
7.49286e-11
1.41556e-10
-1.94e-10
-1.21902e-10
1.75272e-10
9.50724e-11
2.44729e-11
3.57097e-11
-6.22411e-11
8.59367e-11
4.49147e-11
1.05354e-10
-9.69406e-13
6.78356e-11
1.53646e-10
5.67444e-12
1.38202e-10
1.4116e-10
1.19896e-10
1.36603e-10
1.50995e-10
3.28479e-11
-1.3691e-10
3.47335e-11
-6.70182e-11
-1.34972e-10
1.23025e-10
-7.90258e-12
-2.23781e-10
-3.99312e-11
3.8172e-11
6.81148e-12
-1.23392e-10
1.07695e-10
7.49229e-11
-6.61564e-12
-1.66898e-11
-8.27824e-12
-2.26343e-10
9.96881e-11
6.77131e-11
-3.31874e-11
-1.64641e-11
2.5051e-10
4.19014e-11
2.28185e-11
7.52122e-11
3.65617e-11
3.53842e-11
2.54981e-11
-8.6443e-11
-1.15122e-10
-1.80759e-10
1.37362e-10
2.45382e-10
2.77615e-11
-4.92714e-11
-2.83005e-10
-7.90968e-11
-7.60201e-11
-1.97346e-10
-1.38552e-10
-5.85644e-11
-9.98523e-11
-6.02362e-11
-1.2636e-10
-1.93104e-10
-1.95252e-10
-7.25239e-11
-1.27515e-11
3.60466e-13
1.19988e-10
-1.70556e-10
-8.72762e-11
-3.26527e-11
-5.5886e-11
-1.06132e-10
-1.46852e-10
1.48384e-10
1.46363e-10
1.34631e-10
2.03156e-10
4.06046e-10
7.46811e-10
8.97972e-10
1.49798e-09
2.526e-09
3.8376e-09
6.09857e-09
9.80407e-09
1.50602e-08
2.34895e-08
3.70707e-08
5.82339e-08
9.15997e-08
1.4402e-07
2.26745e-07
3.56307e-07
5.60174e-07
8.80099e-07
1.3839e-06
2.17489e-06
3.4158e-06
5.36441e-06
8.43242e-06
1.32347e-05
2.07695e-05
3.26293e-05
5.12434e-05
8.03251e-05
0.000126148
0.000198318
0.000311257
0.000489238
0.000771999
0.00121325
0.00190519
0.00301115
0.00473777
0.00741621
0.0117297
0.0183906
0.0285391
0.0445698
0.0696159
0.105147
0.164058
2.93787e-11
2.1308e-11
-5.83774e-11
2.13063e-11
6.47457e-11
-6.17351e-11
9.64599e-11
1.08922e-10
9.48086e-11
7.21957e-11
1.86965e-11
-9.97033e-12
-9.63122e-11
1.54799e-10
1.55983e-11
-2.01707e-10
-1.62899e-10
-2.31472e-11
-2.79264e-10
-2.72861e-11
1.00894e-10
1.77372e-10
1.61549e-10
7.14661e-11
-1.37165e-10
2.77769e-11
-1.27846e-10
-1.30873e-10
5.93679e-11
-1.03856e-10
-2.0341e-10
1.41367e-10
2.07353e-10
5.47628e-11
6.40947e-11
1.00521e-10
1.03888e-10
3.05565e-11
-7.59363e-11
-8.4052e-11
1.77076e-10
1.181e-11
-1.09445e-10
8.06022e-11
1.50181e-10
1.55845e-10
-1.69148e-10
-1.17999e-10
4.70473e-11
1.71e-11
-6.57069e-11
-6.99084e-11
1.16389e-10
-1.17083e-10
-5.77757e-11
-7.91967e-11
5.11377e-11
4.2917e-11
-1.49053e-11
-5.10783e-11
-1.11455e-10
-4.73351e-11
4.69968e-11
1.47479e-10
-4.78837e-12
5.99791e-11
2.50552e-12
-3.36512e-11
1.94912e-10
-2.41047e-10
-1.47268e-10
-1.56847e-10
-8.74262e-11
1.0738e-11
1.08107e-11
-1.54523e-10
-2.86632e-11
3.72956e-11
1.31642e-10
-1.61875e-11
-3.37898e-11
1.82652e-10
1.41653e-10
2.96965e-10
2.1677e-10
-2.48368e-11
3.81387e-11
-7.68442e-11
-1.72267e-10
-1.11235e-10
4.23129e-11
-8.43034e-11
8.07022e-11
2.0099e-10
1.01432e-11
3.43149e-10
1.44438e-10
1.78319e-11
9.06079e-11
-3.7529e-11
1.83392e-10
1.07649e-10
7.51102e-11
-2.44162e-11
-1.07475e-10
2.17073e-11
-7.55335e-11
6.89549e-11
1.61304e-11
-4.84869e-12
3.66786e-11
1.9303e-10
1.6001e-10
-1.31323e-10
-6.52587e-11
-4.16457e-11
-2.45327e-10
7.0484e-11
-1.75665e-10
-1.72355e-10
-6.87867e-12
5.4677e-11
9.60341e-11
1.15291e-10
1.99509e-11
-3.73801e-11
-5.68669e-11
-2.90998e-10
-2.01546e-10
-1.02966e-10
9.28191e-11
2.92408e-10
-2.0516e-10
-1.84933e-10
7.83834e-12
-7.52638e-11
-9.00444e-11
5.97969e-11
1.39377e-10
1.99184e-10
1.53225e-10
-7.20289e-11
7.63018e-11
7.72098e-11
-7.70135e-11
-1.42559e-10
-1.46641e-11
-5.58793e-11
-3.19978e-12
6.89074e-14
-1.93372e-11
6.05288e-11
-5.19423e-12
8.72061e-11
1.49527e-10
1.76185e-11
-7.62324e-11
2.4867e-10
-2.3341e-11
1.69058e-10
7.40479e-11
-1.3583e-10
-3.34495e-11
-5.36697e-11
-3.59774e-11
-4.7498e-11
-4.90931e-12
-1.40719e-10
-1.69285e-10
5.34657e-11
-2.08738e-10
-1.08724e-10
1.75945e-10
1.18607e-10
6.46272e-11
-1.81033e-10
-6.3221e-11
-1.09706e-10
-6.59945e-11
6.39106e-11
1.46223e-10
8.71837e-11
1.63999e-10
6.97401e-11
-5.0963e-11
9.6168e-11
1.3615e-10
1.42057e-10
-7.41708e-11
3.09365e-11
4.29356e-11
4.62597e-11
-1.12616e-10
-9.78587e-12
1.31537e-10
2.33186e-11
-1.26654e-11
2.6483e-11
-7.89457e-11
-3.00984e-10
-3.23309e-10
-1.38164e-10
5.4772e-12
2.76879e-12
4.61034e-11
1.82345e-11
3.7678e-11
5.50595e-11
9.42187e-11
1.80588e-10
1.79436e-10
4.77962e-11
1.48988e-10
1.69688e-10
1.15626e-10
1.48159e-11
7.85656e-11
1.66355e-10
6.78138e-11
1.05632e-10
-3.96137e-11
-1.33448e-11
2.455e-10
-2.19435e-11
1.77271e-10
1.348e-10
1.45484e-11
-2.31356e-11
3.7678e-11
-9.94268e-11
-1.30794e-11
-9.5945e-11
5.101e-11
1.93763e-10
7.00516e-11
4.06923e-11
4.86203e-11
-2.06438e-10
-1.74176e-11
6.57289e-11
1.18919e-11
-1.0797e-10
-1.65499e-10
-2.0799e-10
-4.56198e-11
-1.17944e-10
1.74451e-10
5.60413e-11
9.86473e-11
9.02065e-11
8.68613e-11
1.03978e-10
1.50772e-10
3.15411e-10
6.75888e-11
3.43453e-10
6.57701e-10
1.00392e-09
1.53149e-09
2.02115e-09
3.4075e-09
5.28637e-09
8.12503e-09
1.28493e-08
2.01074e-08
3.15023e-08
4.94781e-08
7.75989e-08
1.21698e-07
1.90959e-07
2.9968e-07
4.70377e-07
7.37073e-07
1.15722e-06
1.81488e-06
2.84418e-06
4.45704e-06
6.99166e-06
1.09512e-05
1.71454e-05
2.68732e-05
4.2114e-05
6.58446e-05
0.000103115
0.000161717
0.000253157
0.000396677
0.00062435
0.000978923
0.00153227
0.00241631
0.00379772
0.0059298
0.00936477
0.0146986
0.022798
0.0356027
0.0558785
0.0847428
0.133065
8.58237e-11
-1.51965e-10
-2.71621e-11
1.67983e-10
1.07605e-10
1.13481e-12
1.13201e-11
3.11909e-11
9.12473e-11
-1.02104e-10
1.70715e-11
9.2333e-11
1.22686e-11
-1.04861e-10
7.95014e-11
8.83682e-11
-6.67235e-11
1.55213e-10
-1.11651e-11
2.24999e-10
-3.75405e-11
-1.7803e-10
5.25254e-12
5.02285e-11
-3.75229e-12
1.13367e-11
1.26786e-10
-2.13041e-10
-8.7902e-11
6.26346e-12
-9.7961e-11
1.20334e-10
-1.50915e-11
-4.0582e-11
-5.06314e-11
1.15484e-10
-1.10821e-10
6.51892e-12
1.41516e-10
-1.81162e-10
-2.64295e-10
-1.02453e-10
-5.01822e-11
1.05317e-10
1.46708e-10
-1.73507e-11
4.44594e-11
2.47599e-11
-1.41278e-10
2.23587e-10
2.70795e-11
-9.5911e-11
1.46056e-10
-8.87113e-11
1.43569e-10
1.27118e-10
-1.36236e-12
1.56598e-10
1.2513e-10
1.98225e-11
-3.77275e-11
5.56578e-11
-7.49101e-11
-1.66732e-10
-6.79801e-11
-3.23031e-10
-1.41203e-10
-1.85673e-10
-2.06197e-10
9.38493e-11
5.03011e-11
1.54651e-10
-3.98213e-11
-7.76463e-11
-8.28379e-11
-2.40402e-11
-6.69998e-11
9.12132e-11
-4.29248e-11
2.5433e-10
5.09448e-11
-2.76302e-10
8.37382e-11
-7.44218e-11
-1.89579e-10
-1.3386e-10
-1.46538e-10
-7.87619e-11
-3.67918e-11
7.26173e-11
1.61005e-10
-8.85059e-11
1.48656e-10
1.32537e-10
8.14955e-11
7.92663e-11
-3.23168e-10
-3.67776e-11
6.19438e-11
-2.31188e-11
-2.26636e-13
-1.84791e-11
-1.35062e-10
-4.38972e-11
-6.64846e-12
7.50206e-11
1.57247e-10
-1.00843e-10
-3.0456e-11
-3.23446e-11
7.58912e-11
2.61399e-10
2.16511e-10
4.81452e-11
1.76418e-10
-1.18767e-10
-1.34145e-10
-4.21589e-11
-1.36314e-10
-3.41679e-11
6.48047e-11
-1.45559e-10
7.24577e-11
-2.0486e-10
-5.35103e-11
8.81741e-11
1.1556e-10
5.75655e-11
-6.11327e-11
-6.12816e-13
3.50234e-11
-1.1949e-10
-1.34507e-10
1.2104e-11
-1.04197e-10
-6.37605e-11
2.74155e-11
-3.02506e-10
6.32451e-11
-2.76289e-11
1.61275e-10
3.76082e-11
-5.15143e-11
-1.78331e-11
1.03368e-10
-1.76248e-11
-9.69717e-12
-7.8145e-11
4.15907e-11
1.17587e-10
2.58191e-10
1.11037e-10
-9.90306e-11
-1.43065e-10
1.32293e-10
-6.55117e-11
9.39294e-11
2.43238e-12
1.90367e-11
-5.97892e-11
-9.55862e-11
-7.41443e-11
1.10335e-10
-9.6731e-11
-9.51375e-11
-4.33516e-11
-1.05646e-10
-2.93197e-11
2.44421e-10
2.39051e-10
2.51613e-10
9.65933e-11
-1.1537e-11
1.96436e-10
1.32234e-10
4.74213e-11
-9.33329e-11
1.59759e-10
1.59189e-11
1.23449e-10
-2.804e-11
6.78129e-11
2.24199e-10
7.75267e-11
-4.17841e-11
-3.63059e-11
1.5639e-10
-1.03855e-10
8.13433e-11
1.37344e-10
-1.06191e-10
-5.75213e-11
1.24049e-10
2.04552e-10
-8.64158e-11
-2.00432e-10
-1.72127e-10
-2.71574e-10
-8.39349e-11
1.57971e-10
-1.53673e-10
-6.7952e-11
3.85142e-12
-1.18131e-10
-7.92807e-11
-7.80022e-11
1.20306e-10
-5.13253e-12
-1.36556e-10
2.29264e-10
9.62968e-11
1.39878e-10
1.9583e-10
-1.78219e-11
2.30391e-10
1.01918e-10
-2.0597e-11
-1.32887e-10
1.61738e-10
-1.70978e-10
5.64165e-12
-1.42258e-11
-3.83386e-11
-8.39657e-11
8.19598e-11
-4.3106e-11
-1.6687e-10
-1.36291e-10
-8.49214e-11
-3.68669e-11
5.62286e-11
9.56704e-11
3.72411e-12
1.14011e-11
-2.71465e-11
5.39215e-11
-3.76811e-12
-1.32547e-10
-1.78041e-12
-1.09714e-10
3.65469e-11
-2.11916e-10
-1.45033e-11
1.97136e-10
2.68876e-10
1.12288e-10
-3.52288e-11
-8.08678e-11
-1.28663e-10
9.96256e-12
-1.97789e-10
-1.42742e-10
1.21492e-10
8.30454e-11
6.54145e-11
2.93441e-10
6.07583e-10
5.74276e-10
1.12435e-09
1.9728e-09
2.64304e-09
4.46785e-09
6.96499e-09
1.07202e-08
1.69302e-08
2.63526e-08
4.09653e-08
6.44309e-08
1.0078e-07
1.57904e-07
2.47192e-07
3.87148e-07
6.05738e-07
9.48822e-07
1.48597e-06
2.32487e-06
3.63613e-06
5.69353e-06
8.90233e-06
1.39099e-05
2.17598e-05
3.40389e-05
5.31095e-05
8.29807e-05
0.000129878
0.000202893
0.000317124
0.000498062
0.000779399
0.00121676
0.00191489
0.00300636
0.00468445
0.00738714
0.0116018
0.0179885
0.0280865
0.0442334
0.0673049
0.106183
-3.494e-11
-3.60971e-11
-1.71587e-11
-1.43727e-10
-1.099e-10
-1.26224e-11
7.93434e-12
-1.48325e-10
2.49969e-11
1.51126e-10
2.89132e-12
-5.4887e-11
-6.43957e-11
-1.27626e-10
1.21014e-10
1.5449e-10
1.82466e-10
1.31995e-10
5.95545e-11
-1.49984e-10
-9.24744e-11
-9.41263e-13
-1.18924e-10
-8.51795e-11
2.47584e-11
6.57357e-11
1.71776e-10
1.68647e-10
1.65384e-11
4.45659e-11
-3.48109e-11
1.44045e-10
7.66598e-11
-1.48651e-10
-1.17296e-10
-3.60363e-11
5.96507e-11
-5.5193e-11
-8.20556e-11
2.74533e-10
4.13199e-11
-1.05853e-10
-1.60879e-10
-2.64314e-11
-8.93097e-12
-1.0004e-10
-8.31814e-12
-2.24903e-10
-1.05778e-10
-1.35886e-10
1.13292e-10
9.15666e-11
3.71182e-11
5.67625e-11
1.29228e-10
-6.08456e-11
4.55074e-11
1.54997e-11
-3.46121e-11
-4.36273e-11
-3.93342e-11
-2.54634e-10
-1.07934e-11
4.7437e-11
1.50845e-10
-2.13618e-10
2.71982e-11
1.05249e-10
1.01657e-10
4.34045e-11
-2.0866e-10
-1.01688e-10
-1.36321e-10
-1.20644e-10
4.1571e-11
2.65875e-10
1.51156e-10
1.52552e-10
-1.19116e-10
7.73608e-11
-5.15395e-11
-9.13782e-11
2.64645e-11
-1.51563e-10
-1.99878e-10
-1.90547e-10
-1.41982e-10
5.73504e-11
-1.61098e-10
-1.59488e-10
-7.28389e-11
-1.0376e-10
-1.69915e-10
9.12495e-11
5.54777e-11
-1.95252e-11
1.9734e-10
7.71155e-11
1.1471e-10
5.54419e-12
9.89302e-12
3.48611e-11
6.48978e-11
1.53511e-10
1.41293e-10
6.7718e-11
8.94333e-11
9.87799e-11
1.08569e-10
7.59981e-11
-4.83133e-11
6.45981e-11
-1.66403e-10
-1.36654e-10
8.66312e-11
4.10398e-11
1.16283e-10
-1.16366e-11
1.03736e-10
-4.53783e-12
-9.84758e-11
-5.93813e-11
5.01002e-11
2.53917e-11
-3.73194e-11
8.19301e-11
5.42471e-13
-9.25288e-11
-1.04094e-10
-6.6671e-11
-1.03508e-10
1.93536e-10
-6.02672e-11
5.30662e-12
-2.86741e-11
-2.01682e-10
-2.2698e-10
1.39372e-11
5.26122e-11
-1.05089e-10
-9.37844e-11
-1.37766e-10
-9.59729e-11
-1.28466e-10
-1.17077e-10
-6.09648e-11
2.80011e-10
1.04838e-10
1.64826e-10
-2.01371e-10
-9.16693e-11
1.70808e-10
-1.07671e-10
-1.37917e-10
-6.73199e-11
4.06002e-12
-2.39633e-11
-1.03441e-10
6.14801e-11
-1.00693e-10
-5.63313e-11
3.78866e-11
8.4587e-11
-2.80205e-11
-1.1999e-10
2.17211e-10
2.20518e-10
-8.12525e-11
-8.25362e-11
-1.34925e-10
-2.01895e-10
2.1293e-10
1.99481e-11
-9.50172e-11
1.78891e-10
2.21412e-12
-1.12151e-10
1.24684e-10
3.85251e-10
2.55104e-10
2.25301e-10
1.55536e-10
7.55807e-11
8.7914e-11
1.7944e-10
-3.69768e-11
4.34164e-11
-4.7454e-11
3.59974e-11
-5.44173e-11
-1.51757e-11
-1.31803e-10
8.72028e-11
-5.09203e-12
2.30818e-10
5.68702e-11
-1.09466e-10
6.89808e-11
-1.86064e-10
-2.72749e-10
-3.15787e-10
-2.70597e-12
1.44659e-10
-1.04768e-10
4.97824e-12
1.20226e-10
2.62062e-10
-9.63221e-11
-1.72539e-10
1.89096e-10
-8.92522e-12
6.57636e-11
2.29995e-11
4.42257e-12
-8.65964e-11
-3.29296e-11
2.63008e-11
-1.06733e-12
7.79733e-11
2.09777e-10
2.27151e-10
8.28996e-11
-1.29262e-10
6.4059e-11
-1.10376e-10
-2.66748e-10
-3.39725e-10
-1.89517e-10
-1.27325e-10
1.97507e-10
3.61058e-12
7.27241e-11
1.37818e-10
7.83452e-11
4.90925e-11
1.7278e-10
4.71689e-11
-5.80827e-11
-1.11657e-10
4.8323e-11
7.56655e-11
4.86401e-11
7.54735e-11
1.42587e-10
2.21853e-10
-1.61689e-11
6.02396e-11
2.72011e-11
5.60933e-11
2.02146e-10
-2.1343e-11
-4.47558e-11
-4.68406e-11
-4.54327e-11
2.05725e-12
1.42115e-10
3.96021e-10
4.70579e-10
8.43077e-10
1.31049e-09
2.43788e-09
3.79437e-09
5.72604e-09
9.00017e-09
1.36836e-08
2.12812e-08
3.35687e-08
5.24304e-08
8.1691e-08
1.28264e-07
2.0075e-07