/*--------------------------------*- C++ -*----------------------------------*\
| =========                 |                                                 |
| \\      /  F ield         | OpenFOAM: The Open Source CFD Toolbox           |
|  \\    /   O peration     | Version:  2412                                  |
|   \\  /    A nd           | Website:  www.openfoam.com                      |
|    \\/     M anipulation  |                                                 |
\*---------------------------------------------------------------------------*/
FoamFile
{
    version     2.0;
    format      ascii;
    arch        "LSB;label=32;scalar=64";
    class       surfaceScalarField;
    location    "0.004";
    object      ddtCorrDdt0(phi);
}
// * * * * * * * * * * * * * * * * * * * * * * * * * * * * * * * * * * * * * //

dimensions      [1 0 -2 0 0 0 0];

oriented        oriented;

internalField   nonuniform List<scalar> 
359100
(
-5.89547e-11
1.1069e-12
-2.31114e-11
3.72107e-12
-1.53713e-10
-2.29104e-12
-4.32545e-11
3.54653e-12
-1.0377e-10
-5.07977e-13
-9.3752e-11
-4.93675e-12
1.2406e-10
1.22736e-11
4.4697e-13
1.72113e-11
6.70241e-11
1.74906e-11
3.19226e-10
9.42226e-13
1.25165e-10
-1.3971e-11
-1.7787e-10
-1.17004e-11
-2.92531e-10
4.4111e-12
-1.45989e-10
6.76449e-12
-1.06142e-10
1.33875e-11
2.58269e-10
1.60306e-11
2.69583e-11
1.28366e-11
7.40302e-11
1.61479e-11
3.15153e-10
1.98118e-11
6.03501e-10
1.26834e-11
3.95226e-10
-1.04314e-11
3.28183e-10
-1.70527e-11
1.95399e-10
-1.95415e-11
3.22731e-10
6.35371e-12
-3.32918e-11
1.75845e-11
-2.13794e-10
1.19327e-11
-4.01092e-10
8.33142e-12
-3.50935e-10
1.34835e-11
-4.38793e-10
1.72174e-12
-9.83692e-11
8.88509e-12
-2.1859e-10
6.02418e-12
-3.19999e-10
3.70677e-12
1.80538e-10
-8.27817e-12
-3.71296e-11
2.35432e-12
-7.48081e-11
1.48067e-12
-2.67375e-11
-3.59484e-12
-1.6111e-10
-1.00666e-11
-2.91201e-11
1.93141e-12
-2.86309e-10
8.34845e-12
1.35205e-10
-5.15088e-12
1.59907e-10
-1.81109e-11
-1.33968e-10
-1.15284e-11
2.79698e-10
5.31587e-12
2.2483e-10
1.11246e-11
-1.61092e-10
1.18576e-11
3.89589e-10
2.99046e-11
9.70987e-11
1.5176e-11
1.47835e-12
-1.17207e-11
9.26555e-11
-2.39784e-11
-1.09421e-10
-2.04774e-11
8.19591e-11
-1.90018e-11
6.12227e-10
-1.83029e-11
3.91483e-10
-2.75258e-11
8.41748e-10
-8.98738e-12
5.11077e-10
-1.40246e-11
2.54949e-12
1.31979e-11
-9.99799e-11
2.1764e-11
-4.57599e-11
4.80803e-12
1.14088e-10
-2.17161e-11
-3.70344e-11
-2.53403e-11
-3.14057e-10
7.9116e-12
1.18416e-11
1.82759e-11
7.57285e-11
1.1575e-11
6.0535e-10
-4.94158e-12
2.40203e-11
-1.62406e-11
-1.07926e-11
-3.66201e-12
-5.08021e-10
-7.27658e-13
-6.17701e-10
1.57554e-11
-5.02814e-10
-9.07197e-12
-4.86144e-10
-1.8602e-11
-1.69458e-10
-6.66236e-12
1.01319e-10
1.39984e-12
2.34929e-10
-1.81729e-11
3.82642e-11
-3.0732e-11
-1.99173e-11
-1.80727e-11
-1.08641e-10
1.70676e-11
-3.26775e-10
1.05609e-11
-8.20541e-11
1.29779e-11
1.39349e-10
1.16222e-11
4.49259e-11
1.04846e-11
-2.58879e-10
6.29703e-13
-3.2146e-10
2.08669e-12
3.10104e-11
-1.4773e-11
-6.71487e-11
-1.43801e-11
-4.9461e-10
-3.39266e-12
-1.35288e-10
-7.66752e-12
1.86924e-10
-1.25043e-11
2.13603e-10
-6.50693e-12
-6.08164e-11
-5.78696e-12
-1.47217e-10
3.79011e-12
-1.43668e-10
2.96602e-11
8.25189e-11
2.37009e-11
3.23673e-11
1.69697e-12
9.3753e-11
-1.07603e-11
3.87182e-10
-9.70765e-12
4.34556e-10
-1.30064e-11
3.11133e-10
-1.82934e-11
-7.39252e-11
-1.42576e-11
-1.20819e-10
2.0527e-11
-2.79254e-10
3.28629e-11
-6.52464e-11
4.75881e-12
8.2388e-12
-8.53727e-12
2.29112e-10
1.2045e-12
3.28468e-10
-1.0527e-12
1.21617e-10
-2.04216e-11
-2.65156e-10
-2.28844e-11
2.07733e-10
6.64651e-13
-1.23333e-10
6.27494e-12
6.39645e-11
1.21492e-11
3.64046e-10
-9.3848e-12
-2.03914e-10
-2.75662e-11
-2.39764e-10
-1.61337e-11
1.27239e-10
4.27849e-12
-1.52609e-10
1.33207e-11
-7.94988e-10
3.41342e-11
-8.10636e-10
4.02695e-11
-2.06143e-10
3.65275e-11
-9.50415e-11
1.30603e-11
9.16969e-11
-4.9924e-12
5.93557e-10
1.99457e-12
1.08212e-10
1.01066e-12
2.78904e-11
7.86705e-12
4.36528e-10
-6.3477e-12
3.58889e-10
-1.39312e-11
5.21133e-10
-7.46684e-12
5.78881e-10
-1.42314e-11
6.06366e-10
-2.61218e-11
3.80947e-10
-3.84569e-11
-3.14804e-10
-5.94434e-12
-2.22934e-10
1.55922e-11
-5.30156e-11
-2.94157e-12
-4.20761e-10
-9.87562e-12
-6.13246e-10
2.39417e-11
-4.8871e-10
4.12296e-11
-8.86256e-10
2.72825e-11
-2.5016e-10
2.95134e-11
1.29762e-10
9.39117e-12
-7.94775e-11
-9.99741e-12
3.1263e-10
-1.5507e-11
3.51957e-10
-1.7852e-11
4.86396e-10
-1.3952e-11
6.40386e-10
-4.03245e-11
2.49951e-10
-5.05153e-11
5.49559e-11
-3.54865e-11
-5.70368e-11
-3.84622e-12
3.78962e-11
-3.88939e-12
4.35444e-10
-1.42155e-11
2.80049e-10
-6.90061e-12
-9.51219e-11
-4.15266e-12
-5.7168e-11
-3.04919e-12
-1.26169e-10
4.74188e-11
-1.13663e-10
5.96751e-11
-2.02841e-10
2.96073e-11
-2.1322e-10
2.28124e-11
6.09127e-10
3.69736e-11
-1.92072e-10
2.38338e-12
-4.26599e-10
-9.32453e-12
-1.89137e-10
-6.05721e-12
-7.65872e-11
3.09876e-12
-1.59363e-10
4.6693e-12
8.62528e-12
2.61521e-12
-8.45843e-11
1.13093e-11
1.85116e-10
-8.18793e-12
2.02078e-10
-3.40429e-11
3.67133e-10
-6.0138e-11
3.75219e-10
-5.55269e-11
1.82066e-10
-1.6422e-11
-4.14482e-11
-1.92562e-11
4.29979e-11
-3.04912e-11
1.84569e-10
-1.35576e-11
-3.17143e-11
1.69599e-11
-2.32092e-10
2.24482e-11
-7.50751e-11
6.46837e-12
1.6737e-10
6.30453e-12
3.35241e-10
1.69805e-12
-5.2844e-11
1.19672e-11
-1.73571e-12
2.70013e-11
-2.00111e-10
7.41758e-12
6.38394e-11
-5.52659e-12
-2.56242e-10
-1.73798e-11
-1.82324e-10
-2.95428e-11
-4.3198e-10
-1.57581e-11
-6.60714e-10
-1.40229e-11
-7.0902e-10
-1.35304e-11
-5.08764e-10
-1.64972e-11
1.61419e-11
2.21548e-11
3.88437e-10
3.74012e-11
1.06948e-10
3.67056e-11
-5.89787e-11
2.12879e-11
-1.04139e-10
2.13103e-11
-1.56285e-12
2.82208e-11
4.45463e-10
1.27436e-11
3.9056e-11
-1.37849e-11
-4.92067e-10
-1.78566e-11
-4.92282e-10
-9.67836e-12
-3.73207e-10
-1.82214e-11
1.65976e-10
-1.20243e-11
4.62262e-10
-2.00322e-11
4.74291e-10
-4.44069e-12
1.99244e-10
6.97432e-12
1.32347e-10
2.45024e-11
-8.58426e-11
2.4994e-11
-8.06857e-11
1.0043e-11
-3.16178e-10
-1.37914e-11
-1.22608e-10
-2.71742e-11
2.60877e-10
-4.38751e-12
2.5185e-10
-1.07616e-11
2.13232e-10
-2.31498e-11
-1.1905e-11
-2.98537e-11
-9.68493e-11
1.05917e-12
2.36189e-10
1.78937e-11
1.43837e-10
1.89093e-11
4.45671e-10
1.77759e-12
6.0688e-10
-1.18155e-11
1.07049e-13
-9.74869e-12
-5.61259e-10
-1.80528e-11
-6.54593e-11
-3.23341e-11
5.28624e-11
-2.5739e-11
4.91463e-10
-3.84556e-12
5.20852e-10
-4.27988e-12
3.92395e-10
-1.63364e-11
4.60148e-10
-2.30825e-12
3.01422e-10
4.93383e-12
1.08745e-10
1.86356e-11
-1.5698e-10
-1.06806e-11
1.81244e-11
-1.80263e-11
-4.62751e-10
8.78159e-12
-4.4909e-10
4.79947e-11
-3.73321e-10
4.83832e-11
-1.35042e-10
2.77238e-11
-8.5385e-11
1.03691e-11
-7.08265e-11
2.0232e-11
-1.62066e-10
2.36312e-11
-3.61698e-10
1.4332e-11
-1.08756e-10
-2.20018e-11
-3.0082e-10
-2.66298e-11
-2.06153e-10
-3.68201e-11
1.37652e-10
-3.41265e-11
5.08102e-10
-1.04541e-11
2.15e-10
-1.16191e-11
-1.60722e-10
-2.26412e-11
-3.41923e-11
-3.1873e-11
-1.03817e-10
-4.26859e-11
-2.27955e-10
-2.03383e-11
-5.17427e-10
-4.18874e-12
-6.42888e-10
2.00587e-11
-3.14694e-10
5.06762e-11
9.84735e-11
3.18583e-11
1.14285e-11
4.35433e-12
-2.28602e-10
-2.887e-13
-1.7612e-10
-6.0129e-12
5.17981e-11
-1.67674e-11
-2.43725e-10
-7.21468e-12
3.33688e-10
-7.55055e-12
8.03063e-11
-1.0392e-11
-1.15188e-10
1.21624e-11
-1.93615e-10
1.88679e-11
1.33833e-10
1.7939e-11
2.30166e-10
1.33057e-11
-6.82188e-11
3.29039e-11
-6.72779e-11
6.37916e-11
8.48149e-11
1.05132e-10
-1.71848e-10
2.01505e-10
-5.38546e-10
3.34239e-10
-5.11599e-10
5.55274e-10
-9.14712e-10
8.72895e-10
-1.28029e-09
1.39413e-09
-2.65367e-09
2.2566e-09
-4.0066e-09
3.62967e-09
-6.31255e-09
5.83723e-09
-1.13782e-08
9.39888e-09
-1.78507e-08
1.51518e-08
-2.99761e-08
2.44469e-08
-5.01899e-08
3.94981e-08
-8.37691e-08
6.38141e-08
-1.32644e-07
1.03195e-07
-2.2767e-07
1.67082e-07
-3.73177e-07
2.70592e-07
-6.08035e-07
4.38489e-07
-1.01829e-06
7.12107e-07
-1.79772e-06
1.15837e-06
-2.92559e-06
1.88621e-06
-4.86015e-06
3.07834e-06
-8.29682e-06
5.03638e-06
-1.38424e-05
8.24699e-06
-2.23234e-05
1.35306e-05
-4.00443e-05
2.22847e-05
-6.94048e-05
3.67716e-05
-0.00011024
6.07185e-05
-0.000176262
0.000100556
-0.000307527
0.000166824
-0.000480494
0.000277452
-0.000814898
0.000465344
-0.00154216
0.000786693
-0.00239025
0.00133908
-0.00372878
0.00232184
-0.00794091
0.00412053
-0.0139885
0.00749052
-0.0237911
0.0138618
0.0260586
-0.0507201
1.06193e-10
-6.8769e-12
-6.64768e-11
-7.06981e-12
-1.44046e-10
2.78042e-13
-3.07439e-11
3.10727e-12
2.68735e-11
-8.84418e-12
3.61411e-10
4.85095e-12
1.59025e-10
6.24572e-12
-6.60773e-11
5.87622e-12
-6.96738e-11
5.48214e-13
-2.4428e-10
-5.57917e-13
-1.58449e-10
1.39176e-11
1.89823e-10
6.43587e-12
1.02314e-10
-1.72982e-12
-2.17428e-10
-2.27415e-12
-7.93338e-12
-1.6921e-11
-2.15672e-10
-1.2114e-11
-3.55681e-10
-1.66085e-12
-4.2418e-10
-5.91827e-13
-6.90698e-11
-1.30542e-13
-5.38243e-10
1.22308e-11
-2.47982e-10
2.58921e-11
-8.01194e-10
5.53434e-12
-2.63303e-10
-4.67842e-12
2.15389e-10
-1.57682e-11
2.06484e-10
-1.56871e-11
1.14531e-10
-1.33927e-11
-3.01512e-10
-1.87026e-12
-3.10294e-10
-5.44005e-12
-1.45946e-10
-1.73163e-11
-1.15504e-10
-2.03681e-11
-6.83688e-11
-9.54716e-12
-1.26257e-10
-1.16498e-11
3.461e-10
-9.19229e-12
4.38147e-10
-4.52473e-12
5.73445e-11
-1.11312e-11
-9.56861e-11
-1.16105e-11
-2.42274e-10
-8.2152e-12
-8.69445e-11
1.09664e-11
-1.15884e-10
2.67974e-11
3.67091e-11
2.42827e-11
1.03407e-11
-8.55585e-12
3.31354e-10
-2.08664e-11
4.01985e-10
-1.49798e-11
-1.55731e-10
-1.18595e-11
2.99748e-11
-6.42894e-12
3.43574e-10
5.10579e-12
2.66455e-10
3.06405e-12
-1.97999e-10
7.87449e-12
-5.42828e-10
9.92449e-12
-4.91038e-10
2.17533e-12
-4.00918e-10
-5.471e-12
4.16435e-11
-2.26601e-11
3.06356e-10
-1.90548e-11
-1.60849e-10
-2.07167e-11
1.3333e-10
-1.13779e-11
-8.96648e-11
-4.39909e-12
3.18707e-11
1.60183e-11
1.79259e-10
1.55736e-12
3.82048e-11
-8.45285e-12
-1.25218e-11
-1.17618e-11
1.14187e-10
-1.12797e-11
2.7408e-10
-3.38899e-12
5.87179e-11
2.13086e-12
4.88501e-11
1.96706e-11
1.62009e-11
2.28733e-11
2.46771e-10
1.35465e-11
5.86659e-10
1.79646e-11
2.75596e-10
3.04224e-11
4.46892e-11
3.07579e-11
-1.40525e-10
9.36886e-12
-2.97566e-10
8.42823e-13
-3.33595e-10
1.25382e-11
-1.76404e-10
3.50384e-12
-1.68494e-10
-1.25792e-11
3.17661e-10
-1.10864e-11
-1.22954e-10
-2.01253e-11
-2.45961e-11
-3.43302e-11
2.04202e-10
-3.54586e-11
1.17318e-11
-1.73537e-11
-3.68725e-10
-6.66572e-12
-2.65847e-10
-1.76377e-11
-2.6849e-10
-3.59366e-12
-1.22698e-10
7.43632e-12
-3.02379e-10
1.36848e-11
-1.95921e-11
2.10821e-11
-1.57069e-10
1.57375e-11
-4.15328e-10
1.55314e-11
-2.64495e-10
1.6438e-11
6.52288e-10
2.41696e-11
9.07211e-10
-9.51707e-13
6.96966e-10
-6.28207e-12
4.45267e-10
-1.97095e-11
-9.97013e-11
-3.44966e-11
-8.97438e-11
-2.02753e-11
-2.47204e-10
-1.04963e-11
-1.35053e-10
-9.05398e-12
1.29444e-10
-1.39041e-11
-1.09431e-10
-1.05268e-11
9.53719e-11
1.23505e-11
-6.32556e-10
2.0362e-11
-5.47353e-10
3.33271e-11
1.21702e-10
2.12517e-11
-1.46461e-10
8.84235e-13
-4.86746e-11
-1.01656e-12
-1.80241e-10
-5.2806e-12
-1.87934e-10
-3.45621e-12
6.49437e-11
1.79684e-12
3.73968e-10
-7.64426e-12
1.8145e-10
-1.21581e-11
3.6965e-11
-1.24468e-11
-8.68019e-11
1.4186e-12
-6.52104e-11
2.39632e-11
-7.9778e-11
2.34283e-11
1.51602e-10
2.03607e-11
3.71556e-10
-3.34072e-12
4.89236e-10
-1.98714e-11
3.30672e-10
-1.15384e-11
-2.87652e-10
-6.27477e-12
-3.67494e-10
-3.51246e-12
-3.32498e-10
3.04578e-12
1.20961e-10
-3.63028e-12
-1.15207e-10
-3.2379e-12
2.33278e-10
2.34554e-11
1.04966e-11
4.0666e-12
-3.82039e-11
1.19906e-11
-1.79211e-10
4.41668e-12
-6.19627e-10
1.53779e-11
-2.05438e-10
2.96069e-11
-9.02311e-11
2.00651e-11
3.94545e-10
2.27481e-11
3.11851e-10
2.45595e-11
4.17103e-10
1.69006e-11
3.90628e-10
9.22517e-12
6.21769e-10
-5.11249e-12
3.34761e-10
-4.21704e-12
2.14989e-10
-1.77655e-12
3.07881e-11
-5.74856e-12
1.17252e-10
-3.58725e-12
7.24803e-10
-9.96124e-12
4.78744e-10
-2.83833e-11
1.49219e-10
-3.63796e-11
-1.25962e-10
-4.01759e-11
-4.90611e-10
-2.22477e-11
-9.33281e-11
-1.1889e-11
-2.91679e-10
-2.7844e-11
-2.42263e-10
-4.59227e-12
-3.97725e-10
1.57261e-11
9.96993e-13
2.24281e-11
2.35223e-11
2.18983e-12
2.02782e-10
3.62959e-12
3.14758e-10
-2.48782e-12
2.90308e-10
2.07255e-12
3.71405e-10
1.86201e-11
6.72562e-10
-4.30629e-12
4.1519e-10
-2.23434e-11
-1.97969e-10
-9.09123e-12
-5.98484e-10
-2.28679e-13
-4.86904e-10
7.00592e-12
1.8514e-10
1.71288e-11
8.72033e-11
1.0047e-12
6.36125e-10
7.0864e-12
4.49198e-10
-3.50258e-12
-4.643e-11
-7.58959e-12
-2.59836e-10
2.04793e-11
-6.9094e-10
2.88813e-11
-2.42311e-10
4.06518e-11
-3.48523e-10
1.80562e-11
-7.2346e-11
2.03224e-12
1.92603e-10
-3.72092e-12
4.06295e-10
4.40803e-12
1.4002e-10
9.09941e-12
-7.61959e-11
5.24948e-12
5.58191e-11
2.78462e-12
-6.30233e-11
-1.3498e-11
2.43727e-10
-2.48537e-11
3.71733e-10
-2.0135e-11
-1.36686e-10
-7.85183e-12
-1.32868e-10
2.56449e-11
-1.02674e-10
2.04106e-11
2.93375e-10
1.3883e-11
2.89595e-10
5.34564e-13
-1.53248e-11
-3.02627e-12
4.57743e-11
1.36203e-11
-1.75527e-10
1.33564e-11
4.97814e-12
2.01351e-11
1.5139e-10
2.72779e-11
-4.00427e-11
1.13683e-11
-2.42667e-10
8.75036e-12
4.33384e-11
-6.05396e-12
-3.54059e-10
-1.61928e-11
-3.23614e-10
-3.96845e-13
-1.88545e-10
1.32528e-11
-7.93111e-11
1.22292e-11
-3.83506e-10
-2.58563e-12
-1.35281e-10
9.09997e-12
8.54442e-11
-3.10309e-13
1.01919e-10
-1.6192e-11
2.66213e-10
-9.80455e-12
1.93488e-10
-7.14434e-12
-1.28443e-10
-5.21742e-12
1.05251e-10
5.70441e-12
-4.42168e-11
1.22445e-11
1.40727e-10
2.19316e-12
2.87121e-10
-3.03001e-12
3.36612e-10
1.34818e-11
5.30153e-11
1.62896e-11
-4.93972e-10
7.00094e-12
-5.10929e-10
-4.87413e-14
1.4504e-10
4.06803e-13
4.859e-11
-8.03778e-12
-6.0485e-11
6.38118e-12
-6.9003e-11
9.65744e-12
-1.03579e-11
1.49201e-12
-5.2801e-11
-2.15153e-11
-1.78864e-10
-2.83494e-11
1.07088e-11
-2.16025e-11
1.9657e-10
-4.83159e-12
5.61221e-10
2.13737e-11
2.51241e-10
6.85028e-12
2.03681e-10
-2.03245e-11
1.99987e-10
1.94885e-13
-2.31037e-10
-4.93985e-13
-3.95543e-11
1.54181e-12
-2.66081e-10
1.62544e-12
-3.24726e-10
1.75435e-12
-1.85194e-10
-2.26681e-12
-8.86249e-11
-1.42703e-13
-5.53669e-11
-6.06062e-12
-4.73678e-11
-6.47115e-12
-7.64884e-11
1.07476e-12
3.41422e-12
2.32394e-12
-5.44253e-10
4.15016e-12
-3.54164e-10
1.31244e-12
-7.04657e-10
4.95423e-12
-5.40981e-10
9.64602e-12
-3.1388e-10
1.56749e-11
-2.64223e-10
8.67664e-12
1.48965e-10
1.08225e-11
5.73681e-11
2.01817e-11
5.41307e-13
7.44642e-12
-9.19705e-12
-1.7312e-11
-4.22698e-10
-4.68792e-11
-3.23332e-10
-4.90776e-11
-5.57971e-10
-4.58961e-11
-6.63962e-10
-2.22594e-11
3.99712e-10
-8.38619e-12
2.5904e-10
-1.21092e-11
-3.21453e-10
1.60831e-11
3.70192e-10
2.00043e-11
7.31181e-10
5.04993e-12
8.79227e-13
-5.73307e-12
4.34043e-10
-1.18649e-11
4.20957e-10
-3.1355e-11
3.9813e-10
-3.11113e-11
4.63253e-10
-1.55452e-11
3.4171e-10
7.42138e-13
-2.3111e-10
3.53521e-11
-3.70429e-10
6.3271e-11
-1.07873e-10
8.78367e-11
-1.2874e-10
1.0178e-10
-7.00371e-11
1.63991e-10
1.04484e-10
2.49634e-10
-1.24541e-10
3.79633e-10
5.58026e-11
6.26214e-10
-3.01371e-10
9.9065e-10
-1.05793e-09
1.5636e-09
-1.20274e-09
2.52522e-09
-1.73292e-09
4.0613e-09
-2.5185e-09
6.53238e-09
-3.93145e-09
1.04986e-08
-6.95346e-09
1.69161e-08
-1.12058e-08
2.72288e-08
-1.89911e-08
4.38132e-08
-3.07743e-08
7.05362e-08
-5.27896e-08
1.13558e-07
-8.06451e-08
1.82849e-07
-1.34642e-07
2.94599e-07
-2.25934e-07
4.74817e-07
-3.6832e-07
7.65497e-07
-5.76453e-07
1.2353e-06
-1.03842e-06
1.99549e-06
-1.72687e-06
3.22591e-06
-2.72757e-06
5.22192e-06
-4.45678e-06
8.46668e-06
-7.75527e-06
1.37365e-05
-1.20542e-05
2.23039e-05
-2.02401e-05
3.62763e-05
-3.628e-05
5.90821e-05
-5.81861e-05
9.63536e-05
-7.79415e-05
0.000157478
-0.000135357
0.000257594
-0.000211912
0.000421431
-0.000267028
0.000691547
-0.000512321
0.00114
-0.000870725
0.00188837
-0.000662169
0.00315777
-0.00134472
0.00535399
-0.0029055
0.00920785
-0.00156743
0.0160235
0.0283048
-0.00152179
-2.49833e-11
-7.04685e-12
-2.55897e-10
-8.21896e-12
5.03241e-11
5.54331e-12
-3.65135e-10
-6.75966e-12
1.21996e-10
1.36841e-11
3.7648e-10
1.53704e-11
-5.91941e-11
-1.10524e-11
-2.62067e-10
-5.36809e-12
-2.18254e-10
-3.36847e-12
1.84174e-10
1.46674e-11
-2.14267e-10
1.02194e-11
-3.49121e-10
1.30891e-11
1.76972e-10
2.76981e-12
-1.14578e-10
-1.62716e-11
-3.05017e-11
-2.951e-11
-6.69573e-11
-1.86582e-11
-4.63089e-11
1.30786e-12
-4.80554e-10
1.03216e-11
1.26206e-10
2.41246e-11
1.35958e-10
3.46808e-12
-2.87517e-10
-3.91177e-12
-5.73109e-11
-9.19642e-12
-8.67341e-11
-1.01234e-11
2.27833e-10
-2.17282e-11
2.27858e-10
-1.26032e-11
-1.10258e-10
3.96598e-12
1.64298e-11
3.69533e-12
-6.52632e-11
-1.4446e-12
-5.75957e-11
-6.91605e-12
1.4722e-10
-1.17864e-11
-5.84927e-11
-3.97099e-12
4.43265e-10
6.29356e-13
1.51356e-10
-1.25755e-11
-3.06551e-10
-1.50479e-11
-1.14977e-12
1.03555e-11
-2.01046e-10
3.17072e-11
4.73381e-10
4.03608e-11
9.94783e-10
1.24177e-11
3.36742e-10
-1.82663e-11
-4.0931e-10
-7.4144e-12
-5.18832e-10
2.22119e-11
1.78305e-10
1.75073e-11
4.40375e-10
-7.12672e-12
2.84587e-10
-1.63674e-11
2.84917e-10
-1.01917e-11
6.14888e-10
-2.66232e-11
4.53988e-10
-2.7875e-11
2.25675e-10
-7.95615e-12
9.43518e-11
-5.45858e-12
1.15519e-10
-1.64576e-11
-3.70326e-10
-2.01096e-11
-4.62968e-10
2.48868e-12
-5.56629e-10
1.62403e-12
-5.80511e-10
-3.36642e-12
-1.22028e-10
5.75891e-12
3.0153e-10
6.67734e-12
2.44711e-10
-7.78621e-12
4.3717e-10
1.58154e-12
2.34195e-10
2.43801e-11
-1.46238e-10
1.74635e-11
4.17896e-10
2.82106e-13
2.90944e-10
-1.1645e-11
2.20206e-10
-1.22091e-11
2.11941e-10
-1.05729e-11
2.59462e-10
-2.11737e-11
4.59657e-10
-5.58263e-13
4.52805e-10
1.05286e-12
4.17053e-11
3.07574e-12
2.24114e-11
5.65583e-12
2.79985e-11
5.23743e-12
-1.11175e-10
-1.18519e-11
-3.85228e-10
-2.93763e-11
-4.45293e-10
-1.25388e-11
-5.28068e-10
-1.2617e-11
-5.83217e-10
-7.1938e-12
-7.42252e-10
-7.19137e-12
-6.88577e-10
1.9756e-11
5.03358e-11
2.14372e-11
-1.70719e-10
7.69924e-12
-3.42858e-10
3.31352e-12
2.42894e-10
1.15918e-11
5.04896e-10
8.51239e-12
1.50352e-10
-7.89945e-12
-2.16131e-10
-4.75603e-12
-1.44723e-10
3.81949e-12
-9.81275e-12
4.52952e-12
3.37486e-10
2.38948e-12
2.82198e-10
-6.78312e-12
-1.91053e-10
-1.46375e-11
2.15338e-10
-2.1838e-11
5.83162e-10
-3.35298e-11
1.13748e-11
-2.64635e-11
-5.38486e-11
-3.32877e-12
-2.98148e-10
1.04614e-12
-3.27069e-10
3.68495e-12
-4.10228e-10
1.61613e-11
-2.03319e-10
2.35534e-11
-6.94759e-11
1.55037e-11
-2.79815e-10
4.22561e-12
-6.68189e-11
-1.16921e-11
-6.5238e-11
-2.08886e-11
-1.94755e-10
-3.78192e-12
4.81336e-11
2.06792e-11
-2.55052e-11
2.85158e-11
-3.84428e-10
2.53846e-11
-2.68677e-10
2.23905e-11
7.66188e-11
1.53532e-11
3.22709e-10
-3.99845e-12
-9.21859e-11
-5.91571e-12
-1.61987e-10
1.43445e-11
1.20675e-10
1.33169e-11
2.02604e-10
5.77675e-12
6.60864e-10
-1.33248e-11
1.34718e-10
-1.97648e-11
-4.76056e-10
-2.56236e-12
-1.45686e-10
2.23046e-11
1.25993e-10
5.49759e-12
1.14952e-10
-6.38237e-12
3.69877e-10
-7.05215e-12
2.63832e-10
-6.7422e-12
-1.93816e-10
1.34221e-11
-8.87917e-11
1.53973e-11
-5.19798e-10
7.56495e-12
-1.27718e-10
1.55866e-11
-6.38049e-10
2.16327e-11
-3.00579e-10
2.27595e-11
-1.26049e-10
1.00829e-11
1.0181e-10
3.92683e-12
-1.22904e-10
-1.61177e-11
-1.76496e-10
-2.53175e-11
-1.34698e-10
-3.42305e-11
-3.44075e-11
-1.33171e-11
-3.16707e-10
-1.11076e-11
-1.96433e-10
-8.5846e-12
1.6981e-10
6.65257e-12
3.62218e-10
7.94063e-12
4.63253e-10
-6.32944e-12
5.07797e-10
1.63387e-11
5.02403e-10
3.33033e-11
-3.3238e-11
1.63201e-11
-5.24404e-10
-8.62524e-12
-1.19863e-10
6.24123e-12
2.28703e-10
6.37493e-13
3.20227e-10
2.11199e-12
3.6648e-10
9.25871e-13
-3.64428e-10
1.37775e-11
-1.53064e-10
2.46178e-11
-3.82884e-10
8.84739e-12
1.70154e-10
1.53755e-11
9.25779e-11
1.55822e-12
8.26121e-11
-9.45856e-12
2.28799e-10
2.9325e-12
1.52441e-10
2.06427e-11
-1.58856e-10
1.53708e-11
-2.09472e-10
-1.45973e-11
-4.54135e-10
-2.96989e-11
-2.3582e-10
-2.29538e-11
2.20842e-11
-3.32444e-11
-2.13575e-10
-3.6089e-11
-6.42512e-11
-2.69711e-11
3.13099e-10
-1.00965e-11
1.30692e-12
-1.29993e-11
-1.78627e-11
-7.94896e-12
-4.81882e-10
-1.65786e-11
-2.57288e-10
5.44608e-12
-4.37685e-10
2.19947e-11
-2.62589e-10
7.39017e-12
-2.20515e-10
-1.53085e-12
-2.25487e-10
-8.49547e-12
-3.65032e-11
-1.3958e-11
2.17261e-11
-3.12814e-11
-1.07359e-12
-1.21631e-11
-1.42495e-10
9.25845e-12
-2.69366e-10
2.00361e-11
1.2481e-11
1.06093e-11
6.04276e-11
1.15336e-11
5.03766e-10
2.09865e-11
2.79749e-10
1.31999e-11
4.69082e-10
-4.10438e-12
2.80233e-10
3.40576e-12
-2.637e-10
1.94614e-11
-3.10972e-10
7.3642e-12
-3.56603e-10
6.74538e-13
-5.30602e-10
-1.67928e-12
-1.33652e-11
2.19158e-11
-4.26618e-10
9.1155e-12
7.51965e-11
1.08159e-11
-7.71974e-11
6.64606e-13
-3.5427e-11
-6.83024e-12
-4.75613e-10
-6.038e-12
-3.62944e-10
1.90579e-13
1.97848e-10
7.23907e-12
1.60024e-10
1.57855e-11
2.8751e-10
2.30542e-11
3.58553e-10
7.47656e-12
2.04912e-11
1.21039e-11
1.30948e-10
2.6271e-11
-6.94818e-11
1.23801e-11
-4.61098e-10
1.92965e-12
-2.20584e-10
5.08201e-12
-2.44236e-10
-1.27032e-11
-2.66552e-10
-2.29515e-11
-5.56467e-11
-2.30004e-11
7.48202e-11
-1.94592e-11
-1.42257e-10
-1.50248e-11
3.05304e-10
-1.11363e-11
-2.4381e-10
-3.4208e-12
-4.59933e-10
1.08056e-11
-4.34563e-10
1.88782e-11
-3.40915e-10
2.53566e-12
-1.9807e-10
-1.16189e-11
1.08321e-10
1.178e-12
-2.10178e-10
1.40527e-11
-2.46785e-11
1.96022e-11
5.85434e-10
1.7766e-11
5.83144e-10
1.25502e-11
3.54127e-10
2.19588e-12
-4.17926e-11
-2.09035e-12
-6.90491e-11
1.46871e-11
1.75913e-10
1.8793e-11
-5.95233e-11
9.1741e-12
-1.75825e-10
-1.54072e-11
-5.13799e-11
-2.75307e-11
2.14496e-10
-1.64115e-11
6.24895e-13
6.40813e-12
-1.24188e-11
2.96489e-11
-3.21854e-10
3.97873e-12
1.55174e-10
-1.14478e-11
-8.05099e-11
-2.93683e-11
-1.39025e-10
-1.39112e-11
4.40674e-11
1.81281e-11
-1.39231e-10
2.51803e-11
3.27244e-10
1.34738e-11
3.97124e-10
-9.8e-13
1.52244e-10
1.04561e-11
8.69657e-11
1.06067e-11
3.39003e-10
1.87598e-12
2.78012e-10
-5.79118e-12
-3.70716e-10
-2.17218e-11
-6.25977e-10
-1.51462e-11
-5.20891e-10
-1.05709e-11
-6.81161e-10
-7.02593e-12
-4.83003e-10
-9.58266e-12
-4.26667e-10
-1.43772e-11
-1.66187e-10
-2.49943e-11
-1.69809e-10
-2.65673e-11
1.65756e-10
-2.70713e-11
1.42487e-10
-3.39781e-11
-8.41116e-11
-2.35482e-11
2.57928e-10
-1.6002e-11
-9.02059e-11
-1.3561e-11
-3.81773e-10
1.32364e-11
2.56345e-10
2.48245e-11
1.34137e-10
9.78557e-12
-1.91201e-10
2.10268e-11
5.16581e-11
2.61736e-11
3.46423e-10
2.849e-11
3.49985e-10
4.98664e-11
-8.33724e-11
8.2639e-11
1.03437e-10
1.25831e-10
1.6181e-10
1.73438e-10
9.42529e-11
2.95745e-10
1.52184e-10
4.97997e-10
1.90798e-10
7.9286e-10
2.23306e-10
1.26804e-09
3.50381e-10
2.06132e-09
1.20826e-10
3.32408e-09
-1.76637e-10
5.31101e-09
-7.67838e-10
8.49347e-09
-7.39986e-10
1.35946e-08
-1.29993e-09
2.17783e-08
-1.80756e-09
3.4911e-08
-3.63944e-09
5.59277e-08
-4.42163e-09
8.96454e-08
-9.70275e-09
1.43666e-07
-1.00401e-08
2.3025e-07
-1.40693e-08
3.69089e-07
-2.97601e-08
5.91817e-07
-5.65196e-08
9.48999e-07
-4.16439e-08
1.52223e-06
-1.22161e-07
2.44315e-06
-2.69644e-07
3.92283e-06
-2.76328e-07
6.3022e-06
-2.21929e-07
1.01354e-05
-1.09246e-06
1.63128e-05
-1.52865e-06
2.62687e-05
-1.60127e-06
4.23394e-05
-5.39369e-06
6.83085e-05
-8.9188e-06
0.000110259
8.13227e-06
0.000178146
5.20906e-06
0.000288139
-8.69383e-06
0.000466131
9.50322e-05
0.000754846
0.000156745
0.00122548
0.000100055
0.00199348
0.000932561
0.00325498
0.00181033
0.00535525
0.00189127
0.00889535
0.00567068
0.0148857
0.0253206
0.0120481
3.17742e-11
1.03511e-11
4.91231e-10
8.74347e-12
9.73455e-11
-8.5519e-12
1.42625e-11
1.17616e-12
6.45098e-11
4.81086e-14
5.39917e-11
5.22246e-12
-2.28777e-10
8.08963e-12
-1.87228e-10
7.80173e-12
1.03495e-10
-5.87037e-12
2.21306e-10
-4.19193e-12
3.86838e-10
-1.23309e-11
2.99995e-10
-3.50563e-12
-5.29738e-11
1.01113e-11
-4.28747e-10
7.12768e-12
2.32409e-10
4.53195e-14
6.4819e-10
-1.33065e-11
2.49153e-10
-8.98144e-12
2.539e-10
-3.07405e-12
-2.53788e-10
2.29932e-11
7.87552e-11
3.48232e-11
4.73669e-10
1.97472e-11
3.70451e-11
1.07865e-11
-3.07805e-10
1.28311e-11
-2.4356e-11
-4.06956e-12
5.6159e-10
-9.99495e-12
3.8035e-10
-2.07188e-11
-2.37468e-10
1.50923e-12
-3.61742e-10
1.84795e-11
-1.87455e-10
3.15519e-11
-2.64479e-11
2.90142e-11
3.61541e-10
2.37152e-11
9.80497e-11
1.27185e-11
-1.99244e-10
-2.67177e-12
2.12301e-10
-7.0976e-12
2.26427e-10
-1.18657e-11
2.4932e-10
-1.34576e-11
8.32086e-11
-2.55462e-11
1.0992e-10
-1.90737e-11
5.32933e-12
-9.92253e-12
2.44254e-10
-1.45793e-11
2.70257e-10
-1.90724e-11
-1.42706e-11
-3.14118e-11
1.13244e-10
-7.43937e-12
1.1243e-11
2.70699e-11
-2.04281e-10
1.86559e-11
-2.71289e-10
8.24817e-12
-4.80861e-10
1.31662e-11
-1.53593e-10
-9.459e-12
5.04463e-10
-1.54021e-11
4.99482e-10
-9.44175e-12
7.14734e-10
-6.23009e-12
3.75295e-10
7.70005e-13
-6.99455e-11
-4.61893e-12
5.92851e-11
3.68882e-12
5.84405e-10
6.26698e-12
2.21564e-10
4.79576e-12
1.43522e-10
3.24883e-12
3.94144e-10
9.15465e-12
-1.20232e-10
5.45938e-12
-2.06963e-10
1.08941e-11
-1.31241e-10
7.75371e-12
-1.50787e-10
1.28128e-11
-2.87139e-10
2.59789e-11
-4.72703e-10
1.9469e-11
1.31486e-10
2.86137e-11
4.63461e-10
1.02408e-11
5.99113e-10
-6.51153e-13
1.64235e-10
-8.38284e-12
3.3582e-10
-7.06044e-12
-6.72435e-11
-1.24966e-11
-1.51486e-10
-4.1372e-12
4.0965e-10
-2.47931e-12
3.19345e-11
-2.01049e-11
-1.86648e-10
-1.01122e-11
-3.15828e-10
-2.35637e-11
-1.04953e-10
-1.16795e-11
5.66973e-11
-2.639e-11
-2.62742e-10
-1.72177e-11
-7.49371e-10
8.37859e-12
-4.34719e-10
1.60298e-12
-2.6823e-10
-2.96028e-13
-2.90084e-10
1.58629e-11
-4.72708e-11
1.91934e-11
2.76379e-11
1.43194e-11
-7.77274e-11
5.68491e-12
-3.02869e-10
5.05829e-12
-7.14383e-11
9.42713e-12
2.47974e-10
-8.6422e-12
-8.90877e-11
-3.23652e-11
-3.28027e-11
-1.82724e-11
-2.93368e-10
-5.18052e-12
-2.96282e-10
9.54804e-12
-9.97085e-11
-4.57458e-13
-9.64672e-11
-9.2951e-12
5.42177e-11
1.06136e-11
2.71137e-10
1.77828e-11
-2.73357e-10
-7.12064e-12
-3.35019e-10
-1.0252e-12
-2.91022e-10
3.50691e-12
-2.52986e-10
1.13648e-11
-2.33829e-11
9.84792e-12
2.37685e-10
2.70624e-13
1.40384e-10
-3.48492e-12
1.51794e-11
4.28265e-12
-1.1864e-11
-1.47757e-12
4.8491e-10
-1.26309e-11
-2.51476e-10
-4.19937e-11
-5.8983e-10
-9.29101e-12
-3.95659e-10
6.59634e-12
-4.31749e-10
3.49657e-12
-5.69411e-10
1.18293e-11
-5.64923e-10
3.4514e-12
-4.4483e-10
1.92266e-11
-1.8053e-10
3.62106e-11
6.37941e-10
4.31385e-11
2.58484e-10
1.58733e-11
4.18395e-10
1.52553e-11
-3.61359e-11
2.99979e-11
6.99353e-11
2.53579e-11
2.78842e-10
-5.56623e-12
-1.78536e-10
-2.05984e-11
-4.17934e-10
-1.63482e-11
-4.77505e-10
6.77779e-12
-2.82189e-10
1.54489e-11
1.59592e-11
-7.63502e-12
1.54613e-10
-1.39257e-11
-5.60466e-11
-9.21159e-12
-1.35112e-10
-5.351e-12
-1.31697e-10
-6.90331e-13
-1.29922e-10
-8.9316e-12
-1.53111e-10
1.37843e-11
2.35714e-10
2.84249e-11
3.42456e-10
3.00338e-11
2.81246e-10
1.88043e-11
2.01867e-10
1.27894e-11
-2.35078e-10
-9.27293e-13
1.00744e-12
5.43716e-12
5.23802e-10
-3.1799e-12
-2.93751e-10
-1.83772e-11
-5.10619e-10
-8.11741e-12
-2.74378e-10
6.47233e-12
-3.16176e-10
4.17242e-12
-1.9526e-10
2.94303e-12
-4.27886e-10
7.1992e-12
-8.62555e-11
1.98886e-11
9.17635e-11
2.7447e-12
5.83495e-11
-7.05968e-13
2.40599e-10
7.6425e-12
4.91929e-12
1.73745e-11
-4.33312e-10
2.78331e-12
3.13885e-10
-1.35227e-11
4.0531e-10
-2.99674e-11
3.93091e-10
-1.68843e-11
-6.37856e-11
-1.16952e-11
-7.20198e-11
2.89931e-12
-5.88794e-12
1.98343e-11
-5.13023e-10
2.6817e-11
-3.56063e-10
3.52803e-11
-1.63948e-10
1.96182e-11
-4.70786e-12
2.0238e-11
-5.444e-11
9.31285e-12
1.42999e-10
8.83877e-12
1.02742e-10
-9.91541e-12
-9.305e-11
-1.92109e-11
5.65994e-10
-2.24429e-11
7.22346e-10
-2.67225e-11
2.25577e-10
-1.38792e-11
-1.62099e-11
4.32334e-12
-1.19443e-10
1.8151e-11
-2.75807e-10
-8.61462e-13
-5.00925e-11
-8.52638e-13
-8.44275e-11
1.04567e-11
1.12338e-10
1.84675e-11
-2.75836e-10
3.61783e-12
-3.81835e-12
4.13362e-12
2.23713e-10
-8.99657e-12
4.45384e-10
-2.63758e-11
5.98144e-10
-2.51178e-11
3.02443e-10
-1.85392e-11
-7.56748e-11
-1.60606e-11
-2.95735e-10
-2.66325e-12
-2.72887e-10
-8.61065e-12
-3.68777e-10
-1.34127e-11
-2.2124e-10
-6.44858e-12
-3.86675e-10
-8.36753e-13
-2.82685e-10
-9.34495e-12
-1.02805e-10
1.57728e-11
7.9276e-11
1.24816e-11
-3.16458e-12
1.32713e-11
-5.05236e-11
1.07342e-11
1.70729e-10
1.77502e-11
5.05061e-10
1.8785e-12
5.09374e-10
-2.09255e-12
2.22817e-10
1.0386e-11
9.69542e-11
4.83789e-12
4.27727e-10
-4.28373e-12
-1.72905e-11
3.13631e-12
-3.39254e-10
6.17754e-12
9.33314e-11
-1.99195e-12
4.09002e-10
3.65723e-12
1.96428e-10
4.5832e-12
-2.88853e-10
-3.23963e-13
-3.33306e-10
4.11287e-12
-8.15863e-11
1.97895e-11
-3.49873e-10
1.07208e-11
-3.45782e-10
1.0504e-11
-8.23901e-11
2.86279e-11
2.34152e-10
3.50257e-11
-1.4246e-11
1.52124e-11
2.31701e-10
1.17897e-11
1.31964e-10
4.00419e-12
3.86468e-10
-5.46153e-12
-1.03361e-10
6.47627e-12
1.6437e-10
3.63197e-11
2.46122e-10
2.95484e-11
1.61296e-10
3.31406e-11
-1.52026e-10
1.49606e-11
1.51944e-10
4.20414e-12
-1.35456e-10
-2.89526e-12
2.83454e-10
2.23603e-11
3.82363e-10
2.0206e-11
1.74497e-10
2.5864e-11
-1.32293e-10
2.2752e-11
1.27371e-10
1.38672e-11
1.60642e-12
1.17092e-12
-5.85845e-10
-1.51012e-11
-3.99295e-10
-1.26244e-12
-6.97722e-10
4.22068e-12
-5.96773e-10
-3.56434e-13
8.88396e-11
-1.36653e-11
1.39938e-10
-3.29025e-11
-2.02572e-10
-3.68747e-11
-4.56422e-11
-1.25359e-11
-4.20122e-10
-2.43107e-11
-2.98439e-10
-2.84156e-11
-6.5247e-11
-2.47548e-11
-4.38537e-10
3.74506e-13
-3.11622e-10
1.9895e-11
-2.12567e-10
1.36262e-11
-2.38971e-10
1.57908e-11
-4.90356e-10
2.56608e-12
-1.37558e-10
1.10704e-11
1.96982e-10
2.15807e-11
1.33181e-10
-7.67858e-14
6.45099e-12
-1.31346e-11
-1.3969e-10
-1.77702e-11
-5.00241e-10
-1.69044e-11
-4.24926e-10
-1.18855e-11
2.0177e-11
-1.30449e-12
1.43564e-10
1.51229e-11
4.48493e-10
1.0709e-11
4.19506e-10
1.28195e-11
2.45897e-10
6.27967e-12
3.48078e-10
2.19827e-11
2.97579e-10
1.92194e-11
5.50985e-10
1.69404e-11
9.62762e-10
1.42355e-11
2.95747e-10
1.59788e-11
3.28283e-10
6.08733e-11
1.33429e-10
1.26833e-10
4.15759e-10
2.32483e-10
3.76677e-10
3.63515e-10
2.95255e-10
5.81752e-10
1.6241e-10
9.02476e-10
3.42583e-10
1.43973e-09
5.35794e-10
2.30979e-09
7.74163e-10
3.69247e-09
7.98335e-10
5.90677e-09
1.47105e-09
9.43041e-09
2.45552e-09
1.50307e-08
4.65392e-09
2.39521e-08
7.48479e-09
3.81713e-08
1.22274e-08
6.08968e-08
2.12406e-08
9.71447e-08
3.07471e-08
1.54972e-07