/*--------------------------------*- C++ -*----------------------------------*\
| =========                 |                                                 |
| \\      /  F ield         | OpenFOAM: The Open Source CFD Toolbox           |
|  \\    /   O peration     | Version:  2412                                  |
|   \\  /    A nd           | Website:  www.openfoam.com                      |
|    \\/     M anipulation  |                                                 |
\*---------------------------------------------------------------------------*/
FoamFile
{
    version     2.0;
    format      ascii;
    arch        "LSB;label=32;scalar=64";
    class       volVectorField;
    location    "0.004";
    object      U;
}
// * * * * * * * * * * * * * * * * * * * * * * * * * * * * * * * * * * * * * //

dimensions      [0 1 -1 0 0 0 0];

internalField   nonuniform List<vector> 
180000
(
(664 1.12659e-14 0)
(664 2.46173e-14 0)
(664 3.01917e-14 0)
(664 3.02782e-14 0)
(664 2.59732e-14 0)
(664 -8.0651e-16 0)
(664 -1.89937e-14 0)
(664 -4.80243e-14 0)
(664 -1.50277e-13 0)
(664 -2.92782e-13 0)
(664 -3.53113e-13 0)
(664 -3.24588e-13 0)
(664 -2.99164e-13 0)
(664 -3.17913e-13 0)
(664 -3.78559e-13 0)
(664 -4.48322e-13 0)
(664 -4.93553e-13 0)
(664 -4.81059e-13 0)
(664 -4.45788e-13 0)
(664 -4.53902e-13 0)
(664 -4.92559e-13 0)
(664 -5.10174e-13 0)
(664 -4.58494e-13 0)
(664 -4.28705e-13 0)
(664 -4.74273e-13 0)
(664 -5.54284e-13 0)
(664 -5.63136e-13 0)
(664 -5.05263e-13 0)
(664 -4.30605e-13 0)
(664 -3.77524e-13 0)
(664 -3.58019e-13 0)
(664 -3.92871e-13 0)
(664 -4.54573e-13 0)
(664 -4.96288e-13 0)
(664 -4.83338e-13 0)
(664 -4.73416e-13 0)
(664 -4.71812e-13 0)
(664 -4.90905e-13 0)
(664 -5.36183e-13 0)
(664 -6.06724e-13 0)
(664 -6.41107e-13 0)
(664 -6.1425e-13 0)
(664 -6.11133e-13 0)
(664 -6.98241e-13 0)
(664 -7.77696e-13 0)
(664 -8.62895e-13 0)
(664 -9.98013e-13 0)
(664 -1.14119e-12 0)
(664 -1.15426e-12 0)
(664 -1.0679e-12 0)
(664 -9.70125e-13 0)
(664 -8.77783e-13 0)
(664 -7.64444e-13 0)
(664 -6.03703e-13 0)
(664 -4.56812e-13 0)
(664 -4.08952e-13 0)
(664 -4.89474e-13 0)
(664 -6.63429e-13 0)
(664 -8.31925e-13 0)
(664 -8.51203e-13 0)
(664 -7.76317e-13 0)
(664 -7.33094e-13 0)
(664 -7.98291e-13 0)
(664 -8.74556e-13 0)
(664 -8.78487e-13 0)
(664 -8.21127e-13 0)
(664 -8.46086e-13 0)
(664 -9.11374e-13 0)
(664 -9.40099e-13 0)
(664 -9.07195e-13 0)
(664 -8.36951e-13 0)
(664 -8.49015e-13 0)
(664 -1.00075e-12 0)
(664 -1.18292e-12 0)
(664 -1.33133e-12 0)
(664 -1.37563e-12 0)
(664 -1.37285e-12 0)
(664 -1.38789e-12 0)
(664 -1.38972e-12 0)
(664 -1.40251e-12 0)
(664 -1.39324e-12 0)
(664 -1.34553e-12 0)
(664 -1.33459e-12 0)
(664 -1.31004e-12 0)
(664 -1.24097e-12 0)
(664 -1.17522e-12 0)
(664 -1.09829e-12 0)
(664 -1.00962e-12 0)
(664 -1.03195e-12 0)
(664 -1.0945e-12 0)
(664 -1.09121e-12 0)
(664 -1.13237e-12 0)
(664 -1.17666e-12 0)
(664 -1.1215e-12 0)
(664 -9.6029e-13 0)
(664 -8.20298e-13 0)
(664 -7.2529e-13 0)
(664 -6.60101e-13 0)
(664 -5.92311e-13 0)
(664 -5.82414e-13 0)
(664 -6.62446e-13 0)
(664 -6.24676e-13 0)
(664 -5.17071e-13 0)
(664 -4.74909e-13 0)
(664 -5.52042e-13 0)
(664 -6.53307e-13 0)
(664 -7.28978e-13 0)
(664 -7.96438e-13 0)
(664 -8.4089e-13 0)
(664 -8.70528e-13 0)
(664 -8.91476e-13 0)
(664 -7.74487e-13 0)
(664 -6.41092e-13 0)
(664 -6.1053e-13 0)
(664 -6.79376e-13 0)
(664 -8.37634e-13 0)
(664 -1.02322e-12 0)
(664 -1.14967e-12 0)
(664 -1.15817e-12 0)
(664 -1.08987e-12 0)
(664 -1.07167e-12 0)
(664 -1.09616e-12 0)
(664 -1.09512e-12 0)
(664 -1.01458e-12 0)
(664 -8.64924e-13 0)
(664 -7.25038e-13 0)
(664 -6.0671e-13 0)
(664 -5.27242e-13 0)
(664 -4.79573e-13 0)
(664 -5.14417e-13 0)
(664 -6.47628e-13 0)
(664 -7.63069e-13 0)
(664 -8.12759e-13 0)
(664 -9.13051e-13 0)
(664 -1.08138e-12 0)
(664 -1.15672e-12 0)
(664 -1.18808e-12 0)
(664 -1.19062e-12 0)
(664 -1.09184e-12 0)
(664 -9.7301e-13 0)
(664 -8.69846e-13 0)
(664 -7.93385e-13 0)
(664 -7.29201e-13 0)
(664 -6.17368e-13 0)
(664 -5.35824e-13 0)
(664 -5.88917e-13 0)
(664 -7.0555e-13 0)
(664 -7.08847e-13 0)
(664 -7.23001e-13 0)
(664 -7.99017e-13 0)
(664 -8.15245e-13 0)
(664 -9.38539e-13 0)
(664 -1.20626e-12 0)
(664 -1.36975e-12 0)
(664 -1.36324e-12 0)
(664 -1.37764e-12 0)
(664 -1.35402e-12 0)
(664 -1.25066e-12 0)
(664 -1.20277e-12 0)
(664 -1.27362e-12 0)
(664 -1.36825e-12 0)
(664 -1.46028e-12 0)
(664 -1.52274e-12 0)
(664 -1.52897e-12 0)
(664 -1.4004e-12 0)
(664 -1.14389e-12 0)
(664 -8.61898e-13 0)
(664 -7.36829e-13 0)
(664 -6.89849e-13 0)
(664 -5.76822e-13 0)
(664 -4.61075e-13 0)
(664 -4.57195e-13 0)
(664 -5.63288e-13 0)
(664 -6.47481e-13 0)
(664 -7.23079e-13 0)
(664 -8.57021e-13 0)
(664 -9.50168e-13 0)
(664 -1.03234e-12 0)
(664 -1.13989e-12 0)
(664 -1.22435e-12 0)
(664 -1.2761e-12 0)
(664 -1.25118e-12 0)
(664 -1.2201e-12 0)
(664 -1.13526e-12 0)
(664 -9.23623e-13 0)
(664 -6.10617e-13 0)
(664 -3.9743e-13 0)
(664 -4.03323e-13 0)
(664 -5.48044e-13 0)
(664 -7.32539e-13 0)
(664 -9.10709e-13 0)
(664 -1.11621e-12 0)
(664 -1.22899e-12 0)
(664 -1.22382e-12 0)
(664 -1.15583e-12 0)
(664 -1.0754e-12 0)
(664 -9.59202e-13 0)
(664 -8.94856e-13 0)
(664 -8.14795e-13 0)
(664 -7.67471e-13 0)
(664 -8.33055e-13 0)
(664 -1.02085e-12 0)
(664 -1.2638e-12 0)
(664 -1.50219e-12 0)
(664 -1.61274e-12 0)
(664 -1.48433e-12 0)
(664 -1.24817e-12 0)
(664 -1.09614e-12 0)
(664 -9.95378e-13 0)
(664 -9.04435e-13 0)
(664 -8.94079e-13 0)
(664 -9.81372e-13 0)
(664 -1.10697e-12 0)
(664 -1.19457e-12 0)
(664 -1.27912e-12 0)
(664 -1.40635e-12 0)
(664 -1.49797e-12 0)
(664 -1.39109e-12 0)
(664 -1.09986e-12 0)
(664 -8.09432e-13 0)
(664 -6.82045e-13 0)
(664 -5.97787e-13 0)
(664 -5.21042e-13 0)
(664 -5.06311e-13 0)
(664 -5.48452e-13 0)
(664 -5.91981e-13 0)
(664 -5.25429e-13 0)
(664 -4.86335e-13 0)
(664 -6.06808e-13 0)
(664 -7.92265e-13 0)
(664 -8.90095e-13 0)
(664 -8.64555e-13 0)
(664 -7.96697e-13 0)
(664 -8.70931e-13 0)
(664 -9.84014e-13 0)
(664 -9.83655e-13 0)
(664 -8.405e-13 0)
(664 -6.35487e-13 0)
(664 -4.87829e-13 0)
(664 -4.5073e-13 0)
(664 -4.2974e-13 0)
(664 -2.28447e-13 0)
(664 2.10825e-13 0)
(664 8.91438e-13 0)
(664 1.92229e-12 0)
(664 3.57725e-12 0)
(664 6.39223e-12 0)
(664 1.10972e-11 0)
(664 1.91191e-11 0)
(664 3.26829e-11 0)
(664 5.53448e-11 0)
(664 9.29411e-11 0)
(664 1.55301e-10 0)
(664 2.58868e-10 0)
(664 4.31032e-10 0)
(664 7.17495e-10 0)
(664 1.19434e-09 0)
(664 1.98855e-09 0)
(664 3.31237e-09 0)
(664 5.52062e-09 0)
(664 9.20677e-09 0)
(664 1.53646e-08 0)
(664 2.56598e-08 0)
(664 4.28871e-08 0)
(664 7.17394e-08 0)
(664 1.20107e-07 0)
(664 2.01266e-07 0)
(664 3.37589e-07 0)
(664 5.66811e-07 0)
(664 9.52661e-07 0)
(664 1.60291e-06 0)
(664 2.70006e-06 0)
(664 4.55355e-06 0)
(664 7.68887e-06 0)
(664 1.29997e-05 0)
(663.999 2.20082e-05 0)
(663.999 3.73112e-05 0)
(663.999 6.33466e-05 0)
(663.998 0.000107711 0)
(663.996 0.000183431 0)
(663.994 0.000312885 0)
(663.99 0.000534591 0)
(663.983 0.000914968 0)
(663.972 0.00156877 0)
(663.954 0.00269467 0)
(663.924 0.0046373 0)
(663.875 0.0079957 0)
(663.793 0.0138133 0)
(663.659 0.0239118 0)
(663.438 0.0414769 0)
(663.071 0.0720956 0)
(662.465 0.125579 0)
(661.46 0.219224 0)
(659.793 0.383505 0)
(657.029 0.67257 0)
(652.439 1.18184 0)
(644.839 2.08327 0)
(632.275 3.67521 0)
(611.838 6.51174 0)
(579.766 11.4655 0)
(664 1.69143e-14 0)
(664 4.09195e-14 0)
(664 8.26521e-14 0)
(664 8.45921e-14 0)
(664 7.02528e-14 0)
(664 6.23879e-14 0)
(664 1.24894e-13 0)
(664 1.13269e-13 0)
(664 8.51538e-15 0)
(664 -1.72925e-13 0)
(664 -3.16784e-13 0)
(664 -4.35148e-13 0)
(664 -5.4197e-13 0)
(664 -6.00693e-13 0)
(664 -6.25334e-13 0)
(664 -6.25901e-13 0)
(664 -5.84567e-13 0)
(664 -5.9068e-13 0)
(664 -6.16632e-13 0)
(664 -6.96965e-13 0)
(664 -8.05969e-13 0)
(664 -9.45954e-13 0)
(664 -9.86533e-13 0)
(664 -9.60584e-13 0)
(664 -9.12994e-13 0)
(664 -9.17116e-13 0)
(664 -9.3151e-13 0)
(664 -9.49471e-13 0)
(664 -9.81342e-13 0)
(664 -9.72393e-13 0)
(664 -9.05378e-13 0)
(664 -8.82324e-13 0)
(664 -8.46381e-13 0)
(664 -7.45832e-13 0)
(664 -6.94816e-13 0)
(664 -7.03567e-13 0)
(664 -6.6544e-13 0)
(664 -5.07829e-13 0)
(664 -3.90426e-13 0)
(664 -4.00935e-13 0)
(664 -4.43954e-13 0)
(664 -3.94731e-13 0)
(664 -2.57094e-13 0)
(664 -1.7562e-13 0)
(664 -1.98748e-13 0)
(664 -2.42014e-13 0)
(664 -3.38058e-13 0)
(664 -4.38312e-13 0)
(664 -4.96383e-13 0)
(664 -4.86913e-13 0)
(664 -4.22261e-13 0)
(664 -3.49878e-13 0)
(664 -2.99952e-13 0)
(664 -2.75093e-13 0)
(664 -3.10037e-13 0)
(664 -3.67812e-13 0)
(664 -4.27027e-13 0)
(664 -5.83524e-13 0)
(664 -6.9242e-13 0)
(664 -6.43376e-13 0)
(664 -5.13551e-13 0)
(664 -4.34623e-13 0)
(664 -4.54511e-13 0)
(664 -5.13307e-13 0)
(664 -6.02784e-13 0)
(664 -7.04271e-13 0)
(664 -7.64424e-13 0)
(664 -8.08565e-13 0)
(664 -8.65482e-13 0)
(664 -9.30058e-13 0)
(664 -8.8276e-13 0)
(664 -7.76712e-13 0)
(664 -7.74618e-13 0)
(664 -7.80352e-13 0)
(664 -6.89334e-13 0)
(664 -6.07312e-13 0)
(664 -6.52034e-13 0)
(664 -7.33971e-13 0)
(664 -7.48204e-13 0)
(664 -7.89178e-13 0)
(664 -9.11617e-13 0)
(664 -1.00742e-12 0)
(664 -1.05649e-12 0)
(664 -1.12375e-12 0)
(664 -1.20287e-12 0)
(664 -1.28502e-12 0)
(664 -1.33903e-12 0)
(664 -1.32142e-12 0)
(664 -1.30637e-12 0)
(664 -1.31399e-12 0)
(664 -1.326e-12 0)
(664 -1.35087e-12 0)
(664 -1.33599e-12 0)
(664 -1.19353e-12 0)
(664 -9.8046e-13 0)
(664 -8.20156e-13 0)
(664 -7.10838e-13 0)
(664 -6.06881e-13 0)
(664 -5.59778e-13 0)
(664 -6.23307e-13 0)
(664 -8.6892e-13 0)
(664 -1.11353e-12 0)
(664 -1.28101e-12 0)
(664 -1.28522e-12 0)
(664 -1.21763e-12 0)
(664 -1.12075e-12 0)
(664 -1.01277e-12 0)
(664 -1.06484e-12 0)
(664 -1.1555e-12 0)
(664 -1.22535e-12 0)
(664 -1.23219e-12 0)
(664 -1.1274e-12 0)
(664 -1.00979e-12 0)
(664 -1.01448e-12 0)
(664 -1.07811e-12 0)
(664 -1.19274e-12 0)
(664 -1.27574e-12 0)
(664 -1.33703e-12 0)
(664 -1.35104e-12 0)
(664 -1.29251e-12 0)
(664 -1.19908e-12 0)
(664 -1.15936e-12 0)
(664 -1.15147e-12 0)
(664 -1.17655e-12 0)
(664 -1.18897e-12 0)
(664 -1.19066e-12 0)
(664 -1.20454e-12 0)
(664 -1.20746e-12 0)
(664 -1.22829e-12 0)
(664 -1.28919e-12 0)
(664 -1.42489e-12 0)
(664 -1.58591e-12 0)
(664 -1.69757e-12 0)
(664 -1.79367e-12 0)
(664 -1.95916e-12 0)
(664 -2.05392e-12 0)
(664 -2.05638e-12 0)
(664 -2.01345e-12 0)
(664 -1.92131e-12 0)
(664 -1.76956e-12 0)
(664 -1.52846e-12 0)
(664 -1.32062e-12 0)
(664 -1.11727e-12 0)
(664 -8.82319e-13 0)
(664 -6.8637e-13 0)
(664 -5.4955e-13 0)
(664 -4.7411e-13 0)
(664 -5.03475e-13 0)
(664 -6.32697e-13 0)
(664 -7.65704e-13 0)
(664 -8.29839e-13 0)
(664 -9.89329e-13 0)
(664 -1.25738e-12 0)
(664 -1.47371e-12 0)
(664 -1.56666e-12 0)
(664 -1.62931e-12 0)
(664 -1.66327e-12 0)
(664 -1.59776e-12 0)
(664 -1.52181e-12 0)
(664 -1.57297e-12 0)
(664 -1.65616e-12 0)
(664 -1.66564e-12 0)
(664 -1.65969e-12 0)
(664 -1.5606e-12 0)
(664 -1.42805e-12 0)
(664 -1.27221e-12 0)
(664 -1.14923e-12 0)
(664 -1.08755e-12 0)
(664 -9.94858e-13 0)
(664 -8.36035e-13 0)
(664 -6.91492e-13 0)
(664 -7.13191e-13 0)
(664 -8.25334e-13 0)
(664 -9.20579e-13 0)
(664 -9.52077e-13 0)
(664 -9.62781e-13 0)
(664 -9.88504e-13 0)
(664 -1.07014e-12 0)
(664 -1.2145e-12 0)
(664 -1.31729e-12 0)
(664 -1.2935e-12 0)
(664 -1.16729e-12 0)
(664 -1.02952e-12 0)
(664 -9.8682e-13 0)
(664 -9.81668e-13 0)
(664 -9.3868e-13 0)
(664 -1.02452e-12 0)
(664 -1.2472e-12 0)
(664 -1.47685e-12 0)
(664 -1.61259e-12 0)
(664 -1.63124e-12 0)
(664 -1.69429e-12 0)
(664 -1.8105e-12 0)
(664 -1.85831e-12 0)
(664 -1.71107e-12 0)
(664 -1.53056e-12 0)
(664 -1.37163e-12 0)
(664 -1.1469e-12 0)
(664 -9.16282e-13 0)
(664 -7.68397e-13 0)
(664 -6.74151e-13 0)
(664 -6.46726e-13 0)
(664 -7.46701e-13 0)
(664 -8.26809e-13 0)
(664 -7.60376e-13 0)
(664 -6.76762e-13 0)
(664 -7.11192e-13 0)
(664 -7.61877e-13 0)
(664 -7.1717e-13 0)
(664 -6.61845e-13 0)
(664 -6.90988e-13 0)
(664 -8.687e-13 0)
(664 -1.15263e-12 0)
(664 -1.35705e-12 0)
(664 -1.41218e-12 0)
(664 -1.38189e-12 0)
(664 -1.27875e-12 0)
(664 -1.11481e-12 0)
(664 -1.04026e-12 0)
(664 -1.05718e-12 0)
(664 -1.07351e-12 0)
(664 -1.0398e-12 0)
(664 -1.08083e-12 0)
(664 -1.19145e-12 0)
(664 -1.37733e-12 0)
(664 -1.47357e-12 0)
(664 -1.46051e-12 0)
(664 -1.47628e-12 0)
(664 -1.58703e-12 0)
(664 -1.75673e-12 0)
(664 -1.87643e-12 0)
(664 -1.92159e-12 0)
(664 -1.95944e-12 0)
(664 -2.01559e-12 0)
(664 -2.08099e-12 0)
(664 -2.03753e-12 0)
(664 -1.8991e-12 0)
(664 -1.67461e-12 0)
(664 -1.33258e-12 0)
(664 -1.00449e-12 0)
(664 -6.34576e-13 0)
(664 1.41446e-13 0)
(664 1.52586e-12 0)
(664 3.75082e-12 0)
(664 7.12148e-12 0)
(664 1.2313e-11 0)
(664 2.05795e-11 0)
(664 3.41592e-11 0)
(664 5.67074e-11 0)
(664 9.42599e-11 0)
(664 1.5672e-10 0)
(664 2.60348e-10 0)
(664 4.32147e-10 0)
(664 7.16955e-10 0)
(664 1.18918e-09 0)
(664 1.97246e-09 0)
(664 3.27237e-09 0)
(664 5.43082e-09 0)
(664 9.01703e-09 0)
(664 1.49787e-08 0)
(664 2.48944e-08 0)
(664 4.13959e-08 0)
(664 6.8873e-08 0)
(664 1.14653e-07 0)
(664 1.90974e-07 0)
(664 3.18291e-07 0)
(664 5.30821e-07 0)
(664 8.85834e-07 0)
(664 1.47927e-06 0)
(664 2.47196e-06 0)
(664 4.13377e-06 0)
(664 6.91787e-06 0)
(664 1.15859e-05 0)
(664 1.9419e-05 0)
(664 3.25745e-05 0)
(664 5.46881e-05 0)
(663.999 9.18932e-05 0)
(663.999 0.000154547 0)
(663.998 0.000260158 0)
(663.997 0.000438353 0)
(663.995 0.00073932 0)
(663.991 0.00124818 0)
(663.985 0.00210943 0)
(663.976 0.00356872 0)
(663.961 0.00604406 0)
(663.937 0.0102477 0)
(663.898 0.0173946 0)
(663.833 0.0295599 0)
(663.729 0.0502925 0)
(663.559 0.0856683 0)
(663.283 0.146105 0)
(662.835 0.249477 0)
(662.11 0.426514 0)
(660.935 0.730003 0)
(659.039 1.25095 0)
(655.99 2.14521 0)
(651.107 3.68209 0)
(643.382 6.31264 0)
(631.281 10.8116 0)
(613.67 18.3289 0)
(664 -1.77876e-14 0)
(664 -4.71313e-14 0)
(664 -5.47787e-14 0)
(664 -4.49898e-14 0)
(664 -3.399e-14 0)
(664 4.81256e-15 0)
(664 7.20894e-15 0)
(664 -1.31981e-14 0)
(664 2.64013e-14 0)
(664 8.35954e-14 0)
(664 9.71188e-14 0)
(664 5.12562e-14 0)
(664 -3.9788e-14 0)
(664 -3.2641e-14 0)
(664 -4.34009e-15 0)
(664 4.30933e-14 0)
(664 7.71646e-14 0)
(664 -4.69463e-15 0)
(664 -1.61327e-13 0)
(664 -3.29944e-13 0)
(664 -5.28541e-13 0)
(664 -7.19253e-13 0)
(664 -8.79709e-13 0)
(664 -9.18248e-13 0)
(664 -8.71264e-13 0)
(664 -8.2504e-13 0)
(664 -8.64501e-13 0)
(664 -9.28425e-13 0)
(664 -9.38354e-13 0)
(664 -8.74933e-13 0)
(664 -7.13566e-13 0)
(664 -5.48598e-13 0)
(664 -4.48772e-13 0)
(664 -3.72954e-13 0)
(664 -3.04797e-13 0)
(664 -3.04892e-13 0)
(664 -4.08447e-13 0)
(664 -5.34906e-13 0)
(664 -6.099e-13 0)
(664 -6.17377e-13 0)
(664 -6.12633e-13 0)
(664 -6.43172e-13 0)
(664 -6.30466e-13 0)
(664 -5.39285e-13 0)
(664 -4.67929e-13 0)
(664 -3.8085e-13 0)
(664 -3.32173e-13 0)
(664 -3.26808e-13 0)
(664 -4.6541e-13 0)
(664 -7.12698e-13 0)
(664 -8.85158e-13 0)
(664 -9.54997e-13 0)
(664 -9.46601e-13 0)
(664 -9.67221e-13 0)
(664 -9.90112e-13 0)
(664 -9.88099e-13 0)
(664 -9.523e-13 0)
(664 -8.6488e-13 0)
(664 -7.6626e-13 0)
(664 -7.24072e-13 0)
(664 -7.09571e-13 0)
(664 -6.51091e-13 0)
(664 -5.46737e-13 0)
(664 -4.91458e-13 0)
(664 -5.08633e-13 0)
(664 -5.67867e-13 0)
(664 -5.85912e-13 0)
(664 -5.80557e-13 0)
(664 -6.80735e-13 0)
(664 -8.92013e-13 0)
(664 -1.06736e-12 0)
(664 -1.13129e-12 0)
(664 -1.11056e-12 0)
(664 -1.02618e-12 0)
(664 -8.83574e-13 0)
(664 -7.5939e-13 0)
(664 -7.26625e-13 0)
(664 -6.75729e-13 0)
(664 -6.73561e-13 0)
(664 -7.06751e-13 0)
(664 -7.39784e-13 0)
(664 -7.45755e-13 0)
(664 -7.86488e-13 0)
(664 -8.56413e-13 0)
(664 -8.95338e-13 0)
(664 -9.55164e-13 0)
(664 -1.03501e-12 0)
(664 -1.1164e-12 0)
(664 -1.08038e-12 0)
(664 -9.99337e-13 0)
(664 -9.45377e-13 0)
(664 -8.37493e-13 0)
(664 -7.19892e-13 0)
(664 -6.13694e-13 0)
(664 -6.49821e-13 0)
(664 -7.2016e-13 0)
(664 -6.8922e-13 0)
(664 -6.44136e-13 0)
(664 -6.03552e-13 0)
(664 -6.22922e-13 0)
(664 -6.45266e-13 0)
(664 -7.0827e-13 0)
(664 -8.07559e-13 0)
(664 -8.76245e-13 0)
(664 -9.60636e-13 0)
(664 -1.06549e-12 0)
(664 -1.13578e-12 0)
(664 -1.13302e-12 0)
(664 -1.08311e-12 0)
(664 -9.90305e-13 0)
(664 -9.45906e-13 0)
(664 -1.00698e-12 0)
(664 -1.13261e-12 0)
(664 -1.21795e-12 0)
(664 -1.18068e-12 0)
(664 -1.02726e-12 0)
(664 -8.33264e-13 0)
(664 -6.59507e-13 0)
(664 -5.14718e-13 0)
(664 -4.33276e-13 0)
(664 -4.09786e-13 0)
(664 -4.20819e-13 0)
(664 -4.80776e-13 0)
(664 -6.1492e-13 0)
(664 -8.08522e-13 0)
(664 -9.75988e-13 0)
(664 -1.13385e-12 0)
(664 -1.24225e-12 0)
(664 -1.35806e-12 0)
(664 -1.39841e-12 0)
(664 -1.39998e-12 0)
(664 -1.35975e-12 0)
(664 -1.26986e-12 0)
(664 -1.17734e-12 0)
(664 -1.03052e-12 0)
(664 -9.36985e-13 0)
(664 -9.02822e-13 0)
(664 -8.61326e-13 0)
(664 -8.69679e-13 0)
(664 -9.64406e-13 0)
(664 -1.0845e-12 0)
(664 -1.05653e-12 0)
(664 -9.46449e-13 0)
(664 -8.82695e-13 0)
(664 -8.67054e-13 0)
(664 -7.93823e-13 0)
(664 -7.41876e-13 0)
(664 -8.76433e-13 0)
(664 -1.02293e-12 0)
(664 -1.05185e-12 0)
(664 -1.05792e-12 0)
(664 -1.06228e-12 0)
(664 -1.01925e-12 0)
(664 -1.05452e-12 0)
(664 -1.16473e-12 0)
(664 -1.16393e-12 0)
(664 -1.12123e-12 0)
(664 -1.09051e-12 0)
(664 -1.01686e-12 0)
(664 -8.24227e-13 0)
(664 -5.90526e-13 0)
(664 -4.24141e-13 0)
(664 -3.78057e-13 0)
(664 -3.97331e-13 0)
(664 -5.14062e-13 0)
(664 -7.36675e-13 0)
(664 -1.07764e-12 0)
(664 -1.331e-12 0)
(664 -1.41568e-12 0)
(664 -1.44595e-12 0)
(664 -1.49856e-12 0)
(664 -1.47546e-12 0)
(664 -1.37814e-12 0)
(664 -1.29432e-12 0)
(664 -1.25833e-12 0)
(664 -1.17103e-12 0)
(664 -1.11096e-12 0)
(664 -1.14113e-12 0)
(664 -1.18049e-12 0)
(664 -1.20715e-12 0)
(664 -1.19717e-12 0)
(664 -1.21692e-12 0)
(664 -1.19502e-12 0)
(664 -1.12564e-12 0)
(664 -1.17031e-12 0)
(664 -1.393e-12 0)
(664 -1.64866e-12 0)
(664 -1.80734e-12 0)
(664 -1.8281e-12 0)
(664 -1.7397e-12 0)
(664 -1.5943e-12 0)
(664 -1.43101e-12 0)
(664 -1.35306e-12 0)
(664 -1.38088e-12 0)
(664 -1.45531e-12 0)
(664 -1.47488e-12 0)
(664 -1.43969e-12 0)
(664 -1.36902e-12 0)
(664 -1.30459e-12 0)
(664 -1.22512e-12 0)
(664 -1.12869e-12 0)
(664 -1.01093e-12 0)
(664 -9.04534e-13 0)
(664 -8.08128e-13 0)
(664 -7.29138e-13 0)
(664 -7.27361e-13 0)
(664 -8.1051e-13 0)
(664 -8.27729e-13 0)
(664 -8.27807e-13 0)
(664 -8.26921e-13 0)
(664 -7.96652e-13 0)
(664 -6.7404e-13 0)
(664 -5.43293e-13 0)
(664 -4.66667e-13 0)
(664 -3.8178e-13 0)
(664 -2.48788e-13 0)
(664 -1.07712e-13 0)
(664 -1.157e-13 0)
(664 -2.46903e-13 0)
(664 -4.9304e-13 0)
(664 -6.04084e-13 0)
(664 -6.1887e-13 0)
(664 -5.99432e-13 0)
(664 -4.85077e-13 0)
(664 -3.37924e-13 0)
(664 -1.95244e-13 0)
(664 -2.24875e-13 0)
(664 -2.90087e-13 0)
(664 -2.56399e-13 0)
(664 -1.72246e-13 0)
(664 -1.7025e-13 0)
(664 -2.93641e-13 0)
(664 -4.83351e-13 0)
(664 -5.71626e-13 0)
(664 -5.82528e-13 0)
(664 -6.1663e-13 0)
(664 -6.97542e-13 0)
(664 -7.40367e-13 0)
(664 -6.36819e-13 0)
(664 -3.43129e-13 0)
(664 2.22528e-13 0)
(664 1.19623e-12 0)
(664 2.8501e-12 0)
(664 5.61088e-12 0)
(664 1.0188e-11 0)
(664 1.7666e-11 0)
(664 2.98708e-11 0)
(664 4.99316e-11 0)
(664 8.28821e-11 0)
(664 1.37093e-10 0)
(664 2.26594e-10 0)
(664 3.74506e-10 0)
(664 6.18749e-10 0)
(664 1.02197e-09 0)
(664 1.68796e-09 0)
(664 2.78824e-09 0)
(664 4.60639e-09 0)
(664 7.61169e-09 0)
(664 1.25807e-08 0)
(664 2.07986e-08 0)
(664 3.43939e-08 0)
(664 5.68914e-08 0)
(664 9.41308e-08 0)
(664 1.5579e-07 0)
(664 2.5791e-07 0)
(664 4.27091e-07 0)
(664 7.07453e-07 0)
(664 1.17219e-06 0)
(664 1.94277e-06 0)
(664 3.22081e-06 0)
(664 5.34109e-06 0)
(664 8.85957e-06 0)
(664 1.46998e-05 0)
(664 2.43961e-05 0)
(664 4.04984e-05 0)
(664 6.72446e-05 0)
(663.999 0.00011168 0)
(663.999 0.000185515 0)
(663.998 0.000308224 0)
(663.997 0.000512182 0)
(663.996 0.000851222 0)
(663.993 0.00141484 0)
(663.989 0.00235184 0)
(663.982 0.00390951 0)
(663.971 0.0064988 0)
(663.952 0.0108024 0)
(663.923 0.0179536 0)
(663.876 0.0298334 0)
(663.801 0.0495608 0)
(663.679 0.0823031 0)
(663.484 0.136611 0)
(663.172 0.226617 0)
(662.671 0.375626 0)
(661.873 0.621992 0)
(660.601 1.02856 0)
(658.585 1.69797 0)
(655.399 2.79586 0)
(650.422 4.58781 0)
(642.684 7.48193 0)
(631.426 12.0976 0)
(664 -1.36402e-14 0)
(664 -3.00692e-14 0)
(664 -4.97829e-14 0)
(664 -7.94318e-14 0)
(664 -9.89976e-14 0)
(664 -1.40461e-13 0)
(664 -2.32614e-13 0)
(664 -2.69149e-13 0)
(664 -2.65073e-13 0)
(664 -2.34264e-13 0)
(664 -1.99539e-13 0)
(664 -1.11704e-13 0)
(664 -1.5902e-14 0)
(664 -5.80657e-14 0)
(664 -1.64873e-13 0)
(664 -1.91587e-13 0)
(664 -1.73748e-13 0)
(664 -1.11497e-13 0)
(664 -9.66562e-14 0)
(664 -1.99323e-13 0)
(664 -3.60084e-13 0)
(664 -4.42602e-13 0)
(664 -4.85664e-13 0)
(664 -5.23429e-13 0)
(664 -5.52994e-13 0)
(664 -5.34796e-13 0)
(664 -5.10208e-13 0)
(664 -5.09557e-13 0)
(664 -4.98866e-13 0)
(664 -5.10289e-13 0)
(664 -5.48825e-13 0)
(664 -5.69915e-13 0)
(664 -5.58906e-13 0)
(664 -4.93242e-13 0)
(664 -3.70927e-13 0)
(664 -2.65041e-13 0)
(664 -2.42816e-13 0)
(664 -3.19964e-13 0)
(664 -3.8907e-13 0)
(664 -3.47243e-13 0)
(664 -2.52269e-13 0)
(664 -2.18077e-13 0)
(664 -2.56688e-13 0)
(664 -2.36923e-13 0)
(664 -2.31188e-13 0)
(664 -3.08195e-13 0)
(664 -3.56606e-13 0)
(664 -3.9181e-13 0)
(664 -3.91939e-13 0)
(664 -3.74953e-13 0)
(664 -3.6458e-13 0)
(664 -3.4347e-13 0)
(664 -3.82399e-13 0)
(664 -4.25276e-13 0)
(664 -4.39938e-13 0)
(664 -4.6084e-13 0)
(664 -5.13995e-13 0)
(664 -5.08458e-13 0)
(664 -4.72218e-13 0)
(664 -5.10339e-13 0)
(664 -6.02986e-13 0)
(664 -6.69988e-13 0)
(664 -6.77037e-13 0)
(664 -6.58364e-13 0)
(664 -6.03766e-13 0)
(664 -5.39153e-13 0)
(664 -5.50183e-13 0)
(664 -6.43236e-13 0)
(664 -7.07395e-13 0)
(664 -7.86849e-13 0)
(664 -8.7219e-13 0)
(664 -9.51109e-13 0)
(664 -9.33249e-13 0)
(664 -8.76114e-13 0)
(664 -8.72981e-13 0)
(664 -8.15951e-13 0)
(664 -6.12891e-13 0)
(664 -4.0329e-13 0)
(664 -2.87885e-13 0)
(664 -2.27527e-13 0)
(664 -2.3309e-13 0)
(664 -2.55446e-13 0)
(664 -3.16502e-13 0)
(664 -4.00248e-13 0)
(664 -4.26469e-13 0)
(664 -4.74057e-13 0)
(664 -5.84307e-13 0)
(664 -7.08424e-13 0)
(664 -8.50424e-13 0)
(664 -9.25205e-13 0)
(664 -8.94926e-13 0)
(664 -8.51603e-13 0)
(664 -8.60829e-13 0)
(664 -9.0285e-13 0)
(664 -9.46552e-13 0)
(664 -1.01958e-12 0)
(664 -1.24053e-12 0)
(664 -1.45741e-12 0)
(664 -1.57691e-12 0)
(664 -1.6043e-12 0)
(664 -1.5019e-12 0)
(664 -1.25425e-12 0)
(664 -9.90614e-13 0)
(664 -9.37289e-13 0)
(664 -1.06055e-12 0)
(664 -1.26304e-12 0)
(664 -1.39596e-12 0)
(664 -1.33191e-12 0)
(664 -1.2218e-12 0)
(664 -1.17196e-12 0)
(664 -1.15669e-12 0)
(664 -1.12852e-12 0)
(664 -1.10408e-12 0)
(664 -1.06618e-12 0)
(664 -1.10995e-12 0)
(664 -1.2181e-12 0)
(664 -1.40901e-12 0)
(664 -1.53043e-12 0)
(664 -1.6044e-12 0)
(664 -1.65531e-12 0)
(664 -1.60322e-12 0)
(664 -1.48012e-12 0)
(664 -1.34192e-12 0)
(664 -1.23057e-12 0)
(664 -1.19181e-12 0)
(664 -1.22657e-12 0)
(664 -1.30181e-12 0)
(664 -1.34778e-12 0)
(664 -1.33132e-12 0)
(664 -1.28806e-12 0)
(664 -1.14992e-12 0)
(664 -9.84046e-13 0)
(664 -8.97491e-13 0)
(664 -8.70093e-13 0)
(664 -8.42494e-13 0)
(664 -8.23705e-13 0)
(664 -8.40881e-13 0)
(664 -8.68614e-13 0)
(664 -9.02845e-13 0)
(664 -9.24591e-13 0)
(664 -9.57416e-13 0)
(664 -9.40854e-13 0)
(664 -9.07029e-13 0)
(664 -9.00985e-13 0)
(664 -9.81747e-13 0)
(664 -1.13832e-12 0)
(664 -1.27177e-12 0)
(664 -1.33247e-12 0)
(664 -1.3358e-12 0)
(664 -1.35529e-12 0)
(664 -1.38419e-12 0)
(664 -1.31483e-12 0)
(664 -1.23152e-12 0)
(664 -1.22273e-12 0)
(664 -1.24915e-12 0)
(664 -1.19635e-12 0)
(664 -1.0605e-12 0)
(664 -1.02054e-12 0)
(664 -1.08881e-12 0)
(664 -1.13598e-12 0)
(664 -1.17585e-12 0)
(664 -1.26382e-12 0)
(664 -1.32918e-12 0)
(664 -1.34523e-12 0)
(664 -1.23396e-12 0)
(664 -1.08352e-12 0)
(664 -9.70387e-13 0)
(664 -9.04067e-13 0)
(664 -8.99973e-13 0)
(664 -9.58636e-13 0)
(664 -9.72304e-13 0)
(664 -9.10852e-13 0)
(664 -8.55114e-13 0)
(664 -9.63461e-13 0)
(664 -1.07936e-12 0)
(664 -1.14602e-12 0)
(664 -1.15291e-12 0)
(664 -1.10937e-12 0)
(664 -1.04544e-12 0)
(664 -9.18409e-13 0)
(664 -8.28277e-13 0)
(664 -9.1909e-13 0)
(664 -1.09563e-12 0)
(664 -1.21772e-12 0)
(664 -1.21078e-12 0)
(664 -1.15318e-12 0)
(664 -1.05232e-12 0)
(664 -9.3001e-13 0)
(664 -8.95219e-13 0)
(664 -8.87263e-13 0)
(664 -8.96868e-13 0)
(664 -9.42175e-13 0)
(664 -9.35525e-13 0)
(664 -8.72319e-13 0)
(664 -9.59444e-13 0)
(664 -1.13757e-12 0)
(664 -1.30484e-12 0)
(664 -1.48123e-12 0)
(664 -1.65631e-12 0)
(664 -1.73962e-12 0)
(664 -1.79839e-12 0)
(664 -1.80951e-12 0)
(664 -1.69733e-12 0)
(664 -1.48186e-12 0)
(664 -1.33479e-12 0)
(664 -1.14284e-12 0)
(664 -8.69995e-13 0)
(664 -7.51826e-13 0)
(664 -8.24439e-13 0)
(664 -9.10203e-13 0)
(664 -8.90472e-13 0)
(664 -8.45562e-13 0)
(664 -7.92611e-13 0)
(664 -8.46464e-13 0)
(664 -1.06307e-12 0)
(664 -1.31162e-12 0)
(664 -1.53872e-12 0)
(664 -1.61031e-12 0)
(664 -1.50939e-12 0)
(664 -1.3893e-12 0)
(664 -1.43907e-12 0)
(664 -1.56031e-12 0)
(664 -1.55535e-12 0)
(664 -1.47469e-12 0)
(664 -1.37579e-12 0)
(664 -1.41724e-12 0)
(664 -1.5505e-12 0)
(664 -1.75188e-12 0)
(664 -1.88135e-12 0)
(664 -1.86108e-12 0)
(664 -1.745e-12 0)
(664 -1.65937e-12 0)
(664 -1.57253e-12 0)
(664 -1.49836e-12 0)
(664 -1.37132e-12 0)
(664 -1.16872e-12 0)
(664 -9.36757e-13 0)
(664 -6.51915e-13 0)
(664 -3.62811e-13 0)
(664 7.49236e-14 0)
(664 8.59939e-13 0)
(664 2.05993e-12 0)
(664 3.94666e-12 0)
(664 6.99732e-12 0)
(664 1.20743e-11 0)
(664 2.05789e-11 0)
(664 3.46002e-11 0)
(664 5.75918e-11 0)
(664 9.53421e-11 0)
(664 1.57329e-10 0)
(664 2.59069e-10 0)
(664 4.26174e-10 0)
(664 7.00736e-10 0)
(664 1.15199e-09 0)
(664 1.89391e-09 0)
(664 3.11377e-09 0)
(664 5.11963e-09 0)
(664 8.41815e-09 0)
(664 1.38426e-08 0)
(664 2.27635e-08 0)
(664 3.74361e-08 0)
(664 6.15699e-08 0)
(664 1.01269e-07 0)
(664 1.66573e-07 0)
(664 2.74005e-07 0)
(664 4.50743e-07 0)
(664 7.41505e-07 0)
(664 1.21986e-06 0)
(664 2.00681e-06 0)
(664 3.30143e-06 0)
(664 5.4311e-06 0)
(664 8.93424e-06 0)
(664 1.46961e-05 0)
(664 2.4172e-05 0)
(664 3.97539e-05 0)
(664 6.53721e-05 0)
(664 0.000107483 0)
(663.999 0.000176687 0)
(663.999 0.000290387 0)
(663.998 0.000477132 0)
(663.997 0.000783742 0)
(663.995 0.00128695 0)
(663.992 0.00211242 0)
(663.987 0.00346583 0)
(663.979 0.00568352 0)
(663.966 0.00931494 0)
(663.946 0.0152568 0)
(663.913 0.0249708 0)
(663.861 0.0408361 0)
(663.778 0.0667196 0)
(663.647 0.108894 0)
(663.438 0.177513 0)
(663.106 0.28897 0)
(662.581 0.469653 0)
(661.751 0.761815 0)
(660.445 1.2329 0)
(658.393 1.98906 0)
(655.198 3.19725 0)
(650.221 5.1075 0)
(642.917 8.10372 0)
(664 2.65067e-14 0)
(664 5.34841e-14 0)
(664 7.51903e-14 0)
(664 9.0097e-14 0)
(664 1.28737e-13 0)
(664 1.10377e-13 0)
(664 1.17363e-13 0)
(664 7.46522e-14 0)
(664 2.89044e-14 0)
(664 8.85682e-15 0)
(664 -2.1402e-14 0)
(664 -9.2948e-14 0)
(664 -1.05821e-13 0)
(664 -1.04868e-13 0)
(664 -8.94618e-14 0)
(664 -5.22964e-14 0)
(664 4.2448e-15 0)
(664 5.00981e-14 0)
(664 5.85955e-14 0)
(664 -2.49259e-15 0)
(664 -1.25488e-13 0)
(664 -2.65368e-13 0)
(664 -3.01314e-13 0)
(664 -2.87647e-13 0)
(664 -2.26508e-13 0)
(664 -1.30469e-13 0)
(664 -5.16372e-15 0)
(664 1.1394e-13 0)
(664 6.18259e-14 0)
(664 -1.53333e-13 0)
(664 -3.59298e-13 0)
(664 -5.31343e-13 0)
(664 -6.86454e-13 0)
(664 -8.23152e-13 0)
(664 -9.17026e-13 0)
(664 -9.38661e-13 0)
(664 -8.53219e-13 0)
(664 -6.5573e-13 0)
(664 -4.64553e-13 0)
(664 -3.504e-13 0)
(664 -3.07862e-13 0)
(664 -2.1852e-13 0)
(664 -7.38695e-14 0)
(664 3.40926e-14 0)
(664 -2.17634e-14 0)
(664 -1.94045e-13 0)
(664 -3.84186e-13 0)
(664 -5.00098e-13 0)
(664 -5.09143e-13 0)
(664 -3.93759e-13 0)
(664 -2.75125e-13 0)
(664 -2.67654e-13 0)
(664 -2.51908e-13 0)
(664 -1.77269e-13 0)
(664 -1.63937e-13 0)
(664 -2.17408e-13 0)
(664 -3.30509e-13 0)
(664 -4.85218e-13 0)
(664 -6.38291e-13 0)
(664 -7.28646e-13 0)
(664 -7.99391e-13 0)
(664 -8.42418e-13 0)
(664 -8.94531e-13 0)
(664 -9.2268e-13 0)
(664 -9.88264e-13 0)
(664 -1.06674e-12 0)
(664 -1.12015e-12 0)
(664 -1.10682e-12 0)
(664 -1.04212e-12 0)
(664 -9.71291e-13 0)
(664 -8.82292e-13 0)
(664 -7.02336e-13 0)
(664 -5.40103e-13 0)
(664 -3.73425e-13 0)
(664 -1.95789e-13 0)
(664 -1.04107e-13 0)
(664 -6.06459e-14 0)
(664 -6.92945e-14 0)
(664 -7.28312e-14 0)
(664 -8.00376e-14 0)
(664 -9.01682e-14 0)
(664 -8.51784e-14 0)
(664 -8.72553e-14 0)
(664 -1.38616e-13 0)
(664 -2.29788e-13 0)
(664 -3.61695e-13 0)
(664 -4.62585e-13 0)
(664 -5.64302e-13 0)
(664 -6.8506e-13 0)
(664 -6.95669e-13 0)
(664 -6.82984e-13 0)
(664 -7.31604e-13 0)
(664 -8.6096e-13 0)
(664 -9.57402e-13 0)
(664 -9.64358e-13 0)
(664 -9.41664e-13 0)
(664 -9.71756e-13 0)
(664 -1.00084e-12 0)
(664 -9.61772e-13 0)
(664 -9.0429e-13 0)
(664 -9.61193e-13 0)
(664 -1.13481e-12 0)
(664 -1.26227e-12 0)
(664 -1.26231e-12 0)
(664 -1.22383e-12 0)
(664 -1.1437e-12 0)
(664 -1.08401e-12 0)
(664 -1.04797e-12 0)
(664 -9.85087e-13 0)
(664 -8.92999e-13 0)
(664 -7.71587e-13 0)
(664 -6.8153e-13 0)
(664 -5.54055e-13 0)
(664 -4.27014e-13 0)
(664 -4.16111e-13 0)
(664 -4.73882e-13 0)
(664 -5.34894e-13 0)
(664 -6.0485e-13 0)
(664 -7.27033e-13 0)
(664 -8.98126e-13 0)
(664 -1.04169e-12 0)
(664 -1.14409e-12 0)
(664 -1.21576e-12 0)
(664 -1.26176e-12 0)
(664 -1.29425e-12 0)
(664 -1.25399e-12 0)
(664 -1.11542e-12 0)
(664 -1.02368e-12 0)
(664 -1.00043e-12 0)
(664 -9.76842e-13 0)
(664 -9.39572e-13 0)
(664 -9.59402e-13 0)
(664 -1.1204e-12 0)
(664 -1.28868e-12 0)
(664 -1.47372e-12 0)
(664 -1.64007e-12 0)
(664 -1.73177e-12 0)
(664 -1.75304e-12 0)
(664 -1.72319e-12 0)
(664 -1.61495e-12 0)
(664 -1.50377e-12 0)
(664 -1.44983e-12 0)
(664 -1.45334e-12 0)
(664 -1.41325e-12 0)
(664 -1.31008e-12 0)
(664 -1.1861e-12 0)
(664 -1.0951e-12 0)
(664 -1.06232e-12 0)
(664 -1.09297e-12 0)
(664 -1.18968e-12 0)
(664 -1.26289e-12 0)
(664 -1.1884e-12 0)
(664 -1.11612e-12 0)
(664 -1.0662e-12 0)
(664 -1.0169e-12 0)
(664 -9.78177e-13 0)
(664 -1.00932e-12 0)
(664 -1.10368e-12 0)
(664 -1.24062e-12 0)
(664 -1.45137e-12 0)
(664 -1.63033e-12 0)
(664 -1.68341e-12 0)
(664 -1.62833e-12 0)
(664 -1.4913e-12 0)
(664 -1.30965e-12 0)
(664 -1.08903e-12 0)
(664 -8.70333e-13 0)
(664 -7.4392e-13 0)
(664 -7.62483e-13 0)
(664 -8.86988e-13 0)
(664 -1.0282e-12 0)
(664 -1.06154e-12 0)
(664 -1.0869e-12 0)
(664 -1.14472e-12 0)
(664 -1.19046e-12 0)
(664 -1.23212e-12 0)
(664 -1.28298e-12 0)
(664 -1.26823e-12 0)
(664 -1.26605e-12 0)
(664 -1.36379e-12 0)
(664 -1.46926e-12 0)
(664 -1.48359e-12 0)
(664 -1.46299e-12 0)
(664 -1.40226e-12 0)
(664 -1.32931e-12 0)
(664 -1.2166e-12 0)
(664 -1.10388e-12 0)
(664 -1.09358e-12 0)
(664 -1.13549e-12 0)
(664 -1.13214e-12 0)
(664 -1.06816e-12 0)
(664 -9.64913e-13 0)
(664 -9.2222e-13 0)
(664 -9.41025e-13 0)
(664 -9.53012e-13 0)
(664 -8.25917e-13 0)
(664 -6.09184e-13 0)