/*--------------------------------*- C++ -*----------------------------------*\
| =========                 |                                                 |
| \\      /  F ield         | OpenFOAM: The Open Source CFD Toolbox           |
|  \\    /   O peration     | Version:  2412                                  |
|   \\  /    A nd           | Website:  www.openfoam.com                      |
|    \\/     M anipulation  |                                                 |
\*---------------------------------------------------------------------------*/
FoamFile
{
    version     2.0;
    format      ascii;
    arch        "LSB;label=32;scalar=64";
    class       volVectorField;
    location    "0.004";
    object      U_0;
}
// * * * * * * * * * * * * * * * * * * * * * * * * * * * * * * * * * * * * * //

dimensions      [0 1 -1 0 0 0 0];

internalField   nonuniform List<vector> 
180000
(
(664 1.501e-14 0)
(664 2.18536e-14 0)
(664 2.91051e-14 0)
(664 3.00574e-14 0)
(664 9.41121e-15 0)
(664 -2.01676e-16 0)
(664 -2.03989e-14 0)
(664 -1.17272e-13 0)
(664 -2.34331e-13 0)
(664 -3.17264e-13 0)
(664 -2.8011e-13 0)
(664 -2.43985e-13 0)
(664 -2.71958e-13 0)
(664 -3.50495e-13 0)
(664 -4.37372e-13 0)
(664 -4.95661e-13 0)
(664 -5.09632e-13 0)
(664 -4.73803e-13 0)
(664 -4.76192e-13 0)
(664 -5.10536e-13 0)
(664 -5.1184e-13 0)
(664 -4.61815e-13 0)
(664 -4.19108e-13 0)
(664 -4.43136e-13 0)
(664 -5.39119e-13 0)
(664 -5.76586e-13 0)
(664 -5.47689e-13 0)
(664 -4.85071e-13 0)
(664 -4.21462e-13 0)
(664 -3.88054e-13 0)
(664 -4.01189e-13 0)
(664 -4.3863e-13 0)
(664 -4.94865e-13 0)
(664 -4.83406e-13 0)
(664 -4.82155e-13 0)
(664 -4.62822e-13 0)
(664 -5.06079e-13 0)
(664 -5.33633e-13 0)
(664 -5.96355e-13 0)
(664 -6.26373e-13 0)
(664 -5.92087e-13 0)
(664 -5.83631e-13 0)
(664 -6.55696e-13 0)
(664 -7.35925e-13 0)
(664 -8.24111e-13 0)
(664 -9.65248e-13 0)
(664 -1.10438e-12 0)
(664 -1.13842e-12 0)
(664 -1.05614e-12 0)
(664 -9.49132e-13 0)
(664 -8.76058e-13 0)
(664 -7.71746e-13 0)
(664 -6.38392e-13 0)
(664 -4.67742e-13 0)
(664 -3.84813e-13 0)
(664 -4.31962e-13 0)
(664 -5.94115e-13 0)
(664 -7.79662e-13 0)
(664 -8.42117e-13 0)
(664 -7.84355e-13 0)
(664 -7.21036e-13 0)
(664 -7.70896e-13 0)
(664 -8.56088e-13 0)
(664 -8.71709e-13 0)
(664 -7.9541e-13 0)
(664 -7.79223e-13 0)
(664 -8.59329e-13 0)
(664 -9.17539e-13 0)
(664 -9.07724e-13 0)
(664 -8.36885e-13 0)
(664 -8.21222e-13 0)
(664 -9.36564e-13 0)
(664 -1.1308e-12 0)
(664 -1.29358e-12 0)
(664 -1.36964e-12 0)
(664 -1.38151e-12 0)
(664 -1.40017e-12 0)
(664 -1.38625e-12 0)
(664 -1.40687e-12 0)
(664 -1.39877e-12 0)
(664 -1.36209e-12 0)
(664 -1.34118e-12 0)
(664 -1.3101e-12 0)
(664 -1.24317e-12 0)
(664 -1.19309e-12 0)
(664 -1.11252e-12 0)
(664 -1.01415e-12 0)
(664 -1.00428e-12 0)
(664 -1.05634e-12 0)
(664 -1.06105e-12 0)
(664 -1.10794e-12 0)
(664 -1.16716e-12 0)
(664 -1.15991e-12 0)
(664 -1.02461e-12 0)
(664 -8.71455e-13 0)
(664 -7.6876e-13 0)
(664 -6.7776e-13 0)
(664 -5.89477e-13 0)
(664 -5.66491e-13 0)
(664 -6.48649e-13 0)
(664 -6.45322e-13 0)
(664 -5.47788e-13 0)
(664 -4.90587e-13 0)
(664 -5.1806e-13 0)
(664 -6.02358e-13 0)
(664 -6.69116e-13 0)
(664 -7.40983e-13 0)
(664 -8.23861e-13 0)
(664 -8.81182e-13 0)
(664 -8.9666e-13 0)
(664 -8.09307e-13 0)
(664 -6.60285e-13 0)
(664 -5.86848e-13 0)
(664 -6.36479e-13 0)
(664 -7.81554e-13 0)
(664 -9.60626e-13 0)
(664 -1.13329e-12 0)
(664 -1.17122e-12 0)
(664 -1.1277e-12 0)
(664 -1.09052e-12 0)
(664 -1.1164e-12 0)
(664 -1.10072e-12 0)
(664 -1.03398e-12 0)
(664 -8.9849e-13 0)
(664 -7.56618e-13 0)
(664 -6.31451e-13 0)
(664 -5.46579e-13 0)
(664 -4.58971e-13 0)
(664 -4.6446e-13 0)
(664 -5.95031e-13 0)
(664 -7.30151e-13 0)
(664 -7.71369e-13 0)
(664 -8.62997e-13 0)
(664 -1.04272e-12 0)
(664 -1.16969e-12 0)
(664 -1.22304e-12 0)
(664 -1.22742e-12 0)
(664 -1.15698e-12 0)
(664 -1.03223e-12 0)
(664 -9.2178e-13 0)
(664 -8.18551e-13 0)
(664 -7.48441e-13 0)
(664 -6.2319e-13 0)
(664 -5.42355e-13 0)
(664 -5.67368e-13 0)
(664 -6.85796e-13 0)
(664 -7.17772e-13 0)
(664 -7.07753e-13 0)
(664 -7.6746e-13 0)
(664 -7.98501e-13 0)
(664 -8.83377e-13 0)
(664 -1.14022e-12 0)
(664 -1.33963e-12 0)
(664 -1.3571e-12 0)
(664 -1.34989e-12 0)
(664 -1.35205e-12 0)
(664 -1.25027e-12 0)
(664 -1.16703e-12 0)
(664 -1.21617e-12 0)
(664 -1.33688e-12 0)
(664 -1.44366e-12 0)
(664 -1.52474e-12 0)
(664 -1.54819e-12 0)
(664 -1.43253e-12 0)
(664 -1.18727e-12 0)
(664 -9.04571e-13 0)
(664 -7.31517e-13 0)
(664 -6.85237e-13 0)
(664 -5.90886e-13 0)
(664 -4.54577e-13 0)
(664 -4.35271e-13 0)
(664 -5.50384e-13 0)
(664 -6.39398e-13 0)
(664 -6.94402e-13 0)
(664 -8.1609e-13 0)
(664 -9.42393e-13 0)
(664 -1.02225e-12 0)
(664 -1.11682e-12 0)
(664 -1.1943e-12 0)
(664 -1.26793e-12 0)
(664 -1.26937e-12 0)
(664 -1.21942e-12 0)
(664 -1.15581e-12 0)
(664 -9.90723e-13 0)
(664 -7.05077e-13 0)
(664 -4.61393e-13 0)
(664 -4.22319e-13 0)
(664 -5.41154e-13 0)
(664 -7.00954e-13 0)
(664 -8.72075e-13 0)
(664 -1.07829e-12 0)
(664 -1.20586e-12 0)
(664 -1.22812e-12 0)
(664 -1.16649e-12 0)
(664 -1.08724e-12 0)
(664 -9.87281e-13 0)
(664 -8.93176e-13 0)
(664 -8.29657e-13 0)
(664 -7.71974e-13 0)
(664 -8.10293e-13 0)
(664 -9.76609e-13 0)
(664 -1.22211e-12 0)
(664 -1.44212e-12 0)
(664 -1.59607e-12 0)
(664 -1.53176e-12 0)
(664 -1.30367e-12 0)
(664 -1.12964e-12 0)
(664 -1.00603e-12 0)
(664 -8.93809e-13 0)
(664 -8.33783e-13 0)
(664 -9.1403e-13 0)
(664 -1.04386e-12 0)
(664 -1.15682e-12 0)
(664 -1.2346e-12 0)
(664 -1.34784e-12 0)
(664 -1.46427e-12 0)
(664 -1.41135e-12 0)
(664 -1.13333e-12 0)
(664 -8.40925e-13 0)
(664 -6.94049e-13 0)
(664 -5.91948e-13 0)
(664 -5.07794e-13 0)
(664 -4.8258e-13 0)
(664 -5.22645e-13 0)
(664 -5.83435e-13 0)
(664 -5.45797e-13 0)
(664 -4.92554e-13 0)
(664 -5.92217e-13 0)
(664 -8.09354e-13 0)
(664 -9.411e-13 0)
(664 -9.33165e-13 0)
(664 -8.55689e-13 0)
(664 -8.82809e-13 0)
(664 -9.94853e-13 0)
(664 -1.01848e-12 0)
(664 -8.85802e-13 0)
(664 -6.89563e-13 0)
(664 -5.37198e-13 0)
(664 -4.91795e-13 0)
(664 -5.20834e-13 0)
(664 -4.41167e-13 0)
(664 -1.81416e-13 0)
(664 2.53102e-13 0)
(664 8.78766e-13 0)
(664 1.81516e-12 0)
(664 3.44893e-12 0)
(664 6.19397e-12 0)
(664 1.09192e-11 0)
(664 1.90634e-11 0)
(664 3.27222e-11 0)
(664 5.54093e-11 0)
(664 9.29819e-11 0)
(664 1.55304e-10 0)
(664 2.58831e-10 0)
(664 4.31025e-10 0)
(664 7.17494e-10 0)
(664 1.19431e-09 0)
(664 1.98851e-09 0)
(664 3.31239e-09 0)
(664 5.52064e-09 0)
(664 9.20669e-09 0)
(664 1.53644e-08 0)
(664 2.56594e-08 0)
(664 4.28863e-08 0)
(664 7.17381e-08 0)
(664 1.20104e-07 0)
(664 2.01263e-07 0)
(664 3.37583e-07 0)
(664 5.66801e-07 0)
(664 9.52646e-07 0)
(664 1.60289e-06 0)
(664 2.70002e-06 0)
(664 4.55349e-06 0)
(664 7.68877e-06 0)
(664 1.29995e-05 0)
(663.999 2.20079e-05 0)
(663.999 3.73108e-05 0)
(663.999 6.33459e-05 0)
(663.998 0.00010771 0)
(663.996 0.000183429 0)
(663.994 0.000312882 0)
(663.99 0.000534586 0)
(663.983 0.00091496 0)
(663.972 0.00156876 0)
(663.954 0.00269465 0)
(663.924 0.00463726 0)
(663.875 0.00799564 0)
(663.793 0.0138132 0)
(663.659 0.0239116 0)
(663.438 0.0414766 0)
(663.071 0.0720952 0)
(662.465 0.125578 0)
(661.46 0.219222 0)
(659.793 0.383503 0)
(657.029 0.672566 0)
(652.44 1.18183 0)
(644.839 2.08326 0)
(632.275 3.6752 0)
(611.839 6.51172 0)
(579.767 11.4655 0)
(664 2.23436e-14 0)
(664 6.57478e-14 0)
(664 8.44942e-14 0)
(664 7.6337e-14 0)
(664 6.54026e-14 0)
(664 1.06655e-13 0)
(664 1.10848e-13 0)
(664 5.0712e-14 0)
(664 -7.5819e-14 0)
(664 -2.29042e-13 0)
(664 -3.47708e-13 0)
(664 -4.60904e-13 0)
(664 -5.37406e-13 0)
(664 -5.93269e-13 0)
(664 -6.05351e-13 0)
(664 -5.79596e-13 0)
(664 -5.78785e-13 0)
(664 -6.07862e-13 0)
(664 -6.84352e-13 0)
(664 -7.8074e-13 0)
(664 -9.09768e-13 0)
(664 -9.70317e-13 0)
(664 -9.55061e-13 0)
(664 -8.96077e-13 0)
(664 -9.09117e-13 0)
(664 -9.12739e-13 0)
(664 -9.44565e-13 0)
(664 -9.79748e-13 0)
(664 -9.97345e-13 0)
(664 -9.40285e-13 0)
(664 -9.06771e-13 0)
(664 -8.72975e-13 0)
(664 -7.86893e-13 0)
(664 -7.06805e-13 0)
(664 -7.05389e-13 0)
(664 -6.68675e-13 0)
(664 -5.30771e-13 0)
(664 -4.00748e-13 0)
(664 -3.95702e-13 0)
(664 -4.46328e-13 0)
(664 -4.0199e-13 0)
(664 -2.619e-13 0)
(664 -1.69436e-13 0)
(664 -1.7524e-13 0)
(664 -2.30175e-13 0)
(664 -3.10086e-13 0)
(664 -4.22187e-13 0)
(664 -4.64313e-13 0)
(664 -4.35776e-13 0)
(664 -3.85727e-13 0)
(664 -3.30629e-13 0)
(664 -2.79905e-13 0)
(664 -2.40615e-13 0)
(664 -2.38982e-13 0)
(664 -2.97731e-13 0)
(664 -3.57304e-13 0)
(664 -4.97639e-13 0)
(664 -6.54667e-13 0)
(664 -6.46619e-13 0)
(664 -5.29656e-13 0)
(664 -4.30819e-13 0)
(664 -4.42899e-13 0)
(664 -5.01264e-13 0)
(664 -5.70179e-13 0)
(664 -6.5711e-13 0)
(664 -7.21928e-13 0)
(664 -7.71841e-13 0)
(664 -8.23585e-13 0)
(664 -9.15026e-13 0)
(664 -8.85492e-13 0)
(664 -7.83016e-13 0)
(664 -7.5487e-13 0)
(664 -7.70252e-13 0)
(664 -7.0245e-13 0)
(664 -5.97977e-13 0)
(664 -6.09443e-13 0)
(664 -6.81091e-13 0)
(664 -6.97867e-13 0)
(664 -7.2545e-13 0)
(664 -8.4817e-13 0)
(664 -9.67487e-13 0)
(664 -1.02341e-12 0)
(664 -1.06523e-12 0)
(664 -1.1516e-12 0)
(664 -1.236e-12 0)
(664 -1.3189e-12 0)
(664 -1.32662e-12 0)
(664 -1.31964e-12 0)
(664 -1.3188e-12 0)
(664 -1.33023e-12 0)
(664 -1.3661e-12 0)
(664 -1.37829e-12 0)
(664 -1.26944e-12 0)
(664 -1.05967e-12 0)
(664 -8.71583e-13 0)
(664 -7.46889e-13 0)
(664 -6.28783e-13 0)
(664 -5.49236e-13 0)
(664 -5.82433e-13 0)
(664 -8.03862e-13 0)
(664 -1.05257e-12 0)
(664 -1.24676e-12 0)
(664 -1.28771e-12 0)
(664 -1.22636e-12 0)
(664 -1.11097e-12 0)
(664 -9.89298e-13 0)
(664 -9.97905e-13 0)
(664 -1.11983e-12 0)
(664 -1.2e-12 0)
(664 -1.22526e-12 0)
(664 -1.15918e-12 0)
(664 -1.04542e-12 0)
(664 -1.01316e-12 0)
(664 -1.08202e-12 0)
(664 -1.1748e-12 0)
(664 -1.26569e-12 0)
(664 -1.34291e-12 0)
(664 -1.39117e-12 0)
(664 -1.33871e-12 0)
(664 -1.24924e-12 0)
(664 -1.18509e-12 0)
(664 -1.15779e-12 0)
(664 -1.17117e-12 0)
(664 -1.19706e-12 0)
(664 -1.19374e-12 0)
(664 -1.2224e-12 0)
(664 -1.21893e-12 0)
(664 -1.21144e-12 0)
(664 -1.25093e-12 0)
(664 -1.38733e-12 0)
(664 -1.55691e-12 0)
(664 -1.68199e-12 0)
(664 -1.75737e-12 0)
(664 -1.91887e-12 0)
(664 -2.04916e-12 0)
(664 -2.089e-12 0)
(664 -2.05992e-12 0)
(664 -1.98012e-12 0)
(664 -1.84937e-12 0)
(664 -1.61987e-12 0)
(664 -1.37578e-12 0)
(664 -1.15432e-12 0)
(664 -9.11964e-13 0)
(664 -7.01957e-13 0)
(664 -5.53661e-13 0)
(664 -4.50781e-13 0)
(664 -4.69823e-13 0)
(664 -5.67099e-13 0)
(664 -6.9703e-13 0)
(664 -7.7192e-13 0)
(664 -9.09221e-13 0)
(664 -1.1627e-12 0)
(664 -1.41896e-12 0)
(664 -1.55545e-12 0)
(664 -1.61957e-12 0)
(664 -1.66263e-12 0)
(664 -1.63035e-12 0)
(664 -1.54221e-12 0)
(664 -1.56554e-12 0)
(664 -1.65315e-12 0)
(664 -1.6994e-12 0)
(664 -1.69111e-12 0)
(664 -1.60982e-12 0)
(664 -1.46553e-12 0)
(664 -1.32678e-12 0)
(664 -1.18436e-12 0)
(664 -1.08902e-12 0)
(664 -1.02978e-12 0)
(664 -8.81455e-13 0)
(664 -7.17896e-13 0)
(664 -6.97422e-13 0)
(664 -8.10105e-13 0)
(664 -8.86402e-13 0)
(664 -9.00971e-13 0)
(664 -8.9864e-13 0)
(664 -9.22943e-13 0)
(664 -1.00503e-12 0)
(664 -1.14472e-12 0)
(664 -1.28048e-12 0)
(664 -1.31017e-12 0)
(664 -1.21046e-12 0)
(664 -1.05846e-12 0)
(664 -1.00217e-12 0)
(664 -9.95404e-13 0)
(664 -9.67736e-13 0)
(664 -1.01473e-12 0)
(664 -1.2267e-12 0)
(664 -1.44628e-12 0)
(664 -1.6026e-12 0)
(664 -1.64068e-12 0)
(664 -1.6908e-12 0)
(664 -1.81092e-12 0)
(664 -1.87847e-12 0)
(664 -1.7686e-12 0)
(664 -1.59349e-12 0)
(664 -1.45677e-12 0)
(664 -1.24313e-12 0)
(664 -1.01323e-12 0)
(664 -8.50994e-13 0)
(664 -7.49704e-13 0)
(664 -7.06477e-13 0)
(664 -7.71361e-13 0)
(664 -8.22696e-13 0)
(664 -7.89078e-13 0)
(664 -6.89637e-13 0)
(664 -7.08476e-13 0)
(664 -7.86038e-13 0)
(664 -7.58332e-13 0)
(664 -6.68656e-13 0)
(664 -6.41689e-13 0)
(664 -7.78385e-13 0)
(664 -1.04527e-12 0)
(664 -1.27876e-12 0)
(664 -1.3685e-12 0)
(664 -1.32247e-12 0)
(664 -1.23842e-12 0)
(664 -1.0871e-12 0)
(664 -9.96232e-13 0)
(664 -1.02568e-12 0)
(664 -1.05663e-12 0)
(664 -1.03518e-12 0)
(664 -1.03304e-12 0)
(664 -1.11961e-12 0)
(664 -1.27754e-12 0)
(664 -1.40913e-12 0)
(664 -1.42335e-12 0)
(664 -1.43495e-12 0)
(664 -1.54549e-12 0)
(664 -1.73108e-12 0)
(664 -1.87386e-12 0)
(664 -1.93103e-12 0)
(664 -1.95521e-12 0)
(664 -2.00913e-12 0)
(664 -2.07361e-12 0)
(664 -2.07847e-12 0)
(664 -1.9716e-12 0)
(664 -1.7949e-12 0)
(664 -1.5123e-12 0)
(664 -1.23795e-12 0)
(664 -1.01055e-12 0)
(664 -5.40265e-13 0)
(664 3.77714e-13 0)
(664 1.86492e-12 0)
(664 4.07071e-12 0)
(664 7.2973e-12 0)
(664 1.231e-11 0)
(664 2.04661e-11 0)
(664 3.39833e-11 0)
(664 5.65537e-11 0)
(664 9.4215e-11 0)
(664 1.56757e-10 0)
(664 2.60434e-10 0)
(664 4.32297e-10 0)
(664 7.17134e-10 0)
(664 1.18933e-09 0)
(664 1.97252e-09 0)
(664 3.27225e-09 0)
(664 5.43059e-09 0)
(664 9.01673e-09 0)
(664 1.49783e-08 0)
(664 2.48938e-08 0)
(664 4.1395e-08 0)
(664 6.88714e-08 0)
(664 1.1465e-07 0)
(664 1.9097e-07 0)
(664 3.18285e-07 0)
(664 5.30811e-07 0)
(664 8.85818e-07 0)
(664 1.47924e-06 0)
(664 2.47192e-06 0)
(664 4.13371e-06 0)
(664 6.91775e-06 0)
(664 1.15857e-05 0)
(664 1.94187e-05 0)
(664 3.2574e-05 0)
(664 5.46873e-05 0)
(663.999 9.1892e-05 0)
(663.999 0.000154545 0)
(663.998 0.000260155 0)
(663.997 0.000438347 0)
(663.995 0.000739312 0)
(663.991 0.00124816 0)
(663.985 0.00210941 0)
(663.976 0.00356868 0)
(663.961 0.006044 0)
(663.937 0.0102476 0)
(663.898 0.0173944 0)
(663.833 0.0295596 0)
(663.729 0.0502921 0)
(663.559 0.0856677 0)
(663.283 0.146104 0)
(662.835 0.249476 0)
(662.11 0.426511 0)
(660.935 0.729998 0)
(659.039 1.25094 0)
(655.99 2.14519 0)
(651.108 3.68207 0)
(643.383 6.31261 0)
(631.282 10.8115 0)
(613.67 18.3288 0)
(664 -1.2613e-14 0)
(664 -3.36928e-14 0)
(664 -2.36275e-14 0)
(664 -2.8069e-14 0)
(664 -2.98049e-15 0)
(664 2.79584e-15 0)
(664 -3.00462e-14 0)
(664 -7.99484e-15 0)
(664 5.33764e-14 0)
(664 7.68226e-14 0)
(664 2.75695e-14 0)
(664 -4.66009e-14 0)
(664 -5.15829e-14 0)
(664 5.17845e-15 0)
(664 6.43217e-14 0)
(664 1.42148e-13 0)
(664 1.01953e-13 0)
(664 -5.58088e-14 0)
(664 -2.3098e-13 0)
(664 -4.07889e-13 0)
(664 -6.12374e-13 0)
(664 -7.92686e-13 0)
(664 -8.36134e-13 0)
(664 -8.19262e-13 0)
(664 -7.71533e-13 0)
(664 -7.86226e-13 0)
(664 -8.63031e-13 0)
(664 -9.06663e-13 0)
(664 -8.68884e-13 0)
(664 -7.34472e-13 0)
(664 -5.71113e-13 0)
(664 -4.82054e-13 0)
(664 -4.18272e-13 0)
(664 -3.4756e-13 0)
(664 -2.86275e-13 0)
(664 -3.59854e-13 0)
(664 -4.89381e-13 0)
(664 -6.10671e-13 0)
(664 -6.31532e-13 0)
(664 -6.21019e-13 0)
(664 -6.55692e-13 0)
(664 -6.65853e-13 0)
(664 -5.70882e-13 0)
(664 -4.8213e-13 0)
(664 -3.77181e-13 0)
(664 -3.11943e-13 0)
(664 -2.72739e-13 0)
(664 -3.60271e-13 0)
(664 -5.77655e-13 0)
(664 -7.77564e-13 0)
(664 -8.56389e-13 0)
(664 -8.64681e-13 0)
(664 -8.77245e-13 0)
(664 -9.0596e-13 0)
(664 -9.29022e-13 0)
(664 -9.29742e-13 0)
(664 -8.85826e-13 0)
(664 -7.99924e-13 0)
(664 -7.52765e-13 0)
(664 -7.33782e-13 0)
(664 -6.83903e-13 0)
(664 -5.78267e-13 0)
(664 -4.97812e-13 0)
(664 -4.98118e-13 0)
(664 -5.76134e-13 0)
(664 -6.00733e-13 0)
(664 -5.99742e-13 0)
(664 -6.66525e-13 0)
(664 -8.45676e-13 0)
(664 -1.02771e-12 0)
(664 -1.11916e-12 0)
(664 -1.10418e-12 0)
(664 -1.03241e-12 0)
(664 -8.93506e-13 0)
(664 -7.65537e-13 0)
(664 -7.23235e-13 0)
(664 -6.5631e-13 0)
(664 -6.52933e-13 0)
(664 -6.74677e-13 0)
(664 -7.18316e-13 0)
(664 -7.11499e-13 0)
(664 -7.3029e-13 0)
(664 -8.00681e-13 0)
(664 -8.48665e-13 0)
(664 -8.9978e-13 0)
(664 -9.85538e-13 0)
(664 -1.09416e-12 0)
(664 -1.10258e-12 0)
(664 -1.03607e-12 0)
(664 -9.69282e-13 0)
(664 -8.59121e-13 0)
(664 -7.32542e-13 0)
(664 -6.12461e-13 0)
(664 -6.06157e-13 0)
(664 -6.7669e-13 0)
(664 -6.74472e-13 0)
(664 -6.49766e-13 0)
(664 -6.17986e-13 0)
(664 -6.2158e-13 0)
(664 -6.53495e-13 0)
(664 -6.95039e-13 0)
(664 -7.95811e-13 0)
(664 -8.64532e-13 0)
(664 -9.60329e-13 0)
(664 -1.0607e-12 0)
(664 -1.14928e-12 0)
(664 -1.15167e-12 0)
(664 -1.10006e-12 0)
(664 -1.00153e-12 0)
(664 -9.50734e-13 0)
(664 -1.0093e-12 0)
(664 -1.13864e-12 0)
(664 -1.25445e-12 0)
(664 -1.2414e-12 0)
(664 -1.09903e-12 0)
(664 -9.18348e-13 0)
(664 -7.30811e-13 0)
(664 -5.66623e-13 0)
(664 -4.70542e-13 0)
(664 -4.42442e-13 0)
(664 -4.38656e-13 0)
(664 -5.00073e-13 0)
(664 -6.23061e-13 0)
(664 -7.97447e-13 0)
(664 -9.59077e-13 0)
(664 -1.11852e-12 0)
(664 -1.22571e-12 0)
(664 -1.35029e-12 0)
(664 -1.42063e-12 0)
(664 -1.42258e-12 0)
(664 -1.38864e-12 0)
(664 -1.31302e-12 0)
(664 -1.22252e-12 0)
(664 -1.08664e-12 0)
(664 -9.67052e-13 0)
(664 -9.19108e-13 0)
(664 -8.76051e-13 0)
(664 -8.69709e-13 0)
(664 -9.60454e-13 0)
(664 -1.08707e-12 0)
(664 -1.09591e-12 0)
(664 -9.81703e-13 0)
(664 -9.12879e-13 0)
(664 -8.58172e-13 0)
(664 -7.98453e-13 0)
(664 -7.21229e-13 0)
(664 -8.19648e-13 0)
(664 -9.87907e-13 0)
(664 -1.0501e-12 0)
(664 -1.05679e-12 0)
(664 -1.05856e-12 0)
(664 -1.01509e-12 0)
(664 -1.02943e-12 0)
(664 -1.13298e-12 0)
(664 -1.14509e-12 0)
(664 -1.07419e-12 0)
(664 -1.05534e-12 0)
(664 -1.01443e-12 0)
(664 -8.65137e-13 0)
(664 -6.4379e-13 0)
(664 -4.56904e-13 0)
(664 -3.67262e-13 0)
(664 -3.55005e-13 0)
(664 -4.69656e-13 0)
(664 -6.77783e-13 0)
(664 -9.97637e-13 0)
(664 -1.28903e-12 0)
(664 -1.41805e-12 0)
(664 -1.46049e-12 0)
(664 -1.50551e-12 0)
(664 -1.4927e-12 0)
(664 -1.38719e-12 0)
(664 -1.30068e-12 0)
(664 -1.2706e-12 0)
(664 -1.19714e-12 0)
(664 -1.1095e-12 0)
(664 -1.11076e-12 0)
(664 -1.17085e-12 0)
(664 -1.222e-12 0)
(664 -1.21589e-12 0)
(664 -1.21921e-12 0)
(664 -1.21576e-12 0)
(664 -1.15829e-12 0)
(664 -1.18144e-12 0)
(664 -1.34678e-12 0)
(664 -1.61862e-12 0)
(664 -1.80072e-12 0)
(664 -1.84544e-12 0)
(664 -1.77897e-12 0)
(664 -1.64625e-12 0)
(664 -1.47829e-12 0)
(664 -1.39045e-12 0)
(664 -1.40648e-12 0)
(664 -1.48053e-12 0)
(664 -1.51673e-12 0)
(664 -1.4934e-12 0)
(664 -1.4323e-12 0)
(664 -1.36042e-12 0)
(664 -1.27826e-12 0)
(664 -1.18525e-12 0)
(664 -1.07296e-12 0)
(664 -9.63154e-13 0)
(664 -8.63449e-13 0)
(664 -7.68108e-13 0)
(664 -7.42732e-13 0)
(664 -8.32933e-13 0)
(664 -8.84024e-13 0)
(664 -8.74231e-13 0)
(664 -8.66897e-13 0)
(664 -8.64397e-13 0)
(664 -7.40246e-13 0)
(664 -5.87306e-13 0)
(664 -4.83178e-13 0)
(664 -3.94423e-13 0)
(664 -2.58262e-13 0)
(664 -1.13383e-13 0)
(664 -9.55375e-14 0)
(664 -2.25368e-13 0)
(664 -4.52023e-13 0)
(664 -6.03684e-13 0)
(664 -6.1718e-13 0)
(664 -6.29154e-13 0)
(664 -5.32368e-13 0)
(664 -3.74519e-13 0)
(664 -2.37682e-13 0)
(664 -2.33078e-13 0)
(664 -2.78202e-13 0)
(664 -2.5787e-13 0)
(664 -1.57931e-13 0)
(664 -1.18307e-13 0)
(664 -2.22502e-13 0)
(664 -4.37343e-13 0)
(664 -5.58357e-13 0)
(664 -6.18448e-13 0)
(664 -6.41274e-13 0)
(664 -7.48771e-13 0)
(664 -8.58755e-13 0)
(664 -8.56915e-13 0)
(664 -7.02264e-13 0)
(664 -3.73826e-13 0)
(664 2.09032e-13 0)
(664 1.22953e-12 0)
(664 2.93665e-12 0)
(664 5.76055e-12 0)
(664 1.03633e-11 0)
(664 1.78134e-11 0)
(664 3.0022e-11 0)
(664 5.00346e-11 0)
(664 8.28844e-11 0)
(664 1.37055e-10 0)
(664 2.26629e-10 0)
(664 3.74575e-10 0)
(664 6.18767e-10 0)
(664 1.02199e-09 0)
(664 1.68797e-09 0)
(664 2.78816e-09 0)
(664 4.60623e-09 0)
(664 7.6114e-09 0)
(664 1.25802e-08 0)
(664 2.07979e-08 0)
(664 3.43929e-08 0)
(664 5.68899e-08 0)
(664 9.41285e-08 0)
(664 1.55786e-07 0)
(664 2.57904e-07 0)
(664 4.27082e-07 0)
(664 7.07438e-07 0)
(664 1.17216e-06 0)
(664 1.94273e-06 0)
(664 3.22075e-06 0)
(664 5.34099e-06 0)
(664 8.85941e-06 0)
(664 1.46995e-05 0)
(664 2.43957e-05 0)
(664 4.04977e-05 0)
(664 6.72436e-05 0)
(663.999 0.000111678 0)
(663.999 0.000185512 0)
(663.998 0.000308219 0)
(663.997 0.000512175 0)
(663.996 0.00085121 0)
(663.993 0.00141483 0)
(663.989 0.00235181 0)
(663.982 0.00390946 0)
(663.971 0.00649873 0)
(663.952 0.0108022 0)
(663.923 0.0179534 0)
(663.876 0.0298331 0)
(663.801 0.0495603 0)
(663.679 0.0823022 0)
(663.484 0.13661 0)
(663.172 0.226615 0)
(662.671 0.375622 0)
(661.873 0.621986 0)
(660.601 1.02855 0)
(658.585 1.69795 0)
(655.399 2.79584 0)
(650.423 4.58777 0)
(642.684 7.48187 0)
(631.426 12.0975 0)
(664 -2.36885e-14 0)
(664 -3.14487e-14 0)
(664 -5.66114e-14 0)
(664 -8.6562e-14 0)
(664 -1.06186e-13 0)
(664 -1.76498e-13 0)
(664 -2.32428e-13 0)
(664 -2.54442e-13 0)
(664 -2.64205e-13 0)
(664 -2.19943e-13 0)
(664 -1.43229e-13 0)
(664 -2.55015e-14 0)
(664 -3.38623e-14 0)
(664 -1.21905e-13 0)
(664 -1.43891e-13 0)
(664 -1.24323e-13 0)
(664 -7.83054e-14 0)
(664 -5.70119e-14 0)
(664 -1.25881e-13 0)
(664 -2.9786e-13 0)
(664 -3.92533e-13 0)
(664 -4.44683e-13 0)
(664 -4.91804e-13 0)
(664 -5.28378e-13 0)
(664 -5.09939e-13 0)
(664 -5.05913e-13 0)
(664 -5.16717e-13 0)
(664 -5.26533e-13 0)
(664 -5.42567e-13 0)
(664 -5.7954e-13 0)
(664 -5.95093e-13 0)
(664 -5.93455e-13 0)
(664 -5.27351e-13 0)
(664 -4.163e-13 0)
(664 -3.11931e-13 0)
(664 -2.7875e-13 0)
(664 -3.37749e-13 0)
(664 -4.13254e-13 0)
(664 -3.92689e-13 0)
(664 -2.91749e-13 0)
(664 -2.30187e-13 0)
(664 -2.63701e-13 0)
(664 -2.53723e-13 0)
(664 -2.25795e-13 0)
(664 -2.70744e-13 0)
(664 -2.99666e-13 0)
(664 -3.30401e-13 0)
(664 -3.41735e-13 0)
(664 -3.33854e-13 0)
(664 -2.96504e-13 0)
(664 -2.9327e-13 0)
(664 -3.18036e-13 0)
(664 -4.01644e-13 0)
(664 -4.26659e-13 0)
(664 -4.47578e-13 0)
(664 -5.06921e-13 0)
(664 -5.13996e-13 0)
(664 -4.7775e-13 0)
(664 -5.08617e-13 0)
(664 -5.984e-13 0)
(664 -6.72712e-13 0)
(664 -6.87517e-13 0)
(664 -6.74345e-13 0)
(664 -6.41258e-13 0)
(664 -5.62898e-13 0)
(664 -5.62859e-13 0)
(664 -6.44912e-13 0)
(664 -7.07287e-13 0)
(664 -7.55911e-13 0)
(664 -8.36116e-13 0)
(664 -9.07107e-13 0)
(664 -9.16926e-13 0)
(664 -8.63471e-13 0)
(664 -8.54632e-13 0)
(664 -8.29675e-13 0)
(664 -6.71357e-13 0)
(664 -4.71156e-13 0)
(664 -3.25801e-13 0)
(664 -2.57224e-13 0)
(664 -2.32458e-13 0)
(664 -2.40442e-13 0)
(664 -2.92066e-13 0)
(664 -3.75659e-13 0)
(664 -3.8982e-13 0)
(664 -4.48874e-13 0)
(664 -5.19058e-13 0)
(664 -6.26478e-13 0)
(664 -7.62224e-13 0)
(664 -8.43133e-13 0)
(664 -8.28009e-13 0)
(664 -7.73064e-13 0)
(664 -7.70224e-13 0)
(664 -8.31208e-13 0)
(664 -8.94932e-13 0)
(664 -9.4549e-13 0)
(664 -1.14186e-12 0)
(664 -1.39119e-12 0)
(664 -1.54928e-12 0)
(664 -1.61736e-12 0)
(664 -1.56861e-12 0)
(664 -1.3571e-12 0)
(664 -1.08706e-12 0)
(664 -9.75874e-13 0)
(664 -1.04419e-12 0)
(664 -1.22685e-12 0)
(664 -1.37668e-12 0)
(664 -1.353e-12 0)
(664 -1.24507e-12 0)
(664 -1.19266e-12 0)
(664 -1.17429e-12 0)
(664 -1.14928e-12 0)
(664 -1.13841e-12 0)
(664 -1.10043e-12 0)
(664 -1.12083e-12 0)
(664 -1.23267e-12 0)
(664 -1.41044e-12 0)
(664 -1.55407e-12 0)
(664 -1.6284e-12 0)
(664 -1.66983e-12 0)
(664 -1.63015e-12 0)
(664 -1.52941e-12 0)
(664 -1.39005e-12 0)
(664 -1.26979e-12 0)
(664 -1.2136e-12 0)
(664 -1.23123e-12 0)
(664 -1.28085e-12 0)
(664 -1.33956e-12 0)
(664 -1.33634e-12 0)
(664 -1.30294e-12 0)
(664 -1.18201e-12 0)
(664 -1.01142e-12 0)
(664 -9.23255e-13 0)
(664 -9.10243e-13 0)
(664 -8.79998e-13 0)
(664 -8.45644e-13 0)
(664 -8.66603e-13 0)
(664 -8.97049e-13 0)
(664 -9.30132e-13 0)
(664 -9.45084e-13 0)
(664 -9.76034e-13 0)
(664 -9.59791e-13 0)
(664 -9.46443e-13 0)
(664 -9.29976e-13 0)
(664 -9.75936e-13 0)
(664 -1.11939e-12 0)
(664 -1.25981e-12 0)
(664 -1.33951e-12 0)
(664 -1.36623e-12 0)
(664 -1.37736e-12 0)
(664 -1.41331e-12 0)
(664 -1.35151e-12 0)
(664 -1.2615e-12 0)
(664 -1.21336e-12 0)
(664 -1.2512e-12 0)
(664 -1.21578e-12 0)
(664 -1.08029e-12 0)
(664 -9.88112e-13 0)
(664 -1.02811e-12 0)
(664 -1.0841e-12 0)
(664 -1.14353e-12 0)
(664 -1.21171e-12 0)
(664 -1.29699e-12 0)
(664 -1.33117e-12 0)
(664 -1.23783e-12 0)
(664 -1.07334e-12 0)
(664 -9.6991e-13 0)
(664 -9.06694e-13 0)
(664 -8.60992e-13 0)
(664 -9.10804e-13 0)
(664 -9.45099e-13 0)
(664 -9.03575e-13 0)
(664 -8.46114e-13 0)
(664 -9.32349e-13 0)
(664 -1.07159e-12 0)
(664 -1.18214e-12 0)
(664 -1.19451e-12 0)
(664 -1.13854e-12 0)
(664 -1.06511e-12 0)
(664 -9.20211e-13 0)
(664 -8.03738e-13 0)
(664 -8.54417e-13 0)
(664 -1.00994e-12 0)
(664 -1.17554e-12 0)
(664 -1.21203e-12 0)
(664 -1.16785e-12 0)
(664 -1.0932e-12 0)
(664 -9.67808e-13 0)
(664 -9.31811e-13 0)
(664 -9.30251e-13 0)
(664 -9.39365e-13 0)
(664 -9.81601e-13 0)
(664 -9.96965e-13 0)
(664 -9.37998e-13 0)
(664 -9.73091e-13 0)
(664 -1.13456e-12 0)
(664 -1.30115e-12 0)
(664 -1.4759e-12 0)
(664 -1.65587e-12 0)
(664 -1.75232e-12 0)
(664 -1.80538e-12 0)
(664 -1.85599e-12 0)
(664 -1.77195e-12 0)
(664 -1.58198e-12 0)
(664 -1.41213e-12 0)
(664 -1.24732e-12 0)
(664 -9.85136e-13 0)
(664 -8.02851e-13 0)
(664 -8.27207e-13 0)
(664 -9.47786e-13 0)
(664 -9.67767e-13 0)
(664 -9.16969e-13 0)
(664 -8.45147e-13 0)
(664 -8.5705e-13 0)
(664 -1.04391e-12 0)
(664 -1.31676e-12 0)
(664 -1.54885e-12 0)
(664 -1.65442e-12 0)
(664 -1.57172e-12 0)
(664 -1.43041e-12 0)
(664 -1.43648e-12 0)
(664 -1.55687e-12 0)
(664 -1.59128e-12 0)
(664 -1.52921e-12 0)
(664 -1.41748e-12 0)
(664 -1.40797e-12 0)
(664 -1.50532e-12 0)
(664 -1.68338e-12 0)
(664 -1.82884e-12 0)
(664 -1.8542e-12 0)
(664 -1.75722e-12 0)
(664 -1.67553e-12 0)
(664 -1.60056e-12 0)
(664 -1.54072e-12 0)
(664 -1.44829e-12 0)
(664 -1.26919e-12 0)
(664 -1.06507e-12 0)
(664 -8.45296e-13 0)
(664 -6.45317e-13 0)
(664 -3.69875e-13 0)
(664 1.34811e-13 0)
(664 9.00106e-13 0)
(664 2.05779e-12 0)
(664 3.89972e-12 0)
(664 6.94091e-12 0)
(664 1.21021e-11 0)
(664 2.06638e-11 0)
(664 3.46868e-11 0)
(664 5.76953e-11 0)
(664 9.54665e-11 0)
(664 1.57411e-10 0)
(664 2.5908e-10 0)
(664 4.26136e-10 0)
(664 7.00613e-10 0)
(664 1.15185e-09 0)
(664 1.89375e-09 0)
(664 3.11363e-09 0)
(664 5.11954e-09 0)
(664 8.41804e-09 0)
(664 1.38423e-08 0)
(664 2.2763e-08 0)
(664 3.74351e-08 0)
(664 6.15684e-08 0)
(664 1.01266e-07 0)
(664 1.66569e-07 0)
(664 2.73998e-07 0)
(664 4.50732e-07 0)
(664 7.41487e-07 0)
(664 1.21983e-06 0)
(664 2.00676e-06 0)
(664 3.30135e-06 0)
(664 5.43098e-06 0)
(664 8.93405e-06 0)
(664 1.46958e-05 0)
(664 2.41715e-05 0)
(664 3.97532e-05 0)
(664 6.53709e-05 0)
(664 0.000107481 0)
(663.999 0.000176684 0)
(663.999 0.000290382 0)
(663.998 0.000477124 0)
(663.997 0.000783729 0)
(663.995 0.00128693 0)
(663.992 0.00211239 0)
(663.987 0.00346578 0)
(663.979 0.00568343 0)
(663.966 0.0093148 0)
(663.946 0.0152566 0)
(663.913 0.0249705 0)
(663.861 0.0408356 0)
(663.778 0.0667187 0)
(663.647 0.108892 0)
(663.438 0.177511 0)
(663.106 0.288966 0)
(662.581 0.469647 0)
(661.751 0.761805 0)
(660.445 1.23289 0)
(658.393 1.98903 0)
(655.199 3.19721 0)
(650.222 5.10744 0)
(642.917 8.10363 0)
(664 2.08694e-14 0)
(664 4.88952e-14 0)
(664 6.80598e-14 0)
(664 1.20652e-13 0)
(664 1.10314e-13 0)
(664 1.21578e-13 0)
(664 1.15711e-13 0)
(664 6.55307e-14 0)
(664 5.40252e-14 0)
(664 2.75066e-14 0)
(664 -3.35675e-14 0)
(664 -7.14498e-14 0)
(664 -7.31339e-14 0)
(664 -7.3833e-14 0)
(664 -7.91926e-14 0)
(664 -5.05414e-14 0)
(664 1.75429e-14 0)
(664 4.02271e-14 0)
(664 1.01206e-14 0)
(664 -1.06362e-13 0)
(664 -2.66385e-13 0)
(664 -3.21611e-13 0)
(664 -3.14121e-13 0)
(664 -2.75608e-13 0)
(664 -1.94221e-13 0)
(664 -5.76671e-14 0)
(664 9.64607e-14 0)
(664 1.12443e-13 0)
(664 -7.32527e-14 0)
(664 -2.8371e-13 0)
(664 -4.67205e-13 0)
(664 -6.16408e-13 0)
(664 -7.63099e-13 0)
(664 -8.77123e-13 0)
(664 -9.25613e-13 0)
(664 -8.78474e-13 0)
(664 -6.8747e-13 0)
(664 -4.75522e-13 0)
(664 -3.43266e-13 0)
(664 -2.98071e-13 0)
(664 -2.41647e-13 0)
(664 -1.01546e-13 0)
(664 1.98257e-14 0)
(664 -5.60131e-15 0)
(664 -1.64679e-13 0)
(664 -3.40065e-13 0)
(664 -4.7449e-13 0)
(664 -5.1191e-13 0)
(664 -4.26122e-13 0)
(664 -3.04996e-13 0)
(664 -2.45278e-13 0)
(664 -2.54523e-13 0)
(664 -1.90896e-13 0)
(664 -1.6405e-13 0)
(664 -1.82376e-13 0)
(664 -2.62032e-13 0)
(664 -4.20514e-13 0)
(664 -5.88017e-13 0)
(664 -6.96579e-13 0)
(664 -7.83689e-13 0)
(664 -8.38156e-13 0)
(664 -8.95378e-13 0)
(664 -9.3987e-13 0)
(664 -9.95116e-13 0)
(664 -1.06608e-12 0)
(664 -1.12914e-12 0)
(664 -1.10297e-12 0)
(664 -1.04148e-12 0)
(664 -9.72493e-13 0)
(664 -8.92414e-13 0)
(664 -7.3205e-13 0)
(664 -5.70813e-13 0)
(664 -3.90166e-13 0)
(664 -2.13629e-13 0)
(664 -9.89137e-14 0)
(664 -3.38204e-14 0)
(664 -3.43404e-14 0)
(664 -4.23761e-14 0)
(664 -5.74e-14 0)
(664 -7.97713e-14 0)
(664 -8.13193e-14 0)
(664 -8.47558e-14 0)
(664 -1.2573e-13 0)
(664 -2.22272e-13 0)
(664 -3.40092e-13 0)
(664 -4.66735e-13 0)
(664 -5.53294e-13 0)
(664 -6.63703e-13 0)
(664 -6.69594e-13 0)
(664 -6.3865e-13 0)
(664 -6.78524e-13 0)
(664 -7.81524e-13 0)
(664 -8.91348e-13 0)
(664 -9.19959e-13 0)
(664 -9.12831e-13 0)
(664 -9.25286e-13 0)
(664 -9.66111e-13 0)
(664 -9.38681e-13 0)
(664 -8.94095e-13 0)
(664 -9.18318e-13 0)
(664 -1.08222e-12 0)
(664 -1.23945e-12 0)
(664 -1.26081e-12 0)
(664 -1.22716e-12 0)
(664 -1.16947e-12 0)
(664 -1.09119e-12 0)
(664 -1.0515e-12 0)
(664 -9.93227e-13 0)
(664 -9.32415e-13 0)
(664 -8.26422e-13 0)
(664 -7.43929e-13 0)
(664 -6.27799e-13 0)
(664 -5.1299e-13 0)
(664 -4.76153e-13 0)
(664 -5.24213e-13 0)
(664 -5.87708e-13 0)
(664 -6.3833e-13 0)
(664 -7.57361e-13 0)
(664 -9.1899e-13 0)
(664 -1.05079e-12 0)
(664 -1.14711e-12 0)
(664 -1.22131e-12 0)
(664 -1.27438e-12 0)
(664 -1.31819e-12 0)
(664 -1.30326e-12 0)
(664 -1.1754e-12 0)
(664 -1.05689e-12 0)
(664 -1.01687e-12 0)
(664 -9.88879e-13 0)
(664 -9.49522e-13 0)
(664 -9.4883e-13 0)
(664 -1.08406e-12 0)
(664 -1.26062e-12 0)
(664 -1.43476e-12 0)
(664 -1.60812e-12 0)
(664 -1.71248e-12 0)
(664 -1.7406e-12 0)
(664 -1.71947e-12 0)
(664 -1.62624e-12 0)
(664 -1.50271e-12 0)
(664 -1.44445e-12 0)
(664 -1.44943e-12 0)
(664 -1.43555e-12 0)
(664 -1.36237e-12 0)
(664 -1.21951e-12 0)
(664 -1.14458e-12 0)
(664 -1.08598e-12 0)
(664 -1.1091e-12 0)
(664 -1.17647e-12 0)
(664 -1.27596e-12 0)
(664 -1.23693e-12 0)
(664 -1.15872e-12 0)
(664 -1.10494e-12 0)
(664 -1.05009e-12 0)
(664 -1.00542e-12 0)
(664 -1.03679e-12 0)
(664 -1.122e-12 0)
(664 -1.25038e-12 0)
(664 -1.44979e-12 0)
(664 -1.63535e-12 0)
(664 -1.70518e-12 0)
(664 -1.6645e-12 0)
(664 -1.54131e-12 0)
(664 -1.37744e-12 0)
(664 -1.1618e-12 0)
(664 -9.34387e-13 0)
(664 -7.78078e-13 0)
(664 -7.68661e-13 0)
(664 -8.6084e-13 0)
(664 -1.01343e-12 0)
(664 -1.07243e-12 0)
(664 -1.09197e-12 0)
(664 -1.13863e-12 0)
(664 -1.19448e-12 0)
(664 -1.23552e-12 0)
(664 -1.28303e-12 0)
(664 -1.26324e-12 0)
(664 -1.2249e-12 0)
(664 -1.28024e-12 0)
(664 -1.40804e-12 0)
(664 -1.45032e-12 0)
(664 -1.45237e-12 0)
(664 -1.40513e-12 0)
(664 -1.33377e-12 0)
(664 -1.24196e-12 0)
(664 -1.11434e-12 0)
(664 -1.08563e-12 0)
(664 -1.14299e-12 0)
(664 -1.16883e-12 0)
(664 -1.11975e-12 0)
(664 -1.02707e-12 0)
(664 -9.54856e-13 0)
(664 -9.48814e-13 0)
(664 -9.46307e-13 0)
(664 -8.4711e-13 0)
(664 -6.50953e-13 0)
(664 -4.89813e-13 0)