/*--------------------------------*- C++ -*----------------------------------*\
| =========                 |                                                 |
| \\      /  F ield         | OpenFOAM: The Open Source CFD Toolbox           |
|  \\    /   O peration     | Version:  2412                                  |
|   \\  /    A nd           | Website:  www.openfoam.com                      |
|    \\/     M anipulation  |                                                 |
\*---------------------------------------------------------------------------*/
FoamFile
{
    version     2.0;
    format      ascii;
    arch        "LSB;label=32;scalar=64";
    class       volScalarField;
    location    "0.0015";
    object      ddt0(rho,K);
}
// * * * * * * * * * * * * * * * * * * * * * * * * * * * * * * * * * * * * * //

dimensions      [1 -1 -3 0 0 0 0];

internalField   nonuniform List<scalar> 
180000
(
6.45743e-06
-8.19435e-06
1.14764e-05
1.88538e-05
-1.80316e-05
-9.3552e-06
2.74391e-05
2.32133e-05
2.10634e-06
-1.47078e-05
-2.30677e-05
-1.3046e-06
2.17281e-05
3.97341e-05
2.13905e-05
6.06893e-06
-1.22047e-05
2.86705e-05
3.59264e-05
-2.56556e-06
-1.98779e-05
-2.30759e-05
-1.94697e-05
3.25954e-05
-7.01631e-05
-1.02418e-05
9.7202e-06
-3.58801e-05
8.33592e-07
-4.88017e-05
2.61163e-05
1.9377e-05
2.509e-05
-2.81729e-05
4.44848e-05
1.09177e-05
-1.19689e-06
-3.33526e-05
1.26053e-05
2.53061e-06
-5.35001e-05
-6.17428e-05
2.9245e-06
9.36832e-06
1.43493e-05
1.95949e-05
-1.90212e-05
-1.43972e-05
2.09232e-05
-2.08978e-05
-2.74042e-06
6.58195e-08
2.22208e-06
8.56894e-07
3.77115e-05
-2.43513e-05
-4.82538e-06
-5.0425e-06
-4.7886e-06
-3.78412e-05
-6.0702e-05
-6.59671e-07
-2.00705e-05
-5.71327e-06
5.50188e-05
7.19568e-05
1.42125e-05
1.76911e-05
-1.27565e-05
3.72315e-05
1.81826e-05
-3.59294e-05
-6.12513e-06
-3.4979e-05
-5.18965e-05
-2.36303e-05
2.13202e-05
1.0675e-05
-1.34692e-05
1.22107e-05
-1.23074e-05
2.14454e-05
5.52219e-05
1.88314e-05
7.63359e-06
-3.44627e-06
5.41209e-06
-6.62274e-05
-1.20048e-05
4.30856e-05
2.29574e-05
1.56899e-06
4.15204e-05
3.72933e-05
-4.41562e-05
3.92972e-05
3.24456e-05
2.04407e-05
1.39772e-05
9.90928e-06
-4.07262e-05
3.98795e-05
4.93354e-05
8.71647e-06
2.56587e-05
1.01444e-05
-9.21105e-06
-2.98386e-07
2.52188e-05
-2.21624e-05
-4.2943e-05
-5.86949e-05
-3.53736e-05
2.63983e-06
4.54017e-05
2.42755e-05
2.17603e-05
1.55416e-05
2.00411e-05
3.14813e-05
-2.47893e-05
1.24496e-05
3.8961e-05
7.73635e-05
-8.28885e-06
-4.62432e-05
4.58388e-05
-2.4315e-05
-1.27809e-05
1.04775e-05
-4.01094e-05
3.79633e-05
6.30606e-05
1.23718e-05
2.05067e-05
3.53015e-05
2.70635e-06
3.15823e-06
-7.08914e-05
-5.10647e-05
-2.84729e-05
-3.62252e-05
-2.09123e-05
5.87892e-06
7.05293e-06
1.77349e-05
2.63379e-05
1.75651e-05
2.12006e-05
-3.16083e-05
-4.8685e-06
-7.24288e-05
-5.43839e-05
-8.96322e-06
1.14081e-05
3.70113e-08
3.27584e-05
-5.33519e-06
9.08851e-06
3.86155e-05
2.83062e-05
4.18995e-05
2.36997e-05
-4.16672e-05
-2.05981e-05
1.1025e-05
3.48859e-06
-2.71125e-06
2.30555e-05
1.06575e-05
4.35959e-05
3.07303e-05
-1.19311e-05
2.00543e-05
6.84792e-05
4.95837e-05
-3.87202e-05
5.07836e-05
-2.26084e-05
-7.39461e-07
7.72468e-05
6.42956e-05
6.14596e-05
-1.40609e-05
3.48104e-06
-1.83549e-05
2.08941e-05
-1.94074e-05
1.91079e-05
-4.0917e-05
-4.4759e-05
5.48914e-06
2.97264e-05
4.13247e-05
5.98951e-05
4.40368e-05
2.17863e-05
-1.17347e-06
1.20367e-05
2.33594e-05
4.37109e-05
-3.89e-06
2.56176e-05
1.07774e-05
-8.9972e-06
3.7676e-05
8.03505e-06
3.80992e-05
1.99672e-05
3.38272e-05
5.29227e-05
1.96184e-05
1.91531e-05
2.00623e-05
-2.69964e-05
-6.73782e-07
1.72257e-06
1.3526e-09
4.98909e-05
3.25748e-05
2.23533e-05
3.94373e-05
2.99366e-05
4.54021e-05
2.92813e-05
-3.93826e-05
-7.79039e-06
-3.76409e-06
-3.19201e-05
2.95983e-05
3.19947e-05
4.52474e-05
8.04778e-06
4.0193e-05
-2.39712e-05
-9.52522e-06
-1.07805e-05
4.92495e-06
-1.49924e-05
-2.52654e-05
-2.35403e-06
2.84462e-06
2.32586e-05
2.43334e-05
-4.03975e-05
-1.74787e-05
-2.3879e-05
3.77984e-05
9.40874e-05
3.98815e-05
1.12956e-05
0.00010581
0.000106555
0.000253441
0.000450802
0.000592364
0.000895757
0.00136655
0.00210767
0.00319599
0.00481635
0.00745604
0.0116523
0.0179512
0.0271694
0.0422817
0.0658784
0.10177
0.155803
0.244115
0.379917
0.589624
0.910357
1.43042
2.22728
3.47541
5.40006
8.49617
13.2506
20.7698
32.3918
50.9883
79.6097
125.027
195.035
306.202
476.05
742.073
1140.71
1745.55
2591.3
3730.99
4884.03
5371.91
2080.08
-11204.9
-56259.1
-163720
-443395
-869560
2.78111e-05
-2.81938e-05
-2.55691e-05
-1.24033e-05
1.36861e-05
-6.19762e-06
4.73468e-05
-1.40948e-06
-1.93727e-06
-5.7329e-06
-4.00125e-05
5.60855e-06
1.04775e-06
-2.06673e-05
1.9374e-05
-2.16161e-05
-1.02577e-05
1.51036e-05
2.22342e-05
-5.25963e-05
3.10401e-05
-1.00062e-05
-4.05876e-06
1.04705e-05
6.63858e-06
9.32375e-06
-8.67436e-06
-1.69065e-05
-4.38702e-05
-2.07032e-06
-1.37553e-06
-2.24661e-05
-6.30616e-05
-2.16462e-05
7.65087e-06
6.14489e-05
5.0417e-05
-2.70305e-05
-2.69989e-05
1.24295e-05
2.49576e-05
1.6186e-05
-2.72948e-05
-1.45752e-05
3.44586e-05
5.20629e-05
4.33894e-06
-5.16027e-05
-5.72671e-05
3.93561e-06
-1.52095e-05
-2.94008e-05
2.13832e-07
7.68418e-07
2.28107e-05
4.54404e-05
1.82858e-05
-2.54867e-05
-4.75415e-05
-1.61391e-06
3.35643e-05
-8.87798e-06
4.84394e-05
-4.88569e-06
4.38589e-06
4.26155e-05
2.16917e-05
5.32782e-05
1.95871e-05
4.6294e-05
1.95941e-05
2.0881e-07
-6.42386e-05
-1.16655e-05
-8.43491e-07
1.3593e-06
1.11303e-07
4.37573e-05
6.07846e-05
-2.90067e-07
4.50124e-06
1.02843e-05
-9.97256e-06
-1.3794e-05
2.68568e-05
6.55582e-05
-8.32018e-06
-2.78774e-05
3.30571e-05
1.20903e-05
1.84751e-05
4.2431e-05
1.47007e-05
9.58019e-06
-3.75409e-06
-3.08154e-05
1.35859e-05
1.19783e-05
-6.23978e-06
-3.46826e-05
-7.78145e-06
-2.46119e-05
2.89692e-06
-4.07381e-05
1.34571e-05
3.73246e-05
-2.53419e-05
-7.63698e-06
5.1818e-05
-9.75928e-06
-6.93914e-05
2.27904e-06
-4.77321e-05
-2.36059e-05
2.37816e-05
2.63141e-05
-2.48579e-05
1.12696e-05
-3.93068e-05
-0.000100583
1.23733e-05
-7.37085e-06
5.76271e-05
1.37717e-05
-4.0804e-05
-3.5916e-05
-4.51175e-05
-1.75e-05
9.57917e-06
7.12028e-06
1.10441e-05
3.38172e-06
3.77755e-05
-5.75758e-05
-3.68411e-05
7.79836e-06
-4.11129e-06
-2.84816e-05
2.23204e-05
5.85846e-06
-7.63824e-06
-1.70711e-05
-2.59681e-06
-4.92166e-05
-2.63858e-05
1.87368e-05
-7.46375e-06
-2.58773e-06
-1.22662e-05
-3.94883e-05
-3.80638e-05
-4.01604e-05
1.66057e-05
-1.59239e-05
-3.16681e-05
1.2867e-05
4.4371e-05
-7.72161e-05
-2.96339e-05
1.40508e-05
-5.46591e-06
-4.80519e-05
-3.52742e-05
-3.1568e-06
-7.43843e-05
1.69133e-05
2.33126e-05
2.63538e-05
1.63305e-05
-2.65172e-05
1.81298e-06
2.49107e-05
1.29502e-05
5.57333e-06
1.09169e-05
-2.57123e-05
-9.23333e-06
-3.37142e-05
1.72371e-05
-1.53753e-05
-2.5347e-05
-4.78839e-05
1.24036e-05
-1.23844e-05
-3.36703e-05
-3.02237e-06
4.48514e-05
-2.28422e-05
-2.43521e-05
1.57869e-05
3.14848e-06
-2.10219e-05
6.78182e-06
-1.02235e-05
-1.37142e-05
-8.61686e-06
-1.06935e-05
4.42034e-05
-5.85363e-05
-1.14561e-05
-9.38052e-06
-6.61624e-06
-3.23061e-05
-2.8741e-05
2.27322e-05
4.40505e-05
3.32199e-05
7.29482e-05
3.88495e-05
-1.74229e-05
4.87194e-05
5.37515e-05
4.33254e-05
2.47153e-05
7.36123e-07
-6.87585e-05
-6.05428e-05
-1.84516e-05
-9.69887e-06
-9.59011e-06
-1.97708e-05
4.89429e-06
-2.65176e-05
-1.08581e-06
3.3622e-05
2.39143e-05
3.30429e-06
8.0333e-06
8.18608e-07
4.63608e-06
-1.98303e-05
-1.62259e-06
3.14818e-06
-6.79354e-05
-8.55799e-06
1.68688e-06
1.64893e-05
-2.50039e-05
1.6789e-05
-2.70511e-05
-8.12239e-05
-3.36004e-05
1.4828e-05
-5.96931e-05
2.76136e-05
3.28019e-05
-8.33474e-06
2.70312e-05
6.23577e-05
6.33021e-05
4.65655e-05
0.000119839
0.000183206
0.000256524
0.000355724
0.000523588
0.000786947
0.00131253
0.00199434
0.00307189
0.00478578
0.00736935
0.0112232
0.0174961
0.0269386
0.0415913
0.0638229
0.0995854
0.154063
0.239124
0.369402
0.577862
0.896355
1.39819
2.17048
3.40453
5.29851
8.30062
12.9357
20.3352
31.7372
49.8714
77.9038
122.586
191.503
300.91
469.166
734.598
1137.28
1759
2665.75
3979.5
5642.15
7469.11
7938.42
3989.34
-15959.3
-68772.8
-218102
-460152
-2.70251e-05
7.78639e-06
2.07614e-05
-1.82769e-05
-2.12244e-05
1.08251e-05
3.65148e-05
-1.69486e-05
-4.89237e-07
2.79615e-05
1.36328e-05
2.18418e-06
6.41473e-06
1.11605e-05
-4.81204e-06
2.74446e-05
-3.83546e-06
-3.82884e-05
-4.56782e-05
-3.71269e-05
-6.40014e-05
-1.92863e-05
4.02154e-06
-7.31508e-06
-5.08588e-06
4.34851e-07
8.3716e-07
-7.35869e-06
-3.01724e-05
-2.31085e-05
-1.27934e-05
-2.58899e-05
-4.71467e-05
-1.1281e-05
1.69569e-05
8.45208e-06
2.14642e-05
2.329e-05
1.57652e-05
-5.9172e-06
-3.81127e-06
-1.85382e-05
-1.09046e-05
1.25596e-05
4.17379e-05
7.92855e-06
-2.73671e-05
2.98597e-05
7.86004e-06
6.1307e-06
-3.8936e-05
-3.53434e-06
1.36876e-05
-5.78466e-05
-1.3784e-05
-7.06393e-06
1.40907e-05
-2.11806e-05
9.28066e-06
1.13072e-05
-3.48186e-06
1.97559e-05
3.84526e-05
-1.1921e-05
-4.59302e-05
3.13689e-06
-1.24657e-05
-1.32128e-06
-7.15377e-05
-1.80295e-05
-9.88178e-06
1.56584e-05
4.2059e-05
3.03632e-05
-1.40693e-05
-2.20904e-05
5.05838e-05
2.23843e-05
3.56904e-05
-5.53845e-05
5.8379e-05
6.05088e-05
3.71652e-06
-9.65315e-05
-4.0262e-05
-4.22214e-06
-9.3673e-06
1.76523e-06
5.90996e-06
2.62747e-05
4.37759e-05
6.48027e-05
2.46355e-05
4.25743e-05
5.03516e-06
1.71822e-06
-2.88453e-06
-4.52769e-05
-1.15876e-05
-4.61808e-05
-1.88726e-05
-4.79963e-05
-5.55091e-05
2.47364e-05
-1.30148e-05
-2.7653e-05
1.94723e-05
-9.64411e-06
1.47628e-06
-4.59416e-07
-3.43674e-05
-9.46259e-05
-2.29434e-05
-5.01666e-05
-2.66375e-05
-2.73346e-05
-6.19443e-05
-3.467e-05
3.02673e-05
-1.29843e-05
-4.27618e-05
6.36237e-06
7.03787e-07
3.98617e-05
1.51021e-05
-3.7118e-05
-2.27043e-05
2.42972e-05
-7.62258e-06
-2.04851e-05
-2.74555e-05
-1.48351e-05
-2.36584e-05
-2.2795e-05
3.23656e-05
5.58675e-05
-5.29704e-05
-4.5697e-05
5.61984e-05
5.4022e-05
3.36169e-05
2.41134e-05
8.83196e-06
1.33056e-05
3.92828e-06
-8.51833e-06
-9.20237e-06
2.33534e-05
-1.73337e-05
-2.59395e-05
-4.77222e-07
-2.84862e-05
-5.2809e-05
2.24684e-05
6.00541e-05
4.05634e-05
-4.14588e-05
-2.83872e-05
-1.53728e-05
1.87919e-05
-2.78558e-05
-4.81357e-05
-3.84315e-05
3.51511e-05
-2.54956e-05
-1.68314e-05
2.50634e-05
5.70816e-06
6.56496e-05
2.16147e-05
3.38832e-05
1.87985e-05
4.40405e-06
2.10181e-05
-1.58935e-05
1.77126e-05
-3.84935e-06
-1.08353e-05
-2.75939e-05
1.52307e-05
-1.23535e-05
7.86936e-06
-6.5821e-05
-4.5145e-05
2.05158e-05
7.734e-06
3.58295e-05
-1.61605e-06
9.8754e-06
1.00292e-07
-2.32931e-06
-7.55489e-06
4.19028e-05
-6.05606e-05
-6.34448e-05
2.83392e-06
-7.73185e-05
-2.64729e-05
9.76806e-06
-4.81338e-05
-1.32401e-05
6.85193e-05
1.45649e-05
-1.06008e-05
-1.32757e-06
-3.25356e-05
-1.80167e-05
-7.46777e-05
-6.96348e-05
2.6121e-05
-3.13322e-05
-2.23882e-05
-1.88754e-05
2.24916e-05
4.49817e-05
7.84864e-06
1.50329e-05
-6.5379e-06
-2.00436e-05
-1.45866e-05
-9.81665e-06
-3.47467e-05
-1.18521e-06
-4.16055e-05
-1.87026e-05
-6.13924e-05
-1.00884e-05
5.77686e-06
-5.92434e-06
3.72606e-05
2.04853e-05
5.62469e-05
5.02961e-06
3.00174e-05
-1.02284e-05
-2.1781e-05
2.15485e-05
3.75135e-05
1.63461e-05
9.60904e-07
3.41374e-05
-1.32392e-05
-3.73697e-05
-1.56204e-05
-9.77277e-06
4.55732e-05
-1.27773e-05
2.28472e-05
2.03874e-05
5.24549e-06
2.01187e-05
0.000107147
0.000193742
0.000210962
0.000305201
0.000550075
0.000860283
0.00127312
0.0019701
0.00302399
0.0045942
0.00703356
0.0108185
0.0167111
0.0257178
0.0399372
0.0614867
0.0954452
0.147142
0.228933
0.354055
0.551472
0.853949
1.33372
2.06995
3.23656
5.03106
7.88273
12.2758
19.2532
30.0209
47.1481
73.5988
115.637
180.572
283.661
442.531
693.508
1077.25
1675.93
2569.9
3916.85
5785.15
8309.87
10832.3
12438.5
6423.86
-13026.4
-92012.7
-201642
9.04317e-06
2.73805e-05
6.10503e-06
-2.45885e-05
1.36802e-05
2.56029e-06
1.15151e-05
5.61232e-05
1.14668e-05
-2.87207e-05
-3.59927e-06
3.20768e-05
5.02758e-06
1.66961e-05
-4.13482e-05
-4.07281e-05
1.83129e-05
-1.15456e-05
-8.38808e-06
9.41021e-06
-2.47797e-06
9.17029e-06
1.12923e-06
-3.04434e-05
3.31212e-06
2.76581e-05
-7.78321e-06
1.61603e-06
4.40357e-05
1.44184e-05
2.08559e-05
-7.9651e-06
3.33429e-05
-2.93124e-05
-4.28655e-05
-5.55284e-06
-8.07073e-05
3.62572e-06
-3.18626e-05
7.86193e-05
1.18889e-05
-2.95145e-05
-6.17541e-06
-1.66851e-05
-5.24584e-05
-2.77737e-05
9.38182e-06
-3.66091e-06
2.1331e-05
1.29851e-05
-5.51005e-05
9.45405e-06
2.86268e-05
-1.81623e-05
2.71699e-05
-3.28424e-05
-1.788e-05
-2.77636e-05
-3.58207e-05
-7.27302e-07
3.03643e-06
8.69024e-05
8.33358e-05
6.61649e-06
4.84698e-05
4.75793e-05
1.37449e-05
-1.83368e-05
3.11801e-05
-5.1321e-07
-9.00181e-06
-1.11591e-05
-6.65679e-06
-8.12227e-06
3.45856e-05
-2.51685e-05
-7.25863e-05
-2.40827e-05
-1.21983e-05
-1.62675e-05
-1.19487e-05
3.60162e-05
3.70832e-05
1.25418e-05
5.86096e-05
-5.77765e-06
3.12763e-05
1.03413e-05
-2.2055e-05
8.80598e-06
2.04485e-05
-4.76684e-05
-3.91803e-05
2.55828e-05
1.05886e-05
1.40723e-06
-1.60184e-05
1.88578e-05
2.23461e-05
2.91953e-05
-1.22945e-05
-1.14671e-05
2.01666e-06
-3.45648e-05
2.91255e-06
7.36331e-05
2.34296e-05
-3.65812e-05
-1.32901e-05
-1.96832e-05
-1.71725e-05
-4.82302e-05
2.36075e-05
2.27287e-05
-2.38374e-05
9.70018e-06
6.66828e-05
3.95202e-05
-2.36648e-05
-2.67896e-05
3.96224e-05
-4.01317e-05
3.77918e-05
2.167e-05
-6.47099e-05
-4.7327e-05
-3.54985e-05
7.20963e-06
1.88465e-05
7.43116e-06
-2.19853e-05
-3.16625e-05
-1.1709e-05
1.44504e-05
-2.34789e-05
-2.59031e-05
-6.34736e-06
-3.03764e-05
8.49641e-06
-3.65953e-06
-3.85349e-05
7.83692e-05
4.49366e-05
6.3092e-05
7.91354e-06
3.12284e-05
8.25241e-05
4.97782e-05
1.79546e-05
1.68936e-05
2.78258e-05
-2.81352e-05
9.31515e-06
5.16219e-05
-6.16653e-06
1.64179e-05
-1.5988e-05
-2.91107e-06
4.74225e-06
-5.73504e-06
1.54829e-05
3.36975e-05
5.4387e-05
1.85298e-05
7.81425e-06
-3.96328e-05
1.32725e-05
-3.27295e-05
-4.84423e-05
2.19778e-06
-2.64207e-05
9.32613e-06
8.65487e-07
-1.61194e-05
2.94089e-05
1.77457e-05
2.18266e-05
5.76353e-05
1.43517e-06
-1.02877e-05
1.24316e-06
2.12892e-05
8.92716e-06
1.709e-05
-1.46866e-05
3.75702e-05
1.41407e-05
-2.90814e-05
-1.44387e-05
-3.49013e-05
-1.97002e-05
2.62746e-05
-3.71815e-05
-6.80517e-06
-7.59934e-06
-3.41866e-05
-2.49826e-05
-1.87764e-06
-6.59984e-05
-6.38923e-05
-4.61696e-05
1.41547e-05
7.11151e-05
3.92808e-06
-2.10013e-06
6.34978e-05
4.72766e-05
5.43584e-05
6.63807e-05
-2.32311e-06
1.62388e-05
-4.0433e-05
-5.8856e-05
-3.34803e-05
-5.74583e-05
6.98098e-06
-3.09209e-05
1.29184e-05
-3.3092e-06
8.64682e-06
2.04892e-05
4.91383e-05
-1.55457e-05
-3.41659e-05
-7.62442e-06
8.22192e-06
-2.0819e-05
2.3663e-06
-1.41688e-05
-1.72774e-05
3.47899e-05
3.68911e-05
4.92162e-05
-5.25836e-06
-2.03196e-05
1.9826e-05
4.16374e-06
-1.57266e-05
-6.46016e-06
4.26814e-06
-3.09537e-05
2.0989e-06
-1.25179e-05
-5.01628e-06
-6.01509e-05
-3.70727e-05
4.17202e-09
2.07749e-05
-1.74563e-05
-1.97636e-07
5.83362e-05
3.61826e-05
0.000161771
0.000179289
0.000290945
0.000558069
0.000728782
0.0011454
0.0017937
0.0028259
0.00422307
0.0066377
0.0102206
0.0157185
0.0241577
0.0374535
0.0575828
0.0892086
0.137451
0.213458
0.329524
0.512545
0.792751
1.23525
1.91381
2.98724
4.63631
7.24694
11.2642
17.6301
27.4407
42.9916
66.982
105.014
163.708
256.662
399.953
626.238
973.428
1517.57
2340.72
3606.77
5443.66
8135.41
11509.4
15772.5
17230.5
16025.7
-19686.5
-47729.5
-2.36136e-05
3.53617e-05
4.16993e-06
-5.33397e-06
6.85182e-06
1.34398e-06
-1.72843e-05
-1.96314e-05
-1.63217e-05
-2.67932e-05
2.14878e-05
-1.31341e-05
-1.59514e-05
-5.19402e-05
-2.04672e-05
-7.13676e-07
4.10768e-05
6.39909e-06
-2.33951e-05
1.49195e-05
3.17755e-05
1.35174e-06
3.68719e-06
-1.96792e-05
-3.40241e-05
-3.70596e-06
2.73143e-05
1.08142e-05
-6.36256e-06
3.14988e-05
2.57563e-05
-3.64597e-06
1.73863e-05
3.29267e-06
1.63219e-05
-2.73401e-05
2.05757e-05
-5.70826e-06
2.81592e-05
-2.60302e-05
-3.2279e-05
2.7128e-05
-1.09615e-05
1.23544e-05
2.85273e-05
6.51067e-06
4.97387e-05
-4.25027e-06
4.50928e-05
3.10682e-06
-5.65517e-05
-8.96033e-06
-5.0414e-06
2.47308e-05
3.4937e-05
3.43775e-05
-2.14859e-05
-2.851e-05
1.18865e-06
3.44346e-05
2.63497e-05
-2.99432e-05
-4.80495e-05
-5.20225e-07
1.8055e-05
-3.69043e-05
3.68351e-05
-2.20437e-06
-2.98889e-05
2.06198e-05
-5.20488e-05
-3.38682e-05
9.23566e-06
1.16387e-06
-1.67976e-05
2.39248e-05
4.66868e-05
6.18112e-05
8.05227e-05
6.18892e-05
2.98421e-05
4.26448e-06
2.07249e-05
-1.22536e-05
-2.78483e-05
-3.42647e-05
-3.95801e-05
-3.66698e-05
-3.16992e-05
-1.91445e-05
-3.89726e-05
-2.37733e-05
-1.7934e-05
3.289e-06
1.52702e-05
-1.86884e-05
3.18669e-05
-3.2923e-05
5.03261e-06
5.40623e-05
2.04327e-06
2.14443e-05
1.95278e-05
-9.23708e-06
-5.27271e-06
-1.53119e-05
2.28842e-06
-1.45618e-05
-7.19e-05
1.42139e-05
-8.47289e-06
-2.4181e-05
6.72279e-06
-2.14419e-05
-5.86185e-05
-3.21221e-05
9.51776e-06
-5.03719e-07
4.9176e-05
-2.77986e-06
-9.761e-07
3.15887e-05
5.02834e-06
-7.42653e-06
-1.3135e-05
-5.75595e-06
2.07136e-05
-4.91139e-06
2.33375e-05
2.70026e-05
1.61837e-05
8.28796e-06
-7.58915e-06
3.05406e-05
-7.32903e-06
1.93275e-05
-3.87614e-05
-2.87152e-06
-1.38045e-05
-1.69234e-05
9.71846e-06
3.47584e-05
4.70677e-06
-3.51077e-05
-8.16088e-05
6.93337e-05
1.14371e-05
8.03041e-06
-2.39568e-05
-5.45839e-05
-3.04539e-05
1.31291e-05
2.88671e-05
5.496e-05
1.92076e-06
-7.57132e-06
-4.01377e-06
-1.18212e-05
-2.12873e-05
3.56622e-05
2.08824e-05
-3.13202e-05
-4.01483e-05
-1.96532e-05
-1.31396e-05
-3.88483e-05
-2.22544e-05
3.96295e-05
5.03478e-05
3.234e-05
1.59474e-05
-2.0511e-05
1.3812e-05
-8.36049e-05
5.23767e-06
2.78255e-05
-6.36476e-06
-7.23348e-06
1.61159e-05
8.6237e-06
5.03924e-05
-9.62242e-06
-1.20761e-05
4.6674e-05
2.79488e-05
-2.08674e-06
1.72552e-05
-4.35701e-05
2.428e-05
-1.94279e-05
-1.02882e-05
-4.50454e-07
-2.09584e-05
-7.88756e-07
-1.15726e-06
-1.96546e-05
-1.45005e-05
3.10654e-06
1.3844e-06
7.16088e-05
-5.9689e-06
-1.76753e-05
-3.30578e-05
2.43337e-05
-2.14396e-05
-3.08186e-05
-1.38508e-05
-4.05997e-06
-6.83077e-06
-4.6803e-05
-2.34757e-05
1.82339e-05
-3.15242e-05
1.58115e-05
4.2059e-05
-7.1856e-07
-1.22269e-05
1.83959e-05
2.21978e-05
2.5887e-06
1.67508e-05
2.09133e-05
-5.57508e-06
1.52921e-05
2.1745e-05
1.92147e-06
3.27895e-05
-4.95904e-05
-2.34219e-05
-2.07648e-05
-3.36265e-05
-5.09177e-05
-3.05961e-05
-1.92432e-07
-4.71663e-05
-1.49657e-05
-3.07915e-06
-2.33491e-05
-1.79423e-05
-2.38966e-05
-3.75925e-05
-1.39862e-05
-3.37361e-06
1.32311e-05
2.48104e-05
4.46454e-05
-1.42044e-05
3.05135e-05
6.34957e-05
3.36685e-05
5.89194e-05
9.15524e-05
0.000173867
0.000195433
0.000310531
0.000467864
0.000652737
0.00111375
0.00167384
0.00254532
0.00389391
0.00607616
0.00932414
0.0143841
0.0220214
0.0341704
0.0524906
0.0812226
0.125037
0.193794
0.298714
0.463592
0.715869
1.11273
1.72064
2.67843
4.14767
6.46513
10.0257
15.6453
24.2908
37.9425
58.9664
92.1659
143.32
224.055
348.39
544.269
845.081
1316.86
2035.05
3149.87
4803.62
7314.55
10737.3
15731.2
20278.3
27134.2
14479.9
28036.8
-1.33104e-05
2.6902e-05
-3.69933e-05
-9.44171e-07
2.04209e-05
6.18096e-06
-2.52326e-05
-1.0826e-05
-2.39758e-05
1.29811e-05
1.3078e-05
-6.88146e-06
6.16734e-06
-1.48073e-05
-4.46947e-05
4.47807e-05
2.08525e-05
5.33719e-06
5.84245e-06
6.21857e-05
2.46374e-05
9.12234e-06
3.82415e-05
-1.59025e-05
-4.93515e-05
-3.99469e-05
2.36722e-06
2.98624e-05
-4.52204e-06
-3.92775e-05
-2.49966e-05
5.67092e-06
4.5815e-05
4.68973e-05
5.34985e-05
1.45322e-06
-3.76328e-05
1.1512e-05
-4.44066e-05
9.29186e-06
-1.26733e-05
2.43918e-06
-3.21589e-05
-2.15807e-05
3.3775e-05
-2.20004e-06
-1.24184e-05
3.77054e-05
2.15026e-05
-3.33431e-05
2.51262e-07
-5.46709e-06
-1.75132e-05
3.91015e-06
1.0278e-05
-1.17276e-05
-1.37558e-05
-3.17224e-06
2.19818e-06
-2.20959e-05
-4.08564e-05
-1.59924e-05
-2.68602e-05
3.091e-05
5.51252e-05
-2.482e-05
-3.96386e-05
1.14957e-05
-7.91201e-06
-4.4401e-06
9.94858e-06
3.4143e-05
1.88844e-06
-2.27007e-05
1.97948e-05
-9.13435e-07
-2.19325e-05
-6.48723e-06
-2.53949e-05
-5.13111e-06
5.48778e-05
-1.91231e-05
-1.14524e-05
3.33866e-06
-1.31572e-06
7.52215e-06
-2.28001e-05
6.70739e-06
-3.66854e-07
-2.30937e-05
3.23962e-06
-3.41792e-05
-1.21184e-05
-1.42811e-05
1.16946e-05
3.22312e-06
2.31286e-05
-2.31641e-05
2.13104e-05
2.51106e-05
-8.41966e-06
-3.19814e-05
1.84918e-05
2.4711e-05
-2.74081e-05
7.22572e-05
1.51753e-05
-3.45182e-05
1.48662e-05
2.46825e-05
2.66372e-05
-4.17013e-05
-5.99126e-05
1.84796e-05
3.58523e-05
-3.63107e-05
-3.41262e-05
-1.53571e-05
-3.85095e-05
-5.68627e-05
-2.25509e-05
7.37388e-06
-1.83571e-06
4.26627e-06
2.06946e-05
-1.92304e-05
-1.00961e-05
1.82451e-05
2.44082e-06
6.03682e-05
7.9343e-06
1.16973e-05
3.85783e-06
-5.85138e-08
-1.13956e-06
3.45998e-05
7.0544e-05
3.26222e-05
2.36321e-05
1.89339e-05
5.90115e-06
-2.9284e-05
-4.98441e-05
1.40818e-06
-8.66723e-06
-5.40158e-05
-6.83538e-05
-2.76628e-05
-1.08942e-05
-4.10381e-06
7.18525e-06
3.20423e-05
8.99971e-06
2.98195e-05
2.22081e-05
2.42683e-06
-2.33473e-05
-2.65469e-05
1.4311e-05
-3.13767e-05
-1.43757e-05
-1.97458e-05
9.79141e-06
3.47136e-05
-1.42908e-05
-2.1299e-05
1.5076e-05
-6.47464e-05
-1.24556e-05
-5.81868e-06
-3.90631e-07
3.53484e-05
-2.38568e-05
-6.4879e-06
-4.06887e-05
3.51857e-05
5.57025e-05
-2.2314e-05
-4.10422e-05
-9.03972e-07
1.40176e-05
1.98352e-05
4.78435e-05
3.10065e-05
1.5875e-05
-3.15497e-06
2.61998e-05
6.29111e-06
1.36563e-06
-2.88136e-05
2.78827e-05
1.01163e-05
3.98407e-05
4.73055e-05
-7.52023e-06
-1.08298e-05
-4.01251e-05
-3.61661e-05
-2.81869e-06
-8.94884e-06
3.21271e-05
-1.4884e-05
-3.30978e-05
-8.52178e-06
6.28872e-06
8.78411e-06
-2.17641e-05
2.32688e-05
-4.43352e-06
-3.66278e-05
-2.81645e-05
-1.23614e-05
-3.49411e-05
-2.56873e-05
-1.25434e-05
4.44549e-05
6.18808e-06
-5.68349e-05
-7.63825e-06
-9.71391e-06
-4.93896e-06
3.23518e-05
2.9215e-05
3.51842e-05
3.0034e-05
8.92581e-06
-1.25766e-05
-3.45377e-05
3.35479e-05
7.11125e-05
-3.33743e-05
-4.60437e-05
5.47131e-06
5.8739e-05
3.09253e-05
4.21772e-05
9.77974e-06
-1.41324e-05
-2.0128e-05
-3.1294e-07
7.78816e-06
-3.03654e-05
-4.39284e-06
-2.09846e-05
-1.1663e-05
5.60204e-06
4.51914e-05
1.88913e-05
-1.11587e-05
1.88021e-05
6.16625e-05
5.06411e-05
9.70202e-05
0.000187459
0.000277293
0.000457207
0.000633821
0.00103978
0.0014869
0.00226376
0.00350753
0.00544644
0.00830254
0.0128709
0.0197112
0.0303981
0.0467147
0.0721308
0.110802
0.171359
0.263705
0.408267
0.629114
0.975339
1.5049
2.33611
3.60881
5.60843
8.67422
13.4942
20.8932
32.5307
50.4113
78.5399
121.783
189.791
294.33
458.556
710.58
1105.46
1708.04
2647.11
4055.66
6231.54
9316.2
14079
19420.9
28876.4
27405.3
57865.2
-3.96603e-05
-9.41572e-06
0.000102508
9.41953e-06
-4.1536e-06
9.35388e-06
-6.35897e-05
-1.72332e-05
-4.08635e-06
-1.55791e-06
6.77965e-06
-2.6421e-05
-1.46381e-06
1.73876e-05
-2.10917e-05
-1.20362e-05
-4.59389e-05
7.92118e-06
-2.33812e-05
-1.74567e-05
9.5388e-06
-2.95432e-05
-1.52865e-05
7.01041e-06
-7.50252e-07
-2.59343e-05
-5.92885e-05
1.30973e-05
1.29143e-05
1.92455e-05
-9.16913e-06
3.84576e-05
8.97076e-06
-1.29461e-05
2.92062e-05
4.98058e-05
-1.89376e-05
7.1269e-06
5.17455e-05
1.54553e-05
-2.66753e-05
-2.22606e-05
-7.75239e-06
3.25162e-05
-7.85685e-06
3.49343e-05
5.98858e-06
2.43371e-06
3.97806e-06
-4.3182e-05
-2.47349e-05
-4.12163e-05
-3.1992e-05
-1.51948e-05
-5.22715e-05
-1.44133e-06
3.33163e-05
3.65738e-05
-1.06142e-06
5.49989e-05
-2.85765e-05
-4.30749e-05
2.02008e-05
-2.21756e-05
-4.76262e-05
-3.57009e-05
-1.74237e-05
-1.5288e-06
8.15801e-05
-1.80922e-05
2.13837e-05
1.11033e-05
1.18514e-05
1.06251e-05
3.69408e-06
4.02881e-05
-1.85068e-06
1.34528e-05
2.06777e-05
3.39251e-05
-3.61282e-05
9.50992e-06
-2.73955e-05
1.677e-06
4.39694e-05
-1.4543e-05
1.09007e-05
-1.51428e-05
-1.20571e-06
1.78414e-05
5.10544e-05
1.38356e-05
-3.00534e-05
2.6123e-05
2.21123e-05
1.13617e-05
8.52224e-06
9.40616e-05
2.69874e-05
-3.08277e-05
-2.78828e-05
2.74905e-05
3.65039e-05
1.13455e-05
-4.31054e-06
-5.5625e-06
4.92619e-05
4.13473e-05
1.82966e-05
-3.90814e-06
1.95135e-05
2.69664e-06
-1.46428e-05
-3.74078e-06
-1.22691e-05
1.19812e-05
7.82851e-06
6.56583e-06
2.0284e-05
-1.95802e-05
-4.89924e-05
-1.07977e-05
-4.59404e-07
-1.27944e-05
2.38351e-05
6.17338e-06
6.63369e-07
-1.15084e-05
-1.01476e-05
-2.62598e-05
-8.11934e-05
4.65332e-06
2.73475e-05
-1.5164e-05
-2.833e-05
4.22902e-05
6.18278e-06
5.41968e-05
-3.78667e-05
2.35351e-05
-2.50112e-07
-4.63736e-06
3.5496e-05
1.66709e-05
2.78938e-05
-3.30491e-05
-2.17976e-05
-4.23181e-05
-6.76791e-06
2.59766e-05
-3.16891e-05
-3.52951e-05
-2.64951e-05
-3.63766e-05
3.24818e-06
-2.99874e-06
3.147e-05
1.55658e-05
1.16168e-05
-1.10799e-05
3.06107e-05
-1.74058e-05
1.07979e-05
-2.76462e-05
-4.3525e-05
2.45247e-05
8.002e-06
-4.54893e-05
-6.85155e-05
3.29221e-05
4.52034e-06
2.71988e-05
3.10117e-05
2.46646e-05
-1.58959e-05
-1.38159e-05
-1.20191e-05
-1.44358e-05
4.65688e-05
-7.84366e-06
-3.42811e-05
1.266e-05
1.71764e-05
3.38025e-05
-2.25807e-06
-4.69487e-05
1.27178e-05
-8.57753e-06
-3.87312e-05
-3.14425e-05
-2.35322e-05
1.05347e-05
8.43113e-05
3.13678e-05
1.6521e-05
2.85646e-05
6.53497e-06
7.65036e-06
-1.10299e-06
-2.29798e-05
-6.62166e-05
-5.10828e-05
-5.44472e-05
1.83032e-05
2.49732e-05
6.43206e-06
-1.21839e-05
4.94682e-05
1.50301e-05
-9.49742e-06
-6.16594e-06
1.36323e-05
3.7014e-05
3.51806e-05
1.82305e-05
-7.40594e-05
1.94306e-05
2.64841e-05
-1.17598e-05
2.70277e-05
-4.31479e-05
7.515e-06
-2.86593e-05
-4.86805e-06
-4.92463e-06
-5.6738e-06
-5.56126e-05
2.98826e-05
-1.4155e-06
-1.00076e-05
1.49775e-05
2.79289e-05
1.78242e-05
4.66204e-05
5.52593e-06
-2.09254e-05
4.15157e-05
-9.81883e-05
-2.07876e-05
-1.9156e-05
-3.03455e-05
-2.32773e-06
-5.78295e-05
-9.02225e-06
1.54811e-06
6.80406e-05
2.25276e-05
2.81625e-05
5.11322e-05
9.75912e-06
5.55261e-05
1.22917e-05
0.000102187
0.000178159
0.000244296
0.000370361
0.000533633
0.000824755
0.00129618
0.00203178
0.00307029
0.00472837
0.00723519
0.0111356
0.0170916
0.026355
0.0404223
0.0623553
0.0957589
0.147764
0.227059
0.350889
0.539657
0.834548
1.28485
1.989
3.06541
4.75001
7.32817
11.3651
17.55
27.2392
42.0961
65.3763
101.095
157.059
242.935
377.41
583.562
905.928
1398.28
2166.29
3325.16
5130.17
7743.21
11886.4
16956.6
26388.8
29688.5
63798.5
9.18065e-06
1.32217e-05
-1.03186e-05
1.17831e-05
-8.04288e-06
3.17211e-05
1.016e-05
-1.79469e-05
3.13943e-06
4.28171e-05
-2.2166e-05
3.71605e-05
-2.83582e-05
-7.88339e-06
-8.00176e-06
1.09878e-05
2.73302e-05
-5.85857e-05
-2.50306e-05
-2.80934e-06
2.27855e-05
3.3117e-05
3.13697e-06
-5.16959e-06
-5.63689e-05
-1.4462e-05
6.31295e-05
-4.1873e-05
-9.96202e-05
-4.91031e-05
-8.55283e-06
-2.722e-05
3.34933e-05
-2.83044e-05
-7.50264e-06
5.19663e-05
5.1426e-06
2.60622e-05
9.65635e-06
-5.20426e-05
-1.22003e-05
-8.21119e-06
3.25872e-05
2.75871e-05
-3.08295e-06
-3.76754e-05
-5.25102e-06
-3.16816e-05
2.82087e-06
-3.04402e-05
1.45876e-05
3.51443e-05
3.73776e-05
-2.46579e-05
-3.16966e-05
3.4862e-05
2.17775e-05
1.20388e-05
1.3195e-05
1.52613e-05
4.30607e-06
-9.84565e-06
4.62017e-05
4.46555e-05
9.78134e-06
1.56576e-05
-9.36168e-06
-1.56731e-05
-3.16125e-05
-1.0381e-05
-2.88025e-05
-4.45005e-06
3.06397e-05
-2.74567e-05
1.31618e-05
-7.61911e-06
-4.09732e-05
-3.7524e-05
-8.37146e-06
-2.47849e-05
-2.93976e-05
-4.22818e-05
6.91425e-07
-3.1231e-06
2.3071e-05
4.18753e-05
4.38248e-05
2.70469e-05
1.47814e-05
2.12173e-05
4.01032e-05
-9.54107e-07
-6.12854e-06
-3.92948e-05
4.22176e-05
-7.9721e-06
-6.09413e-06
4.13415e-05
-1.15014e-05
-2.94643e-06
3.21293e-05
1.01109e-05
1.17666e-05
5.20103e-05
-1.24168e-05
1.50401e-05
6.01154e-05
-6.53547e-06
-4.93732e-05
-2.62598e-06
1.69111e-05
-4.55313e-05
-2.14489e-05
-6.83732e-05
1.27073e-05
-1.5386e-05
-3.45663e-05
-6.624e-06
6.4205e-06
-3.0683e-05
2.32544e-05
9.59428e-06
5.32627e-05
-1.07593e-05
-1.65455e-05
2.66354e-05
-9.19052e-06
-2.01037e-05
-1.11459e-05
-1.76519e-05
-7.15039e-05
-1.75891e-05
4.04737e-05
-2.46192e-05
2.40947e-05
2.7529e-05
1.9671e-06
1.24329e-06
-4.85593e-05
3.11864e-05
1.75114e-05
-6.51972e-05
-3.03698e-05
-3.18212e-05
-6.12629e-06
-2.80134e-05
-1.76288e-05
-3.9937e-05
-1.75813e-05
3.21112e-05
-2.19613e-05
-8.31748e-06
-2.06953e-05
9.71836e-06
5.35053e-06
1.05937e-05
-4.44017e-05
-4.18387e-05
-9.28114e-06
-3.23194e-05
-5.16346e-05
3.62131e-05
4.26968e-05
-2.35874e-05
-3.427e-05
3.64311e-06
5.42373e-07
-6.71386e-06
1.38695e-05
-1.19813e-05
-3.37066e-06
8.6184e-06
-9.24956e-06
-9.58904e-07
-2.50705e-05
-1.173e-05
3.62869e-07
4.75306e-05
1.06877e-05
3.41057e-05
5.34518e-05
5.60597e-05
3.89699e-05
-4.42928e-06
1.16624e-05
1.91577e-05
3.31862e-06
-2.76045e-05
-4.94828e-05
3.69494e-06
-1.53076e-05
-1.71177e-05
1.0287e-05
2.55172e-05
1.14607e-05
6.19634e-06
-5.35421e-06
-5.83044e-05
1.92124e-05
2.33557e-05
1.10397e-05
2.36695e-05
1.05609e-05
-2.915e-05
1.72615e-05
-2.40665e-05
-9.4327e-06
-5.24043e-05
1.77876e-05
1.03586e-06
4.45412e-08
-7.88138e-06
-3.42516e-05
4.04967e-06
-1.52244e-05
2.03073e-05
3.31728e-05
4.47446e-05
2.3321e-05
-1.13254e-05
-5.06209e-06
-1.04633e-05
-1.89332e-05
-6.63692e-06
-8.64963e-05
-3.64996e-05
-6.30974e-05
-5.04904e-05
-3.66637e-05
2.27658e-06
-1.25137e-05
-1.98848e-05
-1.55713e-05
-2.05604e-05
-6.25589e-05
-2.69267e-05
-1.07254e-05
-3.15921e-05
-1.42136e-05
2.14426e-06
3.15091e-05
1.86678e-05
-1.74614e-05
-1.41169e-05
2.99734e-05
2.59758e-05
1.73279e-07
7.85636e-06
-3.79516e-06
3.57335e-05
7.80162e-05
4.1493e-05
7.92772e-05
0.000137916
0.00018498
0.000320911
0.000458512
0.000666322
0.0011205
0.00166119
0.00251667
0.00396137
0.00611622
0.00941439
0.0144201
0.0222457
0.0341657
0.0526437
0.080713
0.124389
0.190911
0.294347
0.45201
0.697502
1.07173
1.65511
2.54543
3.93405
6.05556
9.36604
14.4282
22.3313
34.4256
53.3132
82.2347
127.406
196.593
304.63
470.028
728.145
1122.31
1737.05
2667.38
4122.39
6253.44
9678.15
14065.3
22392.9
27245.4
58838
-8.58897e-06
2.77758e-05
-2.39732e-05
5.34355e-05
-1.35502e-05
-2.88061e-05
4.56818e-05
-2.03823e-05
-3.51066e-05
6.18514e-05
1.48129e-05
-2.23149e-06
2.57595e-05
1.93074e-05
-6.12429e-06
-3.8179e-05
4.43259e-06
1.27461e-06
-4.20395e-06
7.04807e-06
-7.75787e-06
7.48213e-06
2.4575e-05
-6.67438e-06
1.19368e-05
-1.88749e-07
5.32548e-05
8.62237e-06
-1.82336e-05
-3.25392e-07
1.17818e-06
-1.43886e-05
1.65735e-05
-6.13239e-06
2.44e-05
1.24246e-05
-2.38371e-05
-7.1521e-06
8.91772e-05
5.32596e-05
-3.60122e-05
-3.24006e-05
3.12486e-06
1.81443e-05
-3.87545e-05
-1.34385e-05
-3.86043e-06
-3.3706e-05
-4.19151e-05
-2.91894e-05
6.18607e-06
5.43404e-05