/*--------------------------------*- C++ -*----------------------------------*\
| =========                 |                                                 |
| \\      /  F ield         | OpenFOAM: The Open Source CFD Toolbox           |
|  \\    /   O peration     | Version:  2412                                  |
|   \\  /    A nd           | Website:  www.openfoam.com                      |
|    \\/     M anipulation  |                                                 |
\*---------------------------------------------------------------------------*/
FoamFile
{
    version     2.0;
    format      ascii;
    arch        "LSB;label=32;scalar=64";
    class       volScalarField;
    location    "0.0015";
    object      ddt0(rho);
}
// * * * * * * * * * * * * * * * * * * * * * * * * * * * * * * * * * * * * * //

dimensions      [1 -3 -1 0 0 0 0];

internalField   nonuniform List<scalar> 
180000
(
4.76616e-11
-5.58486e-11
1.5002e-10
8.39212e-11
-9.45172e-11
5.75319e-12
-1.0946e-11
1.57079e-10
1.97175e-12
-4.10795e-11
-1.54446e-10
-2.09003e-11
-1.56101e-11
1.59879e-10
1.01104e-10
8.33902e-11
-8.77373e-11
6.17992e-11
2.10184e-10
-1.07995e-10
-3.0317e-11
-1.6205e-10
-4.81637e-11
7.27101e-11
-1.87835e-10
-9.03872e-11
3.92087e-11
-7.74814e-11
5.87273e-11
-8.25468e-11
3.68826e-12
1.80727e-10
1.02141e-10
-1.02283e-10
9.08189e-11
2.05352e-10
-7.29779e-11
5.76945e-11
-6.78611e-11
1.99963e-11
-1.57538e-10
-2.51399e-10
5.75978e-11
4.4009e-11
-4.74735e-11
8.04558e-11
-6.03877e-11
3.66162e-12
8.50554e-11
-6.36849e-11
-1.59453e-11
3.77743e-11
-1.50252e-10
1.65283e-10
-2.42627e-11
4.28005e-11
-7.47911e-11
-1.40824e-10
-3.991e-11
-6.23452e-11
-1.82892e-10
1.16313e-10
-1.60741e-10
1.34321e-10
2.92118e-10
2.00129e-10
1.82236e-10
1.57672e-10
-9.16243e-11
1.11212e-10
8.10491e-11
-1.79277e-10
1.87708e-11
-2.55295e-11
-1.9617e-10
-1.12596e-10
6.91754e-11
1.14429e-11
-1.90883e-11
8.05354e-11
8.7814e-12
8.69403e-11
2.48873e-10
-7.16199e-12
3.87044e-11
1.12005e-10
-5.98839e-11
-1.2147e-10
-1.23683e-10
1.90481e-10
7.1861e-11
5.69844e-11
2.35758e-10
-6.43795e-11
-2.05612e-11
2.3399e-10
1.88217e-10
1.36355e-10
1.93668e-10
7.27077e-12
-2.04474e-11
2.16778e-10
1.27799e-10
9.99518e-11
1.60992e-10
-2.40603e-12
-2.30731e-10
1.32718e-10
1.27238e-10
-4.56437e-11
-7.98397e-11
-3.68127e-10
-2.34196e-10
3.43725e-11
1.13689e-10
1.45593e-10
3.47976e-11
2.44207e-11
7.97694e-11
8.4262e-11
-3.16695e-11
1.32743e-11
2.30602e-10
3.1402e-10
4.63578e-12
-3.48865e-11
4.74244e-11
-4.01138e-11
4.06705e-12
-1.34794e-10
4.77233e-11
7.92862e-11
9.38003e-11
4.4874e-11
2.97699e-11
1.60688e-10
-1.32889e-11
-3.1965e-11
-2.55382e-10
-2.12424e-10
-5.9351e-11
-1.81913e-10
-5.47921e-11
1.11301e-11
8.59754e-13
1.62834e-10
8.73274e-11
3.21305e-10
-8.19227e-11
-2.57171e-11
-1.20142e-10
-3.17929e-10
-1.88051e-10
-7.07583e-11
-2.19158e-10
8.85333e-11
2.38639e-10
7.25588e-11
-8.95365e-12
1.0232e-10
4.85986e-11
2.93705e-10
1.51189e-10
-2.33478e-10
-8.09281e-11
6.50981e-11
-1.45729e-10
1.19098e-11
8.16298e-11
1.03649e-10
9.92516e-11
1.60843e-10
-5.97378e-11
6.04274e-11
3.05414e-10
-4.22285e-11
-1.00701e-10
2.77052e-11
-3.25314e-11
6.90775e-11
2.12631e-10
2.84906e-10
1.16167e-10
1.21028e-10
-1.87913e-11
9.53307e-11
-1.37842e-11
-9.49063e-11
3.82298e-12
-1.39778e-10
-1.51748e-11
-2.37908e-11
6.35452e-11
2.81879e-10
2.01376e-10
8.92017e-11
1.85734e-10
-3.55595e-12
4.73379e-12
9.26757e-11
5.59862e-11
3.68074e-11
2.08575e-11
1.06656e-11
3.59121e-11
-1.84732e-11
1.63414e-10
3.53921e-11
-3.76462e-11
1.79131e-10
2.21738e-10
7.93151e-11
6.34779e-11
-2.69265e-12
-1.08735e-10
-1.45562e-11
-1.08137e-11
2.65029e-11
1.03322e-10
2.43289e-10
5.70518e-11
7.24156e-12
1.40788e-10
1.25573e-10
8.73981e-11
-1.14759e-10
-1.36663e-10
2.53768e-11
-1.20326e-10
9.51864e-12
2.07526e-10
2.88855e-12
2.21512e-10
6.36271e-11
-9.52858e-11
8.15249e-13
5.72315e-11
-7.5568e-11
5.10524e-11
-5.23356e-11
-1.06817e-11
9.47618e-11
1.53501e-10
1.85634e-10
2.14405e-10
4.29623e-10
5.92228e-10
1.39176e-09
2.11647e-09
2.95698e-09
4.58672e-09
7.20718e-09
1.1207e-08
1.80968e-08
2.83089e-08
4.39186e-08
6.8367e-08
1.06362e-07
1.65594e-07
2.5793e-07
4.00722e-07
6.23261e-07
9.70123e-07
1.50815e-06
2.34177e-06
3.64098e-06
5.66183e-06
8.799e-06
1.36669e-05
2.12563e-05
3.30559e-05
5.14e-05
7.99174e-05
0.000124405
0.000193633
0.000301491
0.000469496
0.000731898
0.00114096
0.00177983
0.00277708
0.00433741
0.00677532
0.0105924
0.0165641
0.0259271
0.0405899
0.0635989
0.0996627
0.15629
0.245035
0.384272
0.601883
0.941904
1.46775
2.27913
3.49246
5.31015
7.74824
11.302
-4.06329e-11
-1.39847e-10
-4.28197e-11
-9.87854e-11
-2.26955e-11
-1.04606e-11
9.84858e-11
3.28721e-11
6.02154e-11
-1.49309e-10
-1.30099e-10
1.51895e-10
2.59781e-11
-6.4022e-12
9.07165e-12
-2.29303e-11
-1.67391e-10
4.29957e-11
5.27543e-11
-8.51714e-11
5.55308e-11
9.49567e-12
1.05267e-11
5.31809e-11
-2.51467e-11
6.79555e-11
5.05902e-12
-2.12271e-11
-4.75785e-11
-8.39538e-11
-1.19217e-10
6.20062e-13
-1.7124e-10
-8.16272e-11
-9.12067e-11
3.33492e-10
3.00677e-10
2.29212e-11
-1.78376e-10
8.59648e-11
6.94256e-11
6.24078e-11
2.12143e-11
-1.43156e-10
1.0221e-10
2.18195e-10
1.69484e-10
-1.96123e-10
-1.26072e-10
-3.11501e-11
-1.29285e-10
-2.40749e-10
-9.40189e-11
5.73742e-11
1.38397e-10
8.52672e-11
1.67878e-10
6.8789e-12
-2.36629e-10
4.06813e-12
1.0129e-10
8.16515e-11
1.65583e-10
-1.22717e-10
5.17531e-11
2.92355e-10
1.43482e-10
1.96201e-10
8.67468e-11
4.94591e-11
2.35658e-10
6.2734e-11
-1.59626e-10
-1.11426e-10
-1.20723e-10
4.44112e-12
1.47138e-10
2.20599e-11
1.55617e-10
2.76578e-11
1.95883e-11
1.14707e-10
1.53149e-11
-1.54359e-10
1.41999e-10
1.97463e-10
5.62149e-11
-5.90041e-11
4.42198e-11
4.07558e-11
2.7409e-10
6.80018e-11
1.32752e-10
2.3445e-10
-8.62822e-11
4.78066e-11
3.27359e-12
7.07722e-11
-3.09296e-11
2.17839e-13
-8.10269e-11
-7.44405e-12
-4.23618e-11
-9.15157e-11
-9.61932e-11
9.53648e-11
-1.06949e-10
1.677e-10
1.3323e-10
-1.7025e-10
3.21772e-12
-1.73409e-11
-1.00693e-10
-8.01746e-11
1.87785e-10
1.2493e-11
2.28769e-11
9.19833e-11
-1.61605e-10
-3.42134e-10
-8.71691e-11
1.04517e-10
1.02547e-10
1.68728e-10
-1.7459e-10
-8.92962e-11
-8.45126e-11
-1.64229e-10
-5.42138e-12
1.59116e-10
-1.32786e-11
1.36603e-10
1.08253e-10
-1.80354e-10
-8.5547e-12
-1.25263e-10
-6.45963e-11
1.76677e-11
-9.03134e-11
3.41134e-11
-1.04273e-10
5.10592e-11
-6.66717e-11
-1.66312e-10
-9.96488e-11
-3.91788e-11
5.74904e-11
-9.10939e-11
2.19005e-12
-1.13603e-10
-1.00982e-10
-9.7971e-11
-3.73541e-11
8.43053e-11
-1.23254e-10
1.66253e-10
2.45326e-10
-2.3972e-10
1.66895e-11
-9.10548e-11
-8.92206e-11
-1.58491e-10
-2.26008e-10
-6.14337e-11
-2.64431e-10
9.6477e-11
2.83389e-10
1.02688e-10
6.34572e-11
-9.83227e-11
3.74012e-11
6.09965e-11
-7.49796e-11
1.82756e-10
6.20291e-11
-5.66075e-11
5.52928e-11
-7.78015e-11
1.24425e-10
-4.53643e-11
2.54869e-11
-1.51812e-10
3.66561e-11
-2.41438e-11
-1.91679e-10
2.06552e-10
9.39297e-11
-5.53378e-12
-1.93475e-11
-1.39006e-11
5.5712e-11
3.9232e-11
-7.02463e-11
-6.05157e-11
-1.03158e-10
-1.18724e-10
-2.21736e-12
1.00624e-10
-3.955e-11
-3.4858e-11
1.3884e-11
-5.95903e-11
-1.27861e-10
-1.95722e-10
-8.82458e-13
3.42193e-10
9.66624e-11
3.156e-10
1.26282e-10
1.27218e-11
2.8294e-10
3.00914e-10
3.59221e-11
1.17187e-10
-2.42117e-11
-2.56669e-10
-1.11324e-10
-5.78746e-11
-7.49853e-11
2.91583e-11
3.45292e-11
1.31724e-10
-5.65915e-11
1.77685e-10
1.1496e-10
1.62317e-10
5.0447e-11
3.55737e-11
5.91361e-11
2.17505e-11
-3.52711e-11
7.02577e-11
-9.8445e-11
-1.46549e-10
-8.77835e-11
-1.03282e-11
1.45394e-10
1.43889e-10
1.62174e-10
-1.35109e-10
-2.32702e-10
1.36689e-10
-2.10754e-11
1.0695e-10
3.31856e-10
4.61288e-10
1.00886e-09
1.22188e-09
2.05315e-09
2.8896e-09
4.53924e-09
7.12186e-09
1.10802e-08
1.7314e-08
2.71329e-08
4.18136e-08
6.53538e-08
1.0223e-07
1.58838e-07
2.47352e-07
3.84862e-07
5.98305e-07
9.29492e-07
1.44521e-06
2.2452e-06
3.48779e-06
5.41526e-06
8.41455e-06
1.30701e-05
2.03034e-05
3.1534e-05
4.90141e-05
7.6163e-05
0.000118399
0.000184051
0.000286335
0.000445407
0.000693275
0.00107915
0.00168114
0.00261894
0.0040828
0.00636543
0.0099321
0.0154978
0.0241998
0.0377891
0.05905
0.0922633
0.14423
0.225381
0.352228
0.549823
0.857543
1.33307
2.06623
3.17268
4.84089
7.17866
10.6259
-1.04219e-10
6.17277e-11
6.24528e-11
-3.02494e-11
-1.00189e-10
4.4329e-11
1.7835e-11
-1.2471e-10
4.13917e-11
4.02193e-11
-3.05825e-11
1.39991e-11
3.91854e-11
-1.23471e-10
9.24906e-11
1.55049e-10
-1.12288e-10
-7.98117e-11
-1.15589e-10
-8.45574e-11
-2.38138e-10
-5.97416e-11
6.32276e-11
-3.20188e-11
1.78065e-11
-1.02509e-10
1.12482e-10
-4.13631e-11
-4.67879e-11
-5.09747e-12
-1.17496e-10
-2.68164e-11
-2.25287e-10
-1.3083e-10
1.20451e-10
8.47507e-12
-7.41435e-11
1.27567e-10
1.55521e-10
9.74703e-11
-2.10086e-10
3.93296e-11
-5.42396e-11
-8.52949e-11
2.33394e-10
3.84902e-11
5.34713e-11
-1.15716e-11
7.72847e-11
-9.7662e-11
-1.80705e-11
6.37563e-11
-4.7561e-11
-1.22556e-10
-4.56298e-11
8.38696e-14
5.5752e-11
-8.77099e-11
4.12065e-11
-2.11232e-11
1.29703e-10
1.73743e-10
1.04448e-10
-1.08864e-10
1.16966e-11
5.96239e-11
1.01742e-10
-7.34261e-11
-2.2943e-10
-1.06642e-10
-9.46158e-11
-7.21862e-11
1.36923e-10
6.45644e-11
-4.3554e-12
5.62619e-11
6.59598e-11
8.57423e-11
-1.42272e-10
2.6298e-11
1.9775e-10
2.96855e-10
-4.78017e-11
-1.95107e-10
-1.55908e-10
-1.44029e-10
-5.85047e-11
-1.45638e-10
1.03511e-10
1.21281e-10
2.58977e-12
4.51212e-10
5.50572e-11
1.60757e-10
8.79021e-11
5.96059e-11
7.10208e-12
-1.33124e-10
-6.17276e-11
-4.24162e-11
-6.74962e-11
-2.73163e-10
-9.95332e-11
4.3673e-11
-6.91309e-11
-2.93198e-11
-6.3153e-12
-4.90853e-11
5.1851e-11
-2.12498e-11
-5.21024e-11
-1.63558e-10
-1.40637e-10
-2.27086e-10
-1.15112e-10
-2.31401e-10
-7.07497e-11
-1.28839e-11
1.6234e-10
-1.23914e-10
-2.74184e-11
7.60662e-12
1.32594e-10
2.02546e-10
1.46678e-10
-6.32971e-11
-1.65376e-11
1.1213e-10
-1.17265e-11
2.95037e-11
-9.55513e-11
-1.20556e-10
1.54222e-10
-5.4125e-11
2.11448e-10
2.03646e-10
-1.89142e-10
-1.17056e-10
2.44981e-11
1.84035e-11
1.9027e-10
1.42415e-10
2.57925e-11
8.85685e-11
5.48112e-11
1.05181e-10
7.08276e-14
1.37095e-10
-1.18472e-10
-4.13387e-12
1.14742e-11
-1.15475e-10
-8.88544e-11
7.79359e-11
3.46186e-11
1.05352e-10
-8.54698e-11
-1.019e-10
2.55547e-11
9.91183e-12
-1.97019e-10
3.63893e-11
-7.16332e-11
-5.39658e-11
-4.33117e-11
-8.17599e-12
1.04003e-10
1.10167e-10
2.41127e-10
1.67608e-10
7.45502e-11
7.83426e-11
9.11012e-11
1.16159e-10
1.99511e-10
-3.27133e-11
1.25161e-11
3.36843e-11
-6.42358e-11
1.09368e-11
5.03867e-11
1.43674e-10
-3.04009e-10
-1.52606e-10
2.70297e-10
-7.73797e-13
-1.64726e-11
1.52541e-10
-2.27294e-11
1.21549e-10
1.51246e-11
4.14777e-11
1.11463e-10
-2.46933e-10
-1.27205e-10
1.88532e-12
-2.52059e-10
-1.62525e-10
3.33464e-11
-9.53344e-11
7.75718e-11
9.36719e-11
5.67792e-11
7.08622e-11
-3.80639e-11
-6.85766e-11
4.60568e-11
-3.12805e-10
-1.03228e-10
-2.07349e-10
8.465e-11
-1.95831e-10
1.84507e-11
4.43353e-11
1.23982e-10
1.07042e-10
1.45258e-11
8.22054e-11
-6.93092e-11
1.04976e-10
2.53804e-11
5.24288e-12
-8.70624e-11
-1.78359e-10
-3.05121e-11
-1.49956e-10
-1.54159e-10
7.23774e-11
1.0585e-11
-2.29521e-11
1.55595e-10
2.1115e-10
4.4816e-12
1.22725e-10
3.20123e-11
7.46579e-11
9.73731e-11
1.36002e-10
1.40116e-10
1.50796e-10
1.40608e-10
1.18007e-10
2.53315e-11
-3.02107e-11
3.6126e-10
4.50456e-10
7.29389e-10
1.06733e-09
1.73172e-09
2.61769e-09
4.02461e-09
6.61655e-09
1.02581e-08
1.6048e-08
2.49068e-08
3.89859e-08
6.07774e-08
9.4396e-08
1.46939e-07
2.28652e-07
3.54962e-07
5.51637e-07
8.56563e-07
1.33021e-06
2.0646e-06
3.20535e-06
4.97341e-06
7.71843e-06
1.19728e-05
1.85801e-05
2.88239e-05
4.47323e-05
6.94025e-05
0.000107736
0.000167208
0.000259644
0.000403123
0.000626273
0.000972834
0.00151208
0.00235005
0.00365474
0.00568333
0.00884331
0.0137592
0.0214205
0.0333436
0.0519304
0.0808606
0.125957
0.196112
0.305372
0.474991
0.738454
1.14485
1.77218
2.72168
4.17201
6.2359
9.41805
-5.72915e-11
6.06517e-11
4.90519e-11
2.02785e-11
-3.0836e-11
2.36007e-11
3.34826e-11
1.11595e-10
1.30777e-10
-1.23768e-10
-1.5884e-11
-4.52527e-11
-2.64189e-11
8.12552e-11
-1.73009e-10
-9.22958e-11
4.03495e-11
-1.7091e-10
7.13928e-11
7.03234e-11
3.02641e-11
-6.95016e-12
8.74508e-12
6.4441e-11
1.09306e-10
2.62222e-11
1.22914e-11
1.14151e-10
1.27232e-10
1.95609e-10
1.40124e-10
3.49608e-11
-9.81714e-11
-3.14161e-11
-8.6852e-11
-2.56819e-10
-9.03561e-11
-1.56039e-10
8.13709e-11
2.13326e-10
8.39404e-11
1.19125e-11
-1.07812e-10
-1.76354e-10
-1.82005e-10
-1.13117e-10
3.30079e-12
-6.47142e-11
2.91574e-10
2.41318e-11
-1.63235e-10
1.15927e-10
3.50624e-11
-8.82157e-11
1.36803e-10
-1.95801e-10
1.36067e-11
-3.22717e-10
-7.79426e-11
-1.08219e-10
-1.55012e-11
3.00504e-10
3.06772e-10
1.05184e-10
2.62697e-10
2.46009e-10
1.56065e-11
-7.89626e-11
5.36892e-12
-9.52479e-11
-1.22807e-10
-2.51541e-11
-3.90942e-11
6.40824e-11
4.76371e-11
-1.647e-10
-3.28713e-10
-1.43324e-10
-4.44926e-11
-1.34034e-10
-6.9278e-11
1.93813e-10
1.99837e-10
1.46024e-10
8.03103e-11
7.06535e-11
2.94316e-12
5.37491e-12
-3.99834e-11
1.44212e-10
-5.28858e-11
-1.44764e-10
-1.15368e-11
-3.63731e-11
8.01053e-11
-3.04128e-11
-3.60294e-11
-7.20423e-11
1.01428e-10
1.61938e-10
-1.20264e-10
2.40649e-11
-1.24206e-12
-1.73223e-11
-6.60575e-12
3.19957e-10
5.921e-11
9.39573e-12
-6.28044e-11
-1.22939e-10
-1.12936e-10
-7.80677e-11
5.3011e-12
6.25777e-11
4.37644e-11
5.50473e-11
1.77526e-10
1.55486e-10
-2.39515e-11
4.17076e-11
3.40655e-11
-6.63116e-11
2.09917e-10
1.36715e-11
-1.73985e-10
-1.43645e-10
-7.76373e-11
3.89977e-11
1.12088e-10
-2.35878e-11
-7.02767e-12
-2.01803e-11
-1.63996e-11
-3.63476e-11
-2.6234e-11
-1.47685e-11
-1.25315e-10
-2.09209e-10
7.34034e-11
1.06376e-10
3.25146e-11
2.34809e-10
1.58874e-10
3.43201e-10
3.84664e-11
1.80707e-10
2.30876e-10
2.63763e-10
1.53403e-10
1.03458e-10
-2.12383e-11
-1.23114e-10
9.95673e-11
5.68739e-11
-3.98604e-11
9.66965e-11
7.39393e-12
-1.32139e-12
1.18181e-10
-9.24914e-11
1.63749e-10
-1.59805e-11
2.44567e-10
1.04052e-10
1.2126e-12
-4.68543e-11
-8.60453e-11
-7.01529e-11
-9.90359e-11
3.38516e-11
-6.14885e-11
-2.73008e-11
1.32436e-11
-5.99187e-11
3.06715e-11
-3.43648e-12
1.24432e-10
2.6696e-10
4.92422e-11
1.40378e-11
1.27264e-10
4.22969e-11
9.25433e-11
1.32693e-10
1.09478e-10
2.36621e-11
-6.74536e-12
-8.49455e-11
1.36639e-10
-1.04266e-10
-6.96989e-11
5.23673e-11
4.45628e-11
-1.1305e-10
2.72055e-11
-7.05346e-11
2.29663e-11
5.85512e-11
-1.3166e-10
-3.35695e-10
-1.90193e-10
-7.89006e-12
1.21131e-10
-3.98822e-11
4.26477e-11
1.45709e-10
2.0375e-10
2.22022e-10
3.90674e-10
-5.29073e-11
9.78014e-11
9.39519e-11
-3.14253e-10
-2.79167e-10
-1.66059e-10
-1.13773e-10
-8.87936e-11
1.16616e-10
4.17369e-11
8.62904e-11
2.09728e-10
1.34591e-10
1.32881e-10
-1.0427e-11
-1.94734e-11
-5.81372e-11
-7.06845e-11
-2.00254e-11
-1.63564e-10
5.91314e-11
7.15608e-11
5.86883e-11
2.34422e-10
-6.7859e-11
-2.76026e-11
1.56837e-10
-4.42371e-12
5.07042e-11
-5.48157e-11
5.23076e-11
-1.64795e-11
1.80089e-10
1.75616e-10
6.92244e-11
-4.25541e-11
2.54038e-10
5.79127e-10
1.01579e-09
1.39623e-09
2.31361e-09
3.57153e-09
5.79393e-09
9.18613e-09
1.41909e-08
2.21568e-08
3.48187e-08
5.40576e-08
8.38323e-08
1.30665e-07
2.03199e-07
3.152e-07
4.90005e-07
7.60265e-07
1.17965e-06
1.82903e-06
2.83642e-06
4.39569e-06
6.81352e-06
1.05556e-05
1.63573e-05
2.53365e-05
3.92585e-05
6.08082e-05
9.4224e-05
0.000145958
0.000226198
0.000350462
0.00054325
0.000841907
0.00130541
0.00202371
0.00313884
0.00486754
0.00755213
0.0117151
0.0181814
0.0282105
0.0437903
0.0679536
0.105484
0.163661
0.253958
0.393692
0.610196
0.943564
1.45841
2.23923
3.44255
5.17572
7.92362
-4.84514e-11
1.89157e-11
4.08362e-12
-2.20468e-11
1.08369e-10
-2.03952e-13
-3.08221e-11
-6.90232e-11
-1.09639e-10
-6.77402e-11
1.53003e-10
-1.53568e-11
-6.07876e-11
-9.80818e-11
-1.07679e-12
1.50135e-11
9.27653e-11
7.53099e-11
-8.39704e-11
1.60839e-11
2.08539e-10
1.6269e-11
1.50531e-11
-1.33936e-10
-1.93807e-10
9.89013e-11
1.29981e-10
-3.28498e-11
-3.67226e-11
7.45229e-11
8.84409e-11
-1.1749e-11
3.69239e-11
-1.72106e-11
9.31869e-11
-7.08343e-11
1.45799e-11
1.7226e-10
1.09475e-10
-8.64039e-11
1.11446e-11
-5.97143e-11
-5.02098e-12
1.23319e-10
-3.91575e-11
7.8113e-11
2.57702e-11
9.84077e-11
7.26847e-11
-1.00059e-10
-8.41126e-11
-2.29047e-12
-1.02711e-10
-3.02314e-11
2.73791e-10
1.84244e-10
-1.16356e-10
-1.47612e-10
7.04152e-12
1.4153e-11
2.50622e-10
5.47252e-12
-1.19647e-10
1.19363e-11
-2.55804e-11
5.57461e-11
1.12366e-10
-8.63856e-11
5.25214e-11
-4.11433e-11
-2.19764e-10
-8.6722e-11
-7.9653e-11
1.09138e-10
-6.11668e-11
-1.6784e-10
2.08806e-10
3.16559e-10
3.75147e-10
3.20086e-10
2.46313e-10
5.73643e-12
7.27554e-11
8.23123e-11
-6.21623e-13
-1.0542e-10
-1.54884e-10
-1.01679e-10
-1.58412e-10
1.16178e-10
-8.00882e-11
2.16205e-11
6.60953e-11
5.42739e-11
1.83162e-10
-1.84753e-10
5.70392e-12
1.0088e-11
-4.41431e-11
2.35454e-10
-1.8015e-10
1.24574e-10
2.16211e-10
6.9734e-11
-1.43709e-10
8.03927e-11
1.21956e-10
-1.69089e-10
-1.80852e-10
1.81886e-10
8.29688e-11
-2.2218e-10
2.80678e-12
-1.90927e-11
-2.23742e-10
-1.4682e-10
7.40766e-11
-4.33017e-11
-1.32012e-11
7.12073e-11
4.74905e-11
2.92749e-10
-2.92261e-11
-5.36056e-11
4.18087e-11
-5.04721e-11
6.15705e-11
-5.76398e-13
3.24298e-11
6.4983e-11
4.45393e-11
3.34867e-11
-3.00542e-11
-4.0596e-11
1.8864e-11
-5.61019e-11
-1.39215e-10
6.20614e-11
-3.03284e-11
-2.58016e-11
9.45872e-11
1.91337e-11
7.97061e-11
-1.70877e-10
-1.12626e-10
4.44652e-11
4.87621e-11
3.95971e-11
-9.04988e-11
-1.26685e-10
-1.11211e-10
6.25821e-11
2.54314e-10
2.5212e-10
-7.10909e-11
7.95835e-11
-2.52747e-11
-1.09502e-10
1.38608e-11
1.37257e-10
1.93954e-10
-1.41951e-10
-2.21993e-10
-2.05745e-11
-1.17972e-10
-1.80498e-10
1.30567e-10
8.93972e-11
2.77239e-10
2.31778e-10
-2.3331e-11
2.57079e-11
7.32168e-11
-2.69083e-10
1.63541e-10
-7.92247e-11
-7.92338e-11
-1.98888e-11
1.76719e-10
1.17678e-10
-2.13579e-11
3.6205e-11
-6.31999e-11
3.36955e-10
3.88542e-11
1.13217e-10
1.20912e-10
4.69252e-11
1.03663e-10
-1.33333e-10
1.47414e-11
4.40205e-11
-7.09152e-11
7.57162e-11
6.17978e-11
-7.15172e-11
-2.13801e-11
-4.95462e-11
8.75595e-12
2.77864e-10
-8.69948e-12
-3.90486e-11
-8.93477e-11
6.57424e-11
-5.80453e-11
-2.82258e-11
-4.30788e-11
-8.69414e-11
-5.96383e-11
-2.63457e-10
3.63886e-11
-1.10863e-11
-7.87763e-11
-4.23141e-12
9.51833e-11
-9.76242e-11
7.67851e-11
2.81218e-11
9.91606e-11
1.77057e-10
1.08573e-10
1.4598e-10
-9.03619e-11
8.13644e-11
1.0169e-10
3.9748e-11
2.11375e-10
-1.19737e-10
-1.56363e-10
-4.01108e-11
-1.19801e-10
-1.79778e-10
-7.07298e-11
-2.5101e-11
-2.05779e-10
7.85588e-11
-8.66055e-11
5.19264e-11
-1.40962e-13
3.98694e-11
-1.03139e-10
-1.16466e-10
1.62257e-10
8.43072e-11
3.6733e-10
3.64165e-10
3.78022e-10
9.20466e-10
1.45079e-09
2.17991e-09
3.39139e-09
5.1555e-09
8.02341e-09
1.22402e-08
1.90633e-08
2.97904e-08
4.65646e-08
7.24064e-08
1.12331e-07
1.74485e-07
2.70732e-07
4.20474e-07
6.51797e-07
1.0105e-06
1.565e-06
2.42476e-06
3.75364e-06
5.81122e-06
8.99144e-06
1.39142e-05
2.15209e-05
3.32947e-05
5.1486e-05
7.96403e-05
0.000123143
0.000190473
0.000294518
0.000455572
0.000704485
0.00108984
0.00168553
0.0026079
0.00403397
0.00624246
0.0096575
0.0149468
0.0231264
0.0357953
0.0553857
0.085723
0.132615
0.205197
0.317239
0.490495
0.756902
1.16843
1.79341
2.76243
4.17011
6.44368
-4.02218e-11
1.11751e-10
-8.31409e-11
-4.1586e-11
-2.73661e-12
-3.28698e-11
1.34827e-10
-4.65122e-11
-8.12489e-11
-3.02544e-11
6.62233e-11
-3.87927e-11
5.85219e-11
-1.11404e-10
-1.99118e-10
3.18149e-11
1.58912e-10
9.24708e-11
1.71999e-11
1.82896e-10
3.88157e-11
1.60642e-10
2.72928e-11
-8.90835e-11
-1.52654e-10
-1.43556e-10
3.21358e-12
-9.8288e-12
-2.54238e-11
-7.71534e-11
-2.36761e-10
5.19343e-11
1.50917e-10
1.82588e-10
1.31593e-10
-5.1783e-11
-1.3323e-11
6.77388e-11
-1.25961e-10
-2.08133e-10
7.13038e-11
-7.53924e-11
-1.11782e-10
-9.40874e-11
5.93013e-11
-1.03105e-10
7.25338e-13
1.20338e-10
9.23877e-11
-9.02873e-11
-1.33693e-10
9.70557e-11
-6.62469e-11
2.50733e-10
-1.0234e-10
-6.56558e-11
1.06777e-11
-1.01081e-10
1.00594e-10
-4.99445e-11
-1.16107e-10
-1.22727e-10
-1.26799e-10
1.54345e-10
1.70197e-10
6.18324e-12
-9.29889e-11
-4.43635e-11
-7.30455e-11
2.82485e-11
8.99638e-12
1.55117e-10
-1.19253e-10
8.65176e-11
4.48017e-11
-2.43555e-11
5.25679e-11
-6.71725e-11
-1.34611e-10
-2.2031e-11
1.81688e-10
-2.59081e-11
-7.67666e-11
-1.2585e-11
-3.61984e-11
9.05622e-11
2.03737e-11
7.18666e-11
-1.60442e-10
-2.24648e-12
-3.74486e-11
-3.39468e-11
-1.16367e-10
4.18898e-11
-7.38371e-11
2.44209e-10
-3.68531e-12
-2.80353e-11
1.23885e-10
5.8821e-11
-1.72236e-10
8.87954e-11
5.85804e-11
9.34693e-12
7.0112e-11
2.53969e-10
7.32859e-12
1.31046e-10
5.36762e-11
8.49829e-12
7.58712e-11
-1.08524e-10
-1.49401e-10
1.08069e-10
2.62879e-11
-3.95861e-11
-1.92971e-10
-1.11006e-10
-1.61219e-10
-1.20325e-10
-1.49049e-13
-1.22898e-10
-6.89848e-12
3.66801e-11
-2.57187e-11
-2.67247e-12
9.80928e-11
-8.98527e-11
3.54187e-11
1.07152e-10
-9.95464e-12
1.92514e-10
1.71222e-10
-3.70724e-11
2.65479e-11
2.60887e-10
2.08517e-10
2.57283e-11
1.80695e-10
1.08796e-10
-1.98666e-11
-1.22916e-10
-1.73566e-10
-9.48211e-11
3.42903e-12
-1.22537e-10
-1.03422e-10
-2.2343e-11
-1.12227e-10
7.40899e-11
1.62809e-10
1.53266e-10
2.19218e-10
1.61251e-10
1.03854e-10
-7.34686e-11
-8.42289e-11
1.02926e-11
-3.73704e-11
-7.96913e-11
-1.60598e-10
-5.56068e-11
-4.59673e-11
1.21745e-10
-3.90221e-11
1.43022e-11
4.33713e-11
-2.21502e-10
1.11004e-11
-1.84778e-11
1.67759e-10
7.96509e-11
3.10417e-11
-2.66644e-11
-9.31501e-12
1.67784e-10
2.05634e-10
-3.14736e-11
-5.40392e-11
1.05686e-10
1.14773e-10
9.93205e-11
2.17954e-10
1.70477e-10
-3.89335e-11
2.15823e-10
9.44262e-11
3.40135e-11
4.74183e-11
1.47028e-10
-4.49662e-12
1.27344e-10
1.46011e-10
4.17066e-11
1.64245e-10
-9.04117e-11
-6.23844e-11
-9.26266e-11
-1.87495e-10
-4.19785e-12
1.91601e-10
1.12915e-10
-2.63524e-10
1.05953e-10
-8.34887e-11
-1.15224e-11
1.29243e-10
-3.99387e-11
1.28422e-10
-2.41728e-10
-9.67336e-11
-1.76864e-11
-9.12366e-11
3.37391e-11
-8.33284e-11
1.16639e-10
2.48171e-11
-9.2687e-11
2.00467e-11
-3.14437e-11
1.77082e-11
1.53494e-10
1.4008e-12
2.53717e-10
1.41354e-11
-5.82432e-11
1.11555e-10
-1.5707e-10
6.98986e-11
1.36962e-10
-4.36122e-11
-4.41247e-11
-1.78471e-11
9.4482e-12
2.03685e-10
1.50263e-11
2.12507e-10
1.13037e-12
-1.84994e-10
1.41718e-10
8.1376e-11
9.64134e-11
6.36969e-11
8.81829e-11
1.55696e-10
3.49002e-10
5.89561e-10
7.98746e-10
1.10177e-09
1.6154e-09
2.8122e-09
4.08311e-09
6.49646e-09
1.03441e-08
1.59961e-08
2.50236e-08
3.89199e-08
6.04105e-08
9.36724e-08
1.45161e-07
2.25308e-07
3.49284e-07
5.41433e-07
8.38779e-07
1.29839e-06
2.00942e-06
3.10746e-06
4.80609e-06
7.42756e-06
1.14807e-05
1.77347e-05
2.73998e-05
4.23101e-05
6.53484e-05
0.000100885
0.000155787
0.00024047
0.000371298
0.000573094
0.00088486
0.00136578
0.00210881
0.00325508
0.00502623
0.00775876
0.0119811
0.0184956
0.028562
0.0440921
0.0680871
0.105095
0.16226
0.250341
0.386348
0.59527
0.918033
1.4087
2.17251
3.28858
5.1129
-6.93034e-11
5.29316e-11
1.69402e-10
1.88848e-10
2.78537e-11
-1.5242e-11
-1.47914e-10
1.19436e-11
-9.11484e-11
-3.39986e-11
1.52212e-10
-2.10094e-10
-4.12394e-11
7.09062e-11
-6.96384e-11
-5.70743e-12
-5.34516e-11
-3.32331e-11
-5.50506e-11
4.65104e-11
4.2571e-11
-8.97497e-11
-1.21015e-10
-3.75857e-11
1.23451e-10
-1.92899e-10
-1.48268e-10
-8.23229e-11
1.18489e-10
8.62967e-11
-1.03543e-10
1.04209e-11
2.83488e-11
-1.13617e-10
5.19172e-11
1.21352e-10
1.11856e-10
-1.22332e-10
1.11882e-10
1.46642e-10
-7.44346e-11
-8.48365e-11
-8.99743e-11
1.94806e-11
5.39206e-11
1.71938e-10
8.89614e-11
1.99851e-11
3.65119e-11
-2.16914e-10
-6.92212e-11
-1.02573e-10
-1.22599e-10
-1.92137e-10
-1.3753e-10
-3.58353e-11
8.74231e-11
1.7043e-10
4.18344e-11
1.17538e-10
2.83039e-11
-1.95059e-10
-4.71816e-11
-4.72547e-11
-2.1834e-10
4.52489e-12
-1.75116e-10
-1.73552e-11
4.98803e-11
1.44353e-10
1.19543e-10
-1.27856e-10
1.02886e-10
2.41154e-11
8.62822e-11
1.91262e-10
-6.62698e-11
1.58462e-10
8.9486e-11
8.1114e-11
-8.51325e-11
-5.35631e-11
-7.17396e-11
2.86365e-11
9.37032e-11
5.52045e-11
-9.02039e-11
-1.20271e-10
6.0622e-11
1.64253e-10
6.83157e-11
-3.67131e-12
-3.6455e-11
1.5838e-10
1.84647e-11
-9.64822e-11
7.14995e-11
3.38574e-10
5.14522e-11
-1.40202e-10
-2.49676e-11
-3.98977e-12
6.61436e-11
-1.16659e-10
9.23888e-11
-1.69726e-11
9.37837e-12
1.58309e-10
1.08142e-10
1.10822e-10
1.17012e-10
-9.38004e-11
1.4229e-11
-8.97684e-11
-6.48001e-11
3.04842e-10
-1.17884e-11
1.12214e-10
1.13749e-10
-1.48254e-11
-3.0002e-10
2.09181e-11
6.96215e-11
-7.59113e-11
1.73068e-10
5.17117e-11
-6.55642e-12
-6.42467e-11
7.01803e-12
-8.86946e-11
-3.69027e-10
8.08654e-11
6.75884e-11
-1.69589e-10
1.00278e-10
1.03339e-10
1.15181e-11
7.74946e-11
-9.44599e-11
-7.74086e-12
3.7996e-11
-7.33826e-11
1.73981e-10
1.28958e-10
-3.21099e-11
-1.35579e-11
-5.68724e-11
-1.4301e-10
-1.40263e-11
6.90237e-11
2.56797e-12
-2.49153e-10
-2.10094e-10
-6.70764e-11
-4.34929e-12
-1.07255e-10
1.85609e-10
8.53913e-11
-6.22133e-11
2.54513e-11
4.73424e-11
4.14074e-11
-7.00959e-11
-2.15589e-10
-3.87613e-11
-1.50756e-13
6.44659e-12
-1.58157e-10
-2.70205e-10
1.30307e-10
5.88657e-11
1.83306e-11
3.04976e-10
3.29456e-11
2.83055e-11
-1.76476e-10
6.65666e-12
1.74877e-10
1.05179e-10
-4.21105e-11
-4.7695e-11
3.82625e-11
6.96464e-11
1.96281e-10
6.70287e-11
-1.9355e-10
6.89529e-12
4.39307e-11
-1.10221e-10
-1.12259e-10
-1.39722e-10
1.25193e-10
3.14463e-10
1.45832e-10
8.61631e-11
1.14303e-10
-2.1463e-11
1.02623e-10
9.97655e-11
-2.04574e-10
-1.704e-10
-1.42324e-10
-1.71843e-10
-5.73812e-11
-2.10148e-11
4.21675e-11
-3.26617e-11
5.22892e-11
1.82629e-10
-4.88991e-11
-1.47486e-11
1.64622e-10
6.66644e-11
1.22877e-10
5.80658e-11
-1.00113e-10
-3.24663e-11
-1.09105e-11
2.37791e-11
1.20658e-10
-5.80437e-11
-3.06627e-11
-1.24016e-10
7.68387e-11
-6.72358e-11
-1.2148e-10
-3.65991e-11
7.14101e-11
1.10106e-10
3.39185e-11
7.46692e-11
8.15003e-11
9.55277e-11
2.0322e-10
1.27479e-10
8.63519e-11
-1.74296e-11
-2.59702e-10
-7.01467e-11
-2.33723e-11
3.68289e-11
-1.97872e-10
-5.03769e-12
-3.02899e-11
2.28912e-10
4.58637e-10
5.04531e-10
6.2362e-10
9.93926e-10
1.36958e-09
2.14855e-09
3.22538e-09
5.25182e-09
8.41259e-09
1.29808e-08
2.01041e-08
3.11687e-08
4.86496e-08
7.56082e-08
1.17514e-07
1.81986e-07
2.81968e-07
4.3687e-07
6.76378e-07
1.04632e-06
1.61857e-06
2.50147e-06
3.86602e-06
5.97022e-06
9.21958e-06
1.42283e-05
2.19603e-05
3.38739e-05
5.22578e-05
8.05776e-05
0.000124269
0.000191563
0.000295369
0.000455241
0.000701839
0.00108162
0.00166741
0.0025696
0.00396119
0.0061045
0.00941057
0.0145027
0.0223575
0.0344556
0.0531169
0.0818541
0.126179
0.194388
0.299604
0.461119
0.710653
1.09023
1.68266
2.55172
3.9832
1.1485e-10
-1.31093e-10
6.72629e-11
-7.76785e-12
-4.60952e-11
2.16955e-11
3.56389e-11
-1.05631e-10
1.76313e-10
1.651e-12
-1.51613e-11
7.56105e-11
-1.0961e-10
2.51081e-11
-7.36113e-11
-2.2114e-13
1.29882e-10
-1.66512e-10
-2.10947e-10
7.68277e-11
-4.52445e-12
5.24156e-11
-5.84777e-11
-4.26649e-11
-1.49243e-10
1.62341e-10
1.31403e-10
-1.93347e-10
-3.83782e-10
-2.28572e-10
-5.83057e-12
-5.40918e-11
-4.84788e-11
-1.84791e-10
1.15095e-10
4.49992e-11
5.03447e-11
9.20338e-12
-6.48471e-11
-8.1406e-11
-1.81234e-10
-3.20496e-12
9.90271e-11
1.12218e-10
-7.26371e-11
6.66197e-11
-7.22961e-11
-1.33292e-10
-2.41927e-11
-1.02507e-10
4.60297e-11
1.84664e-10
-1.2434e-10
-1.13894e-10
-2.05595e-10
1.8012e-10
1.07171e-10
2.75732e-11
1.31388e-10
5.38837e-11
5.25438e-11
-8.31111e-11
1.42133e-10
1.60179e-10
8.13859e-11
-4.91283e-11
7.62174e-11
-5.65326e-12
-2.24762e-10
2.69007e-11
-1.41969e-10
-5.3744e-11
5.4218e-11
-4.45363e-12
1.50252e-10
-1.94996e-10
-1.22813e-10
-7.76861e-11
1.47334e-10
-7.94336e-11
-1.20852e-10
-1.94612e-10
-1.06006e-10
-1.2306e-10
-1.90263e-11
2.30448e-10
1.99993e-10
1.64783e-10
8.26523e-11
8.90171e-11
8.11145e-11
1.27619e-10
-3.97797e-11
-3.95586e-11
7.73428e-12
6.61223e-11
4.92826e-11
1.72658e-10
-2.7486e-11
1.66866e-11
-8.32623e-11
1.02955e-10
4.99424e-11
1.56288e-10
3.33359e-11
1.81883e-10
1.42801e-10
-8.21575e-11
-5.49425e-11
-2.23836e-11
-2.02138e-11
7.82269e-11
-1.25426e-10
-2.66388e-10
7.64659e-12
7.60832e-11
-1.22401e-10
1.48263e-10
-1.94117e-10
4.77455e-11
1.42635e-10
1.7731e-10
3.94994e-11
8.52823e-11
-4.31569e-11
3.79964e-11
8.99446e-11
1.20144e-10
-1.8696e-11
-1.35777e-10
-1.7354e-10
-1.83097e-11
1.44808e-11
-2.4093e-11
1.74527e-11
9.93269e-11
3.30899e-11
-8.56494e-11
-5.23228e-11
8.64748e-11
1.11469e-10
-8.6561e-11
-1.84019e-10
-7.23987e-11
8.05845e-11
-2.12726e-10
-2.78606e-11
-1.5969e-10
-1.11037e-10
1.63877e-10
-7.99611e-11
-7.0553e-11
-2.58356e-11
6.57707e-11
-7.64396e-11
-4.64912e-11
-2.10953e-10
-1.33048e-10
-1.56748e-12
-2.28539e-10
-8.89034e-11
1.9838e-10
1.5993e-10
-2.42615e-11
-5.10343e-11
5.26479e-11
1.41676e-10
-1.90055e-11
1.30609e-10
-2.71093e-11
-1.2218e-10
9.21097e-11
-9.94596e-12
-1.10078e-10
3.13871e-11
-9.25006e-11
8.18105e-11
2.25111e-10
4.4716e-11
2.20696e-10
2.11364e-10
2.69585e-10
2.15104e-10
8.73276e-11
2.91786e-11
8.70254e-11
1.79773e-11
-1.83487e-10
-1.99614e-11
-6.03576e-11
-1.85275e-11
-3.32597e-11
-8.35467e-11
-1.70964e-11
1.08571e-10
8.99051e-11
3.17857e-11
-1.3964e-10
7.81376e-11
-3.62067e-11
7.18318e-11
1.03723e-10
4.33372e-11
5.72727e-11
-3.46418e-11
3.2781e-11
-3.87731e-11
5.60237e-13
8.10611e-11
1.15493e-10
-4.05022e-11
-3.91093e-11
1.06758e-10
1.90485e-11
-1.0815e-10
1.55334e-10
2.08129e-10
1.06656e-10
4.15535e-11
3.97172e-11
1.20177e-10
-4.53279e-11
-8.14422e-12
-2.57736e-11
-2.35632e-10
-1.00191e-10
-3.94947e-10
-2.00622e-10
6.6516e-11
1.01574e-10
-2.41122e-13
-7.32367e-11
-1.9653e-10
-4.24075e-11
-1.48612e-10
6.12321e-11
-1.30501e-10
1.74101e-12
-3.85353e-11
2.70457e-11
2.26212e-10
1.78852e-11
1.60269e-12
-3.73771e-11
3.06875e-10
4.02518e-10
2.1703e-10
3.19131e-10
5.66808e-10
1.15486e-09
1.8507e-09
2.67449e-09
4.23942e-09
6.46136e-09
1.01268e-08
1.58711e-08
2.45314e-08
3.81626e-08
5.94705e-08
9.20614e-08
1.42823e-07
2.21424e-07
3.43201e-07
5.31374e-07
8.21633e-07
1.27044e-06
1.96324e-06
3.0327e-06
4.68102e-06
7.22515e-06
1.1144e-05
1.71884e-05
2.6495e-05
4.08434e-05
6.29264e-05
9.69634e-05
0.000149337
0.000230042
0.000354205
0.000545511
0.000839809
0.00129322
0.00199073
0.00306532
0.00471846
0.0072654
0.0111837
0.0172208
0.0265088
0.0408196
0.0628349
0.0967589
0.14892
0.229329
0.352713
0.543348
0.83348
1.28707
1.95423
3.05854
-3.55491e-11
8.09099e-11