/*--------------------------------*- C++ -*----------------------------------*\
| =========                 |                                                 |
| \\      /  F ield         | OpenFOAM: The Open Source CFD Toolbox           |
|  \\    /   O peration     | Version:  2412                                  |
|   \\  /    A nd           | Website:  www.openfoam.com                      |
|    \\/     M anipulation  |                                                 |
\*---------------------------------------------------------------------------*/
FoamFile
{
    version     2.0;
    format      ascii;
    arch        "LSB;label=32;scalar=64";
    class       volScalarField;
    location    "0.0015";
    object      ddt0(rho);
}
// * * * * * * * * * * * * * * * * * * * * * * * * * * * * * * * * * * * * * //

dimensions      [1 -3 -1 0 0 0 0];

internalField   nonuniform List<scalar> 
180000
(
8.07667e-11
7.12582e-11
-1.02005e-10
-2.33295e-11
-1.65079e-11
1.39788e-10
2.15822e-11
-5.54585e-11
3.43861e-11
1.02351e-10
7.93391e-11
5.17455e-11
7.97401e-12
5.12497e-11
6.76844e-11
1.34034e-11
-1.34873e-10
3.03425e-11
5.42458e-11
-1.30563e-10
1.33389e-11
-4.00896e-12
-1.42244e-10
4.10297e-11
-1.63884e-11
-9.97885e-11
-1.0661e-10
-4.07934e-11
1.32599e-10
1.25761e-10
1.40176e-10
5.18089e-11
1.39127e-10
1.37806e-10
-1.70617e-11
2.57556e-12
-1.33995e-10
-5.72647e-11
-1.08465e-10
4.12347e-11
4.9178e-11
1.10146e-10
5.72271e-11
9.06423e-11
1.58648e-10
1.02125e-11
8.10141e-12
2.31766e-11
9.96497e-11
-1.37176e-10
-2.09243e-10
-1.18469e-10
-6.08609e-12
-1.54918e-10
-2.09593e-10
-5.46226e-11
-9.34409e-11
1.18884e-11
-1.68324e-10
-1.23378e-10
3.05865e-11
-6.85725e-11
-6.39923e-11
-1.01386e-10
-6.20841e-11
-1.18938e-10
6.65496e-11
-2.51292e-11
-7.02204e-11
-1.68648e-10
-4.15001e-11
-2.63246e-11
1.13078e-10
-4.06318e-11
-1.84511e-11
-6.74364e-11
-9.59448e-11
-4.285e-11
-1.04766e-11
8.42315e-11
1.32909e-10
1.14855e-10
1.11815e-10
-1.47726e-11
2.89755e-10
1.0193e-10
1.24627e-10
3.02571e-11
9.23139e-11
1.50779e-10
1.81897e-10
8.48345e-11
7.66719e-11
-3.8074e-11
3.61186e-11
3.73244e-11
6.61114e-11
5.74007e-11
-9.08755e-11
8.4201e-11
5.27191e-11
1.48727e-10
2.36958e-10
1.31329e-10
1.15359e-10
1.84482e-10
9.42016e-11
7.94159e-11
1.36932e-10
1.05973e-10
1.00527e-10
5.22608e-12
3.84147e-12
-1.0611e-10
-2.71808e-11
7.19012e-11
3.44493e-11
6.00314e-11
1.12534e-10
1.08888e-10
-6.31091e-11
5.0351e-11
3.75709e-11
2.50582e-11
1.98621e-10
2.50636e-11
-6.58873e-11
8.80815e-11
1.65688e-10
2.05958e-11
1.22274e-10
1.12273e-10
1.20968e-10
1.83055e-11
1.31358e-10
1.57647e-10
2.16684e-10
2.97614e-10
1.76642e-10
1.6138e-10
8.23996e-11
8.3549e-11
-6.85919e-13
1.18293e-11
1.45498e-10
7.31451e-11
8.66717e-11
1.7354e-10
5.59438e-11
1.86102e-11
1.56829e-10
6.6215e-11
4.10803e-11
1.15663e-10
-4.62469e-11
-5.96161e-11
-3.16785e-13
-1.08712e-10
-7.22102e-11
3.65555e-11
-1.46708e-10
-2.00385e-10
-1.58314e-10
-1.10972e-10
-9.57614e-11
9.32631e-11
-4.8663e-11
5.32804e-11
8.08984e-11
1.30143e-10
-1.13001e-10
4.41115e-11
7.24188e-11
6.61122e-11
1.79886e-10
2.25895e-10
2.43418e-10
1.1065e-10
8.7691e-11
1.5892e-11
9.77541e-11
9.07702e-11
1.9441e-10
9.71761e-11
6.17493e-11
9.25162e-11
2.20096e-10
9.48924e-11
1.69072e-10
2.67046e-10
1.57404e-10
7.58389e-11
1.64879e-11
9.36311e-11
1.06201e-10
5.27518e-11
5.34647e-11
-9.43428e-11
-1.2725e-10
-1.7009e-10
-1.0582e-10
-1.92259e-10
-1.03775e-10
-4.83961e-11
-1.2482e-11
-4.24903e-11
8.50925e-12
-5.14323e-12
-7.96089e-11
-1.10977e-10
-6.24066e-12
7.03747e-11
3.41633e-11
3.42161e-11
-1.42067e-11
-2.53481e-11
-2.90271e-11
8.74044e-12
-5.25437e-11
-1.94491e-11
8.64865e-11
-1.034e-10
-9.74105e-11
-8.42682e-11
-1.74709e-10
-9.87289e-11
-5.52769e-11
-8.48116e-11
-1.43804e-10
-1.73192e-10
-1.17584e-10
7.58522e-11
4.29656e-11
9.97386e-12
4.85927e-11
-2.64346e-11
-1.08417e-10
-1.29707e-10
-3.12728e-11
-6.59775e-11
-4.14763e-11
-1.14293e-10
-8.21517e-11
-6.77073e-11
6.50556e-12
-8.11799e-12
7.31468e-11
6.39485e-11
2.01131e-10
7.7747e-11
1.44978e-10
3.77093e-10
1.06281e-10
1.60551e-10
3.59048e-10
4.67389e-10
1.00633e-09
1.56167e-09
2.57438e-09
4.18328e-09
6.40643e-09
1.05114e-08
1.67121e-08
2.67895e-08
4.26722e-08
6.81418e-08
1.09164e-07
1.74695e-07
2.79461e-07
4.46894e-07
7.14976e-07
1.14432e-06
1.83174e-06
2.93268e-06
4.6955e-06
7.52073e-06
1.20462e-05
1.93024e-05
3.09301e-05
4.95828e-05
7.94861e-05
0.000127478
0.000204456
0.000328062
0.000526422
0.000845093
0.00135672
0.00217899
0.0034994
0.00562168
0.00902732
0.0144958
0.0232426
0.037237
0.0593821
0.0943944
0.147949
0.230733
0.346561
0.518245
2.00609e-12
3.47513e-11
7.30913e-11
-1.13285e-10
1.19661e-11
1.73068e-10
6.28668e-11
-1.2548e-10
-2.87964e-11
2.78768e-12
-6.91587e-11
8.665e-11
-3.91079e-11
8.79032e-11
2.86146e-11
6.31756e-11
3.39554e-11
8.38939e-11
-2.90036e-11
-6.46991e-11
-1.70989e-10
-1.43413e-10
-1.04065e-10
-9.04067e-11
-5.10695e-11
8.80757e-11
2.86262e-11
1.41988e-11
-3.17474e-11
-3.02104e-11
-5.62394e-11
-1.92182e-10
4.95429e-11
-8.74651e-11
3.37192e-11
5.18906e-13
8.82629e-11
2.01928e-10
5.08194e-12
1.16334e-10
-1.12095e-10
1.89684e-11
1.22967e-10
1.09119e-10
5.55173e-11
-8.69537e-11
1.19233e-10
1.31815e-10
-1.10395e-10
7.01884e-11
-2.50901e-11
4.6708e-11
1.49296e-10
7.4928e-11
6.86026e-11
-4.27412e-12
1.99734e-10
-2.75578e-11
-1.86539e-11
-7.25093e-12
-1.93679e-10
-8.74689e-12
2.21852e-11
-1.46685e-10
2.97702e-11
1.21347e-10
-1.66662e-11
-3.31339e-11
-1.64234e-10
-1.68668e-11
-6.66156e-11
-9.43134e-11
-2.14293e-10
7.11073e-12
-6.60356e-12
-3.54492e-11
-1.67184e-10
-2.41728e-10
2.5077e-11
7.72748e-11
6.68802e-11
6.96272e-11
1.97517e-10
1.22301e-10
5.06454e-11
1.01073e-11
-2.62359e-11
2.98481e-11
-3.67711e-11
1.71075e-11
-5.0478e-11
-1.09372e-10
-4.90448e-11
-3.12492e-11
-9.08558e-11
-8.93052e-11
1.49583e-11
-9.14225e-11
-1.12056e-10
-3.99669e-11
-1.47144e-10
-5.18008e-11
-9.81233e-11
9.32828e-11
1.5466e-10
1.15639e-10
1.04283e-10
5.94752e-12
1.16467e-10
-8.72658e-12
8.28871e-11
8.92418e-11
-5.93087e-11
-7.47709e-11
-1.02487e-10
-1.29807e-10
-1.34252e-11
5.0728e-11
1.09912e-10
1.91102e-10
2.78268e-10
2.71298e-10
2.33399e-10
1.70923e-10
1.28757e-10
7.93683e-11
1.41482e-10
1.19857e-10
1.62059e-10
2.88003e-10
1.11902e-10
9.74648e-11
-4.29579e-12
9.84141e-11
9.76271e-12
-5.69809e-12
1.53955e-11
8.92372e-11
1.43331e-10
1.48495e-10
1.02142e-10
6.24168e-11
1.20666e-10
3.38803e-11
5.4277e-11
-1.21519e-11
5.73805e-11
-1.13815e-10
-6.2622e-11
-1.51727e-10
-2.32931e-10
-1.05409e-10
-2.2987e-10
-1.55038e-10
-1.32121e-10
-5.65509e-11
-8.06927e-11
-1.42299e-10
-1.02232e-10
-3.60661e-11
-7.60519e-11
-7.30368e-11
-7.53444e-11
5.66567e-11
1.26534e-10
-2.40613e-11
-6.76951e-11
-2.00349e-10
-2.21096e-10
-1.54155e-10
-2.17639e-10
-1.75937e-10
-6.02451e-11
-1.15916e-10
-9.04197e-11
-4.33805e-11
-9.1668e-11
-4.27642e-11
-7.15198e-11
-1.84841e-10
-7.46846e-12
-2.2134e-10
-3.20857e-10
-2.07277e-10
-2.08854e-11
1.04576e-11
2.19144e-11
-5.03283e-11
-1.07522e-11
1.81403e-10
1.28994e-10
9.10737e-11
2.33489e-10
1.4188e-10
1.08967e-10
1.65969e-11
9.16295e-11
9.17288e-11
2.54036e-11
-7.85252e-11
3.0337e-11
2.44626e-10
9.66615e-11
4.94727e-11
2.5471e-10
4.80085e-11
-3.13297e-11
-5.68123e-12
5.27123e-12
1.59128e-10
1.52737e-10
-1.17456e-11
-9.68896e-12
-3.32835e-11
-6.60277e-11
8.8355e-12
-1.06669e-10
-1.13563e-10
-1.24769e-10
-1.67171e-10
-3.04934e-11
6.73697e-11
-1.35038e-10
-1.1429e-10
-2.19579e-11
6.18411e-11
-7.4789e-11
-6.14309e-11
-7.07692e-11
-9.89556e-11
8.30584e-12
2.10304e-11
-5.0869e-11
6.30773e-11
8.14186e-11
8.8648e-11
-1.13236e-12
-6.59188e-11
-6.42825e-11
1.32846e-11
1.0265e-10
9.96884e-11
6.40316e-12
-1.8275e-10
-2.01053e-10
-1.01122e-10
-1.9784e-11
-1.61338e-10
8.74674e-12
-1.21768e-10
-1.29614e-10
1.41886e-11
-7.75381e-12
1.3721e-10
2.93859e-10
4.62532e-10
1.13783e-09
1.61907e-09
2.50066e-09
3.82094e-09
6.31432e-09
1.00332e-08
1.60732e-08
2.5648e-08
4.09046e-08
6.5481e-08
1.04743e-07
1.67177e-07
2.6685e-07
4.26609e-07
6.81931e-07
1.09019e-06
1.74272e-06
2.78676e-06
4.45644e-06
7.12855e-06
1.14018e-05
1.82425e-05
2.91847e-05
4.67047e-05
7.47361e-05
0.000119627
0.000191466
0.000306535
0.000490707
0.000785741
0.00125798
0.00201445
0.00322499
0.00516341
0.00826245
0.013218
0.0211181
0.0337085
0.0536273
0.0850493
0.133567
0.20874
0.319072
0.486256
-5.87676e-12
3.31094e-11
-8.23329e-11
2.75658e-11
-1.31905e-10
-8.48122e-11
-3.8858e-11
2.53341e-11
1.58565e-11
1.09313e-11
4.32684e-12
8.93831e-11
6.35106e-11
2.37838e-11
-6.88446e-11
-1.16092e-11
1.48919e-10
1.313e-10
1.2858e-10
5.4712e-11
4.02344e-12
-7.41481e-11
7.46347e-11
1.8627e-12
7.53449e-11
5.70188e-11
8.36934e-11
5.63996e-13
6.63003e-11
1.79108e-11
1.54085e-11
-1.03411e-10
1.87402e-10
3.75594e-11
-8.40921e-11
-6.13036e-11
5.97447e-11
8.69737e-11
-1.12407e-11
1.52137e-11
-8.36846e-11
-2.34638e-11
-4.73126e-11
-8.2545e-11
-9.14834e-11
-8.16732e-11
-1.26713e-10
-1.05275e-10
1.56548e-10
-4.043e-11
-1.27929e-10
-1.75957e-10
-1.57487e-10
-1.81165e-10
-1.56794e-10
-2.67062e-11
-7.34612e-11
-4.21036e-11
6.12993e-12
6.98186e-11
1.29208e-11
-2.93679e-11
2.54451e-11
4.75764e-11
1.05536e-11
5.30084e-11
7.47579e-11
5.33258e-11
1.83126e-12
3.30192e-11
-8.01718e-11
1.17705e-10
1.73038e-10
-1.03702e-11
-1.20796e-10
-2.21095e-10
-2.46912e-11
7.06281e-11
-1.73724e-11
2.56338e-12
-1.27289e-11
-3.43884e-11
-7.95512e-12
2.67177e-11
3.94504e-11
1.60637e-10
6.13034e-11
8.4548e-11
-1.1265e-10
5.77354e-11
-8.2425e-11
-1.18887e-10
-4.18749e-11
-2.35351e-11
-9.03024e-11
2.14779e-11
-6.91951e-11
-1.46533e-10
-1.62639e-10
-1.4424e-11
-4.65249e-11
6.6233e-12
4.52655e-11
1.30894e-10
2.88745e-10
1.26897e-10
1.61776e-10
1.13536e-10
1.51452e-10
3.34232e-12
5.78119e-11
1.43762e-10
2.59425e-10
2.04635e-10
7.39575e-11
-2.66132e-11
1.14544e-11
-1.04171e-10
8.71628e-12
5.4277e-12
6.59204e-11
-6.6681e-12
-4.07766e-11
-2.40331e-11
1.07947e-10
-1.20411e-10
3.03389e-11
-1.66543e-10
5.23599e-11
6.36595e-11
-5.1848e-11
-5.3331e-11
1.70022e-12
-6.29674e-11
-1.56068e-10
5.83681e-11
-1.23245e-10
-1.73953e-10
-1.64128e-10
-2.40988e-10
-9.39252e-11
-1.44368e-10
-7.23303e-11
3.20391e-11
-8.22815e-11
-1.25534e-10
4.44444e-11
-7.40373e-12
1.61699e-10
-1.45359e-11
1.59897e-11
9.22378e-11
9.19796e-11
1.00218e-10
-4.97748e-12
-1.15125e-11
-5.59602e-11
1.0501e-11
2.41474e-12
1.42038e-10
1.04563e-11
-3.26133e-12
-1.56121e-10
-9.04092e-11
-8.51157e-11
-1.61481e-10
-1.89485e-10
-1.85418e-10
-1.7348e-10
-1.37069e-10
9.15357e-12
-1.6126e-10
2.52652e-11
9.70275e-11
1.05637e-10
1.75315e-10
1.41673e-10
2.01878e-10
1.42099e-10
6.4516e-11
8.20766e-11
7.65008e-11
4.75959e-11
9.19048e-11
1.07197e-10
1.8437e-10
9.99833e-11
8.08175e-11
8.81925e-11
1.06977e-10
-3.53046e-12
1.79476e-11
6.58662e-11
1.22383e-12
-2.83321e-11
6.28588e-11
7.16738e-11
-2.35635e-11
3.01373e-12
7.67429e-11
9.67968e-13
-6.2443e-11
-8.26511e-11
-1.14758e-10
-2.10223e-11
-2.14215e-11
-1.52658e-10
-1.64981e-10
-2.49793e-11
-4.34694e-11
-4.41607e-11
9.37399e-11
-2.00002e-11
3.57412e-11
1.35599e-10
8.00599e-11
1.82798e-10
-3.12388e-11
6.40071e-11
-6.61038e-11
-4.7708e-12
4.52841e-11
1.85821e-10
1.05143e-10
6.69991e-11
2.54178e-10
1.87148e-10
7.7601e-11
3.03472e-13
-6.42304e-11
1.85471e-11
-6.99164e-11
-7.6138e-11
-4.39674e-11
-5.94122e-11
-2.6264e-11
-2.35029e-11
4.50548e-11
6.62638e-11
9.5705e-12
-1.97066e-10
-6.38106e-11
-1.08964e-10
-6.30057e-11
-5.03149e-11
-1.02157e-11
7.89199e-11
-1.11078e-10
3.53783e-11
-5.19811e-11
-1.40217e-10
7.67551e-11
1.29059e-10
2.28745e-11
2.69903e-10
5.14116e-10
7.71111e-10
1.24121e-09
2.11412e-09
3.58152e-09
5.92082e-09
9.39258e-09
1.49279e-08
2.37447e-08
3.77569e-08
6.01425e-08
9.59919e-08
1.5321e-07
2.44568e-07
3.90604e-07
6.23157e-07
9.94798e-07
1.58727e-06
2.53379e-06
4.04402e-06
6.45558e-06
1.03039e-05
1.64497e-05
2.62571e-05
4.19199e-05
6.69142e-05
0.000106832
0.00017053
0.000272253
0.000434561
0.000693731
0.00110717
0.00176717
0.00281955
0.00449863
0.00717321
0.0114351
0.0182064
0.0289714
0.0459687
0.0728128
0.11433
0.179379
0.276063
0.428762
6.69562e-11
-4.37484e-11
-5.53186e-11
-3.6834e-11
-4.18655e-11
-1.1183e-10
1.46029e-11
-1.1727e-10
-1.24183e-10
-3.9041e-11
-3.86962e-11
1.27795e-11
1.0275e-10
6.18286e-12
1.05897e-10
1.1837e-10
8.68361e-11
1.04074e-10
5.90235e-11
6.37347e-11
-5.62907e-11
-1.60713e-11
1.51015e-10
1.17195e-10
-6.55842e-11
-1.0241e-11
7.23246e-11
1.11977e-10
-1.04858e-10
-9.9514e-11
-1.03424e-10
-8.70355e-11
-7.86431e-11
-2.04446e-12
-4.95136e-11
3.88456e-11
-1.12746e-11
1.81978e-10
-8.81712e-12
8.9141e-12
-3.89671e-11
-2.01186e-11
-8.11324e-11
-1.63083e-10
-1.42806e-10
-1.3253e-10
-1.398e-10
-9.07336e-11
-1.51302e-10
-1.31058e-10
-1.06603e-10
-6.22017e-11
6.23145e-11
-1.68281e-11
2.73558e-11
3.23031e-11
1.03747e-10
5.94352e-11
3.69761e-11
3.72334e-11
-1.29294e-10
-1.87826e-10
-3.08947e-11
-7.4709e-11
-2.17754e-11
-6.77671e-11
1.9767e-12
1.86351e-11
-4.03871e-11
-6.82295e-11
-1.5222e-10
-1.85699e-10
-1.32969e-10
-2.59927e-11
2.78055e-12
6.10686e-11
1.56543e-11
1.09494e-10
-2.31383e-11
6.6371e-11
-2.3249e-11
5.55955e-11
2.11294e-10
1.84677e-10
1.96375e-10
8.88201e-11
2.3892e-11
1.19603e-10
1.38729e-10
1.14585e-10
-8.03218e-11
-1.25476e-11
1.2961e-12
-3.53015e-11
-8.78954e-11
-1.433e-10
-1.69669e-10
-2.36348e-10
-1.11441e-10
6.82483e-11
-1.82377e-11
-1.5412e-10
1.09703e-11
9.06988e-12
-5.96242e-11
-5.59557e-12
4.24731e-11
-1.80654e-10
7.38392e-13
1.20122e-10
-5.52058e-11
9.22508e-11
6.09037e-11
5.01382e-11
-3.72113e-11
5.75061e-11
4.53929e-11
-8.52287e-11
4.01754e-11
7.8234e-11
1.96282e-11
1.08856e-10
1.07407e-11
2.78926e-10
2.43737e-10
3.06256e-11
2.19226e-10
-1.38613e-11
-1.0392e-10
-8.2989e-11
-2.54427e-11
-1.05989e-10
-1.67868e-10
-1.43627e-10
-9.78147e-11
-1.08243e-10
1.11018e-11
7.90922e-11
-9.7827e-11
-2.95978e-11
-7.69748e-12
1.88194e-12
2.32854e-11
4.27043e-11
4.97626e-11
2.98673e-11
1.02515e-10
1.04624e-10
-2.62111e-11
1.87245e-12
-5.56636e-11
-5.50612e-11
3.43807e-11
-4.01707e-11
-2.43046e-11
9.86722e-12
1.68566e-11
-6.01376e-11
1.41836e-11
-2.51778e-11
4.13559e-11
1.05281e-10
8.12314e-11
2.64309e-11
5.41678e-11
-2.54713e-10
-1.91728e-10
-5.69841e-11
-1.53082e-10
-1.41774e-10
-1.20958e-10
-1.32226e-10
1.02054e-11
-2.50527e-11
-7.26555e-11
9.66982e-11
-1.44202e-11
-2.0353e-10
-9.02411e-12
-5.29402e-11
-1.66072e-10
-9.97459e-11
-5.65361e-11
-1.54135e-10
-5.4297e-11
-1.18842e-10
-2.23797e-10
-2.37712e-10
-2.52192e-10
-1.31754e-10
-1.4032e-10
-1.12314e-10
-9.47478e-11
-1.25477e-10
-9.22385e-11
-8.79004e-11
-9.12418e-11
-2.64763e-11
-1.0011e-10
-3.28191e-11
5.37353e-11
4.32037e-11
3.42995e-11
-7.73593e-11
5.69295e-11
1.50731e-10
6.8438e-11
1.09466e-10
5.78257e-11
4.79272e-11
-3.56013e-11
-8.78682e-11
-1.72839e-10
-5.15886e-11
-8.94294e-11
7.23334e-11
8.24956e-11
9.08098e-12
-4.96018e-11
1.8191e-10
1.6357e-10
6.98202e-11
1.78191e-10
2.83178e-10
7.87332e-11
8.12976e-11
1.09144e-10
7.51603e-11
7.72417e-11
-3.63326e-11
-4.33593e-11
9.96998e-11
1.13654e-11
-1.15209e-11
6.21534e-11
7.40432e-11
-6.80416e-12
-4.20421e-11
-2.05523e-11
-1.36784e-10
-2.18993e-10
1.18421e-10
-1.41585e-10
-4.9547e-11
1.03477e-11
-3.15985e-11
1.43044e-11
-6.14776e-12
5.79246e-12
1.34353e-10
1.03991e-10
1.87497e-10
2.71171e-10
2.16213e-10
3.41228e-10
5.68815e-10
8.80511e-10
1.2697e-09
2.24456e-09
3.17862e-09
5.21392e-09
8.40089e-09
1.32692e-08
2.11502e-08
3.36237e-08
5.35328e-08
8.53238e-08
1.3597e-07
2.1647e-07
3.44945e-07
5.49269e-07
8.74794e-07
1.3932e-06
2.219e-06
3.53374e-06
5.62783e-06
8.96108e-06
1.42705e-05
2.27201e-05
3.6178e-05
5.75922e-05
9.1692e-05
0.000145941
0.000232307
0.000369669
0.000588288
0.000935864
0.00148882
0.00236746
0.00376445
0.00598198
0.00950395
0.0150822
0.0239291
0.0378732
0.059903
0.0940269
0.147898
0.228922
0.360331
-3.14726e-11
2.04511e-11
-4.44793e-11
-5.86193e-11
3.98037e-11
1.73477e-11
-5.52659e-11
1.59626e-11
-1.86637e-11
-2.85778e-11
1.02752e-11
-4.49956e-11
-3.2262e-11
3.08338e-11
3.19968e-11
-1.61864e-10
-9.23279e-11
-1.10093e-11
4.83727e-11
9.44918e-11
9.63655e-11
5.49183e-11
-9.71086e-11
-2.42812e-10
-2.60295e-10
-2.14892e-10
-2.90756e-10
-2.82996e-11
-1.26081e-10
-4.53098e-11
7.3024e-11
-5.30696e-12
2.34008e-11
-8.98789e-11
5.84286e-11
-5.02614e-11
-1.45929e-10
-1.63868e-10
-1.60629e-10
6.27193e-11
3.28851e-11
-1.6901e-10
-3.10783e-11
4.55159e-12
-4.70181e-11
-3.23329e-11
-1.01962e-10
-1.31848e-11
-1.55928e-11
6.25289e-11
6.90855e-11
5.73159e-11
1.10645e-10
3.36585e-10
9.76138e-11
1.05908e-10
3.35043e-11
9.36305e-11
-2.16405e-11
8.05999e-11
1.43672e-10
2.06082e-10
2.39374e-10
1.80647e-10
3.70079e-10
1.86563e-10
7.01142e-11
-2.80945e-11
-1.85213e-11
-6.26048e-11
-1.45863e-10
-9.49911e-11
-1.17075e-10
-1.12981e-10
-3.09359e-10
-1.78773e-10
-1.54301e-10
-1.34449e-10
-7.08527e-11
-8.64499e-12
-1.91236e-10
-1.68319e-10
-5.66258e-11
-9.80382e-12
3.5225e-11
2.68471e-10
2.83741e-10
1.77729e-10
1.28088e-10
8.23772e-11
5.07407e-11
4.77504e-11
-2.80653e-12
8.32675e-12
-1.86682e-11
1.28856e-12
6.92003e-11
3.9961e-11
-2.26229e-11
7.87786e-11
3.70689e-12
7.87516e-11
1.44921e-10
-5.71047e-11
-1.72446e-10
-9.98351e-11
-7.13673e-11
-7.28736e-11
2.58146e-11
-7.02107e-11
-7.69259e-12
9.27222e-12
1.27931e-10
1.36823e-10
-8.53287e-11
1.07516e-11
7.64234e-12
-3.22414e-11
1.79003e-11
-5.58947e-11
-1.26621e-10
4.3393e-11
3.63795e-11
7.93254e-11
6.21822e-11
9.84875e-11
1.33962e-10
3.68447e-11
5.50844e-11
2.05583e-11
-1.23409e-10
4.33939e-11
2.40312e-11
7.92895e-11
-1.50301e-10
-6.50273e-11
-1.432e-11
-5.40749e-11
3.27038e-11
-1.81068e-11
6.43571e-11
1.01869e-10
1.26602e-11
1.15656e-10
-1.40956e-11
9.53087e-11
8.98398e-11
3.2767e-11
2.3536e-11
1.57052e-11
2.33093e-11
4.23554e-11
1.1502e-10
2.61228e-10
2.20212e-10
2.20165e-10
2.47498e-10
1.86087e-10
-1.68731e-11
3.86222e-11
5.73899e-11
5.65606e-11
-1.30295e-10
5.35259e-11
6.80865e-11
5.55994e-11
-2.31794e-10
-2.14848e-10
-2.904e-10
-2.67555e-10
-2.78734e-10
-8.89233e-11
-1.12642e-10
-8.45034e-12
-7.94499e-11
-1.10224e-10
-1.27833e-10
-7.82822e-11
-1.00223e-10
2.52225e-11
7.11805e-13
7.15455e-11
1.51926e-10
2.16487e-10
1.09143e-10
2.01378e-10
7.48348e-11
5.39624e-11
3.59852e-11
3.89893e-11
-4.88193e-11
1.38062e-10
3.19715e-11
-9.60464e-11
-8.21179e-11
-1.66897e-10
-7.61534e-11
1.35948e-11
-8.3902e-11
6.19556e-11
5.4976e-11
-1.07796e-10
-7.62601e-11
-2.20853e-12
-1.30336e-10
-1.01755e-10
-3.3607e-11
-8.73054e-11
-3.54621e-11
3.72106e-11
8.52033e-11
3.19902e-11
8.16223e-11
1.14171e-10
-4.6463e-11
-4.39477e-11
1.60185e-10
8.7938e-11
9.47037e-11
7.18611e-11
1.11223e-12
4.46543e-11
1.45887e-10
2.3659e-10
2.56322e-10
1.01697e-10
9.92004e-11
4.81837e-11
2.83741e-11
-4.07897e-12
3.47876e-11
1.09826e-10
6.55431e-11
-6.28623e-11
-1.83353e-11
1.20738e-10
4.15505e-13
-6.43345e-11
1.64111e-10
2.19036e-10
9.86895e-11
-1.08113e-10
1.14469e-12
1.11319e-10
-7.09079e-11
3.36412e-11
1.0049e-11
-4.5539e-11
-4.94875e-11
-2.38311e-11
5.20231e-11
1.00645e-10
9.25489e-11
2.54878e-10
1.71348e-10
3.80948e-10
7.34203e-10
1.05931e-09
1.92845e-09
2.73267e-09
4.47692e-09
7.1858e-09
1.14157e-08
1.81867e-08
2.91569e-08
4.63125e-08
7.36042e-08
1.17075e-07
1.85984e-07
2.95619e-07
4.69909e-07
7.46705e-07
1.18644e-06
1.88561e-06
2.99576e-06
4.76009e-06
7.56135e-06
1.20123e-05
1.90778e-05
3.03019e-05
4.81145e-05
7.6403e-05
0.000121283
0.000192536
0.000305542
0.000484885
0.0007692
0.00122021
0.0019348
0.00306771
0.00486109
0.00770195
0.0121906
0.019296
0.03048
0.0481516
0.0755522
0.119033
0.184964
0.293808
1.28392e-11
-1.46655e-11
-2.36171e-11
4.76852e-11
6.05665e-11
-1.86875e-11
7.22283e-11
1.67026e-11
9.94566e-11
7.81869e-11
-1.08361e-10
-2.55978e-11
-1.14006e-10
8.2704e-11
-4.64251e-12
-1.69193e-11
-1.37824e-11
-1.88575e-10
-9.72819e-11
-1.63351e-10
-2.28474e-10
2.59082e-11
-9.46666e-12
5.10614e-11
1.7778e-10
1.62423e-10
7.76636e-11
7.10438e-11
5.43974e-11
2.99354e-11
-8.61757e-11
-1.67824e-10
-1.61332e-10
-4.92773e-11
-2.02928e-11
-8.09783e-11
-1.90067e-11
3.25459e-11
8.66759e-11
7.26025e-12
9.34997e-11
4.82366e-11
1.85836e-10
1.78216e-10
2.1405e-10
1.58279e-10
1.4798e-11
-1.49938e-12
-6.32163e-11
-3.3176e-11
4.58129e-11
7.26891e-11
2.89457e-10
2.80921e-10
1.28944e-10
1.37274e-11
1.97945e-10
1.41794e-10
1.27623e-10
5.0293e-11
-3.41307e-11
4.38996e-11
4.38105e-11
1.22281e-10
7.20446e-11
4.8416e-11
5.92617e-11
3.45239e-11
1.46484e-10
1.72201e-10
9.88541e-11
2.00758e-10
1.70108e-10
1.36318e-10
9.57507e-12
1.49811e-11
-3.33077e-11
-6.24535e-11
-1.90088e-11
3.54068e-11
7.19392e-11
9.41899e-11
2.16274e-10
1.11405e-10
2.08275e-10
2.48822e-10
7.41845e-11
7.97141e-11
-1.66871e-11
8.21935e-11
-5.18598e-11
-3.61736e-11
-8.01121e-11
-7.18992e-11
-1.64355e-11
2.66689e-11
1.23613e-10
1.50063e-12
-1.45002e-10
-1.80823e-10
-3.96329e-11
3.43638e-11
9.1736e-11
1.46519e-10
1.33332e-10
1.30541e-10
1.17874e-10
8.4393e-11
-6.77865e-11
-1.31767e-10
-7.26378e-11
6.95686e-11
-5.22057e-11
-1.00686e-10
3.15518e-11
-2.64649e-11
-9.80985e-11
-6.93113e-11
-6.01031e-11
-2.21715e-11
-5.41926e-11
-6.13642e-11
-7.64401e-11
-1.37095e-10
-1.43478e-10
-1.14547e-10
-1.33867e-11
2.02389e-11
1.66867e-10
-8.14081e-11
-8.58563e-11
8.47335e-12
9.57061e-11
3.18135e-11
1.07294e-10
6.50137e-11
-8.5641e-12
4.68363e-11
2.45105e-10
1.87149e-10
1.66732e-10
9.5265e-12
5.93404e-12
1.26638e-11
7.7635e-11
1.20917e-11
8.58516e-11
-4.24941e-11
-5.25553e-11
-1.46263e-10
-1.48898e-10
3.95952e-11
-4.05559e-11
-1.25624e-10
-8.3551e-12
-5.25625e-11
1.79185e-11
7.92902e-12
1.54011e-10
9.80216e-11
1.71809e-10
1.83699e-10
1.97687e-10
7.52576e-11
2.78978e-11
8.09513e-11
8.07525e-11
-2.27034e-11
1.69078e-10
-7.03926e-11
-1.60623e-10
9.19094e-11
1.78168e-11
-6.2551e-12
-1.3712e-10
-1.1315e-10
5.55117e-11
-1.40744e-10
7.1781e-11
6.65924e-11
5.9046e-11
1.35205e-11
-2.82214e-11
-7.24577e-11
1.00808e-10
-2.48501e-12
1.91239e-10
6.23454e-11
9.26707e-11
8.74902e-12
-9.69927e-11
-3.60594e-11
2.88173e-11
-8.95843e-11
-2.50512e-11
8.69758e-11
8.86406e-11
1.87764e-11
1.41005e-11
-1.88685e-11
-1.15051e-10
5.83461e-11
-1.0778e-11
-1.61876e-11
8.26809e-11
-4.36709e-11
1.19416e-10
1.59594e-10
1.35436e-10
-4.55514e-11
-7.50688e-11
1.28911e-10
9.05984e-11
-6.0824e-11
-8.53995e-11
-1.75413e-10
-4.82288e-11
-8.64229e-11
1.26806e-10
4.82615e-11
9.49227e-11
-3.11933e-11
2.04986e-10
5.54871e-11
-2.05403e-11
-1.79943e-11
-4.63372e-11
2.15683e-10
1.33494e-10
1.48664e-10
1.33211e-12
-1.25854e-10
-1.02938e-10
3.18981e-11
5.05614e-12
7.03064e-11
-3.40955e-12
-7.03704e-11
-3.05239e-12
5.59844e-11
1.06705e-10
7.08375e-11
6.47531e-11
-5.58227e-11
-9.29027e-11
2.25654e-11
-1.72442e-12
9.74565e-11
-7.25476e-11
6.98312e-12
7.53633e-11
-3.94281e-11
7.13328e-11
1.90706e-10
3.49571e-10
4.5603e-10
7.29354e-10
1.24645e-09
1.70586e-09
2.49546e-09
3.85321e-09
6.13188e-09
9.74473e-09
1.54151e-08
2.45985e-08
3.90547e-08
6.18713e-08
9.81498e-08
1.55843e-07
2.47321e-07
3.92312e-07
6.21896e-07
9.86102e-07
1.56365e-06
2.4791e-06
3.93097e-06
6.23052e-06
9.87631e-06
1.56503e-05
2.48016e-05
3.9291e-05
6.22483e-05
9.85851e-05
0.000156138
0.000247202
0.000391382
0.000619415
0.000980306
0.00155079
0.00245324
0.0038787
0.00613225
0.0096864
0.0153046
0.0241384
0.0380968
0.0597545
0.0942376
0.146813
0.234618
4.19719e-11
5.57542e-11
6.11235e-11
7.15171e-11
2.11106e-10
1.10472e-11
6.86973e-11
6.93717e-12
-7.18134e-12
1.0392e-10
5.25661e-11
2.34323e-11
5.88019e-11
-3.81039e-11
1.51203e-11
-1.17364e-10
-8.96991e-11
-5.32315e-11
-2.30123e-11
3.97862e-11
7.50371e-11
7.78592e-11
-6.54986e-11
-5.2614e-12
-5.93312e-11
-7.53809e-11
-9.64397e-11
9.2185e-12
-1.87431e-11
3.29259e-11
-9.54612e-12
-3.83838e-11
7.72416e-11
1.65531e-10
2.22151e-10
1.86308e-10
2.17382e-10
1.14695e-10
1.47285e-10
3.32551e-11
-1.25843e-10
1.23305e-10
1.78776e-11
-3.72197e-11
-5.45518e-11
-7.68028e-11
-6.75675e-11
3.9949e-11
-1.01624e-10
-5.18981e-11
-1.12511e-10
2.18888e-11
-9.87906e-11
1.08621e-11
1.13223e-10
5.35308e-12
-1.04539e-10
-4.08616e-11
-3.27541e-12
3.37066e-11
7.06997e-11
2.72121e-10
3.54897e-10
1.29865e-10
2.10097e-11
6.50995e-11
1.94339e-10
7.73007e-11
1.06726e-10
-3.77708e-11
-5.54523e-11
6.68149e-11
9.42133e-11
1.21598e-10
6.22044e-11
5.79204e-11
-1.03707e-11
3.75696e-11
-1.29824e-10
-1.51181e-10
-3.23353e-11
8.2073e-11
1.27329e-10
7.05675e-11
-1.32228e-10
6.82205e-11
4.36238e-11
1.36157e-10
6.13415e-12
4.86802e-11
1.08493e-10
3.33741e-11
-1.11587e-11
1.3282e-10
2.38925e-10
1.14466e-10
2.31478e-11
2.61029e-11
4.42068e-11
-1.40208e-10
-1.01737e-10
-2.34079e-11
-7.46138e-11
3.64919e-11
-3.32122e-11
-1.30419e-11
3.57141e-11
-1.16032e-10
9.03337e-11
2.62472e-11
1.50619e-10
-7.13032e-11
8.18326e-11
2.2279e-11
4.2346e-12
8.14277e-12
7.69276e-11
2.23901e-12
-2.1312e-11
1.69058e-10
8.56731e-11
-2.10228e-11
-9.42729e-11
5.80844e-11
6.86034e-11
1.62861e-10
1.80198e-10
2.00911e-10
8.42225e-11
1.50138e-10
1.35676e-10
1.3518e-10
1.02372e-10
1.6049e-10
1.00836e-10
1.09497e-10
1.18156e-10
9.14093e-11
7.30842e-11
-1.73611e-11
-1.10398e-10
-1.42675e-10
-5.0226e-11
-1.4215e-11
-1.89748e-10
-1.22081e-10
-9.90548e-11
-5.57245e-11
-7.84037e-11
-4.98519e-11
-2.49195e-11
2.03638e-11
-4.00134e-11
4.75818e-11
-4.84941e-11
-9.42854e-11
7.15167e-11
2.07948e-10
1.40895e-10
1.91789e-10
1.46388e-10
2.96972e-11
-5.1788e-11
-1.74861e-10
-1.93414e-10
-1.38496e-10
-9.37356e-11
-8.41748e-11
2.14643e-12
-6.56864e-11
5.20782e-11
-8.51645e-11
2.09686e-11
-4.21833e-12
5.68974e-11
3.33182e-11
9.57495e-11
8.72086e-11
5.70943e-11
-7.44627e-11
1.90599e-13
-5.64368e-11
-9.76218e-11
1.61169e-12
6.2874e-11
1.12296e-10
-1.14171e-10
-7.06466e-11
-1.17507e-10
-4.9809e-11
-1.07403e-10
2.97692e-11
4.01164e-11
7.81577e-11
8.12972e-11
7.65223e-13
1.29571e-11
3.16429e-11
9.25269e-12
-4.98595e-11
-1.16788e-10
-2.60645e-10
-1.52851e-10
-5.01054e-11
-8.16088e-11
-2.07853e-11
-4.84717e-11
9.74975e-11
-7.08749e-11
1.77349e-11
-3.80554e-12
-6.34825e-11
-6.3516e-11
-1.96858e-11
-1.59047e-10
-5.80583e-11
2.17443e-11
7.95946e-12
-1.38405e-11
6.10263e-11
8.13447e-11
9.36353e-11
1.20384e-10
3.81109e-11
5.1259e-11
-7.82072e-12
1.24201e-11
1.00317e-10
1.09135e-10
-2.36598e-11
-7.93316e-11
-8.81105e-11
-1.18597e-10
-2.00016e-11
-1.03917e-11
1.53875e-10
-3.2131e-11
-1.80844e-12
4.47962e-11
-3.50195e-11
2.2018e-11
-5.80205e-11
-1.11257e-10
-2.73196e-11
-9.21215e-12
-2.95352e-11
1.88371e-11
-1.00394e-10
2.41071e-11
-3.41743e-11
2.53277e-11
1.01798e-10
1.06474e-10
1.19096e-10
1.89063e-10
3.55201e-10
5.54331e-10
8.29984e-10
1.32242e-09
2.15773e-09
3.22585e-09
5.12285e-09
8.20141e-09
1.2917e-08
2.02701e-08
3.21945e-08
5.10032e-08
8.07301e-08
1.27912e-07
2.02619e-07
3.2075e-07
5.07837e-07
8.03847e-07
1.27223e-06
2.01305e-06
3.18574e-06
5.03969e-06
7.97311e-06
1.26101e-05
1.99447e-05
3.15353e-05
4.98638e-05
7.88184e-05
0.000124591
0.000196876
0.000311109
0.000491444
0.000776324
0.00122586
0.00193575
0.00305523
0.00482236
0.00760556
0.0120003
0.0189049
0.0298137
0.0467456
0.0737603
0.115095
0.184639
3.15321e-11
4.67581e-12
8.48881e-11
-8.01293e-11
6.02585e-13
-5.44427e-11
-4.65743e-11
1.03061e-10
7.49683e-11
-2.51105e-11
1.00247e-10
-7.99605e-11
-8.56937e-11
-2.03363e-10
-7.64394e-11
-1.68078e-10
-1.50106e-10
-8.78756e-11
6.44301e-11
4.57156e-11
5.91366e-11
-1.39157e-11
1.50072e-10
1.48052e-11
3.95201e-11
3.3211e-11
1.74747e-11
-9.00891e-11
1.61259e-11
2.17586e-11
-1.51204e-11
1.04339e-10
9.21394e-11
8.83297e-11
1.31654e-10
8.88105e-11
1.3247e-11
7.02003e-11
1.05436e-10
9.24888e-11
1.37629e-10
-3.7301e-11
6.84958e-11
1.90316e-11
7.66785e-12
-3.51005e-11
-6.52464e-11
-1.46278e-10
-1.14686e-10
-1.59553e-10
-3.19841e-11
-1.74991e-10
-2.23387e-10
-1.51975e-10
-2.57048e-10
-1.70656e-10
-2.92516e-10
-3.38649e-10
-2.3977e-10
-2.01542e-10
-1.93114e-10
-2.99905e-11
2.09297e-11
4.50222e-11
-4.62358e-11
1.49065e-10
4.40257e-11
1.11651e-10
2.80623e-11
-1.68653e-11
5.718e-11
-1.03651e-11
5.35416e-11
3.51668e-11
1.16807e-10
-7.46875e-12
-2.3741e-11
1.19905e-10
1.5899e-10
2.49766e-11
5.57517e-11
-8.45748e-12
5.01851e-11
-6.98009e-11
-5.03355e-11
1.55493e-10
1.7096e-10
2.98317e-11
3.91989e-11
-7.11116e-11
-4.61278e-11
-8.67376e-12
1.88024e-10
1.89585e-10
2.79092e-10
1.74095e-10
2.20099e-10
1.01115e-10
1.40082e-10
8.77303e-11
5.55076e-11
1.48175e-11
-1.09183e-10
-7.84428e-11
-5.71672e-11
-1.67809e-10
-1.42075e-10
1.19154e-10
-8.66284e-11
3.46053e-11
-1.39783e-12
8.78413e-11
5.31576e-11
-1.3735e-11
-5.38131e-11
1.10969e-11
2.79542e-11
3.60838e-11
8.21403e-11
9.14811e-11
-1.13836e-10
-1.71434e-10
-1.31545e-10
-4.33557e-11
-6.2227e-11
3.33036e-11
-7.55265e-11
-1.87162e-10
-7.88327e-11
-3.35335e-11
-1.22782e-10
-1.10649e-10
-4.31612e-11
-6.06834e-11
-6.72428e-11
-1.63367e-12
-9.32841e-11
-7.34995e-11
-2.04964e-10
-1.41248e-10
-1.9689e-10
-3.45904e-11
-1.61346e-10
-6.32265e-11
-2.56674e-11
-3.88907e-11
2.12142e-11
4.75753e-12
1.34898e-11
2.04613e-10
1.4669e-10
9.25943e-11
-2.41132e-11
-1.0776e-10
3.73914e-11
3.15214e-11
-5.98677e-12
-4.38766e-11
-3.19651e-11
4.11798e-12
-7.37353e-11
-1.9069e-10
8.35272e-13
-6.4638e-11
-2.09073e-10
1.01793e-11
-2.50941e-10
-3.78247e-11
-1.28787e-10
-1.16876e-10
-1.86857e-10
-1.61744e-10
-5.95449e-11
-5.2451e-11
5.19753e-11
-6.89789e-11
-4.58698e-11
-1.55484e-10
-4.24351e-11
-5.00659e-11
-6.54794e-11
1.35521e-10
1.94524e-11
-7.27094e-11
1.78456e-11
-4.30568e-11
7.2947e-11
5.02009e-11
-2.5896e-11
-5.58125e-11
-1.77032e-11
8.08311e-11
1.36612e-11
7.26451e-12
-1.07755e-10
-2.3711e-11
-2.22869e-11
1.00265e-10
2.32707e-11
8.23892e-11
-8.15862e-11
6.85848e-11
-3.93803e-11
7.65495e-11
3.75345e-11
6.29197e-12
2.4665e-11
-1.12995e-10
-5.23623e-11
6.023e-11
-6.80155e-12
3.33949e-11
1.7945e-11
-2.44906e-11
-6.26838e-11
3.36873e-11
-1.17962e-10
-5.5628e-11
-7.24723e-11
-1.43065e-10
-2.5499e-12
-2.22522e-10
-2.17862e-10
-2.47665e-10
-2.01236e-10
-2.0327e-10
-1.47491e-10
-1.8009e-10
-1.34712e-10
-1.17921e-11
-1.58836e-11
3.79434e-11
5.13509e-11
7.32244e-11
3.36867e-11
-7.12766e-11
1.69051e-11
7.00416e-12
2.05233e-11
3.26505e-11
-6.42497e-11
-1.25006e-10
1.46532e-11
4.70855e-13
-7.07975e-11
3.97233e-11
-4.22136e-11
-1.10133e-10
-3.09541e-11
-9.53096e-11
8.97809e-11
2.64965e-11
6.26591e-11
5.80033e-11
1.02003e-10
2.31131e-10
4.93995e-10
8.12797e-10
1.08017e-09
1.78781e-09
2.61453e-09
4.14545e-09
6.56421e-09
1.04472e-08
1.65034e-08
2.61855e-08
4.14833e-08
6.56376e-08
1.0331e-07
1.6329e-07
2.5832e-07
4.08115e-07
6.44771e-07
1.01906e-06
1.61008e-06
2.5438e-06
4.01735e-06
6.34525e-06
1.00189e-05