/*--------------------------------*- C++ -*----------------------------------*\
| =========                 |                                                 |
| \\      /  F ield         | OpenFOAM: The Open Source CFD Toolbox           |
|  \\    /   O peration     | Version:  2412                                  |
|   \\  /    A nd           | Website:  www.openfoam.com                      |
|    \\/     M anipulation  |                                                 |
\*---------------------------------------------------------------------------*/
FoamFile
{
    version     2.0;
    format      ascii;
    arch        "LSB;label=32;scalar=64";
    class       volScalarField;
    location    "0.0015";
    object      ddt0(rho,e);
}
// * * * * * * * * * * * * * * * * * * * * * * * * * * * * * * * * * * * * * //

dimensions      [1 -1 -3 0 0 0 0];

internalField   nonuniform List<scalar> 
180000
(
-1.29288e-05
1.67415e-05
5.96746e-06
-4.2828e-06
-2.8185e-05
-3.55967e-05
2.18967e-05
4.09837e-05
-7.15225e-06
-2.35393e-05
7.59212e-06
-6.59422e-06
-1.41128e-05
-2.17676e-05
-4.0802e-05
-3.03627e-05
9.531e-06
-9.81075e-06
4.24819e-06
4.36956e-05
-2.43885e-05
-1.42575e-05
1.60982e-05
-2.44197e-05
1.91304e-05
1.89479e-05
9.31719e-06
-1.66813e-06
-1.1168e-05
-8.66437e-06
-1.65468e-05
-1.15169e-05
-4.31667e-05
-3.80792e-05
-1.73679e-05
1.10004e-05
4.67592e-05
1.22239e-05
-1.53652e-05
-3.65552e-05
-2.02623e-05
-5.5379e-05
-2.21221e-05
-3.54279e-05
-2.61118e-05
-1.9386e-05
-1.48021e-05
-1.81389e-05
-5.27735e-06
3.80772e-05
6.32843e-05
3.94899e-05
1.01346e-05
4.45179e-05
2.21769e-05
-2.7355e-05
1.65302e-05
1.32518e-07
4.21711e-05
1.63057e-05
-7.30356e-06
2.4622e-05
3.44908e-05
1.74132e-05
-2.78051e-06
5.39231e-05
2.15113e-05
4.69427e-05
2.07905e-05
4.20273e-05
3.79411e-05
2.97364e-05
4.06805e-07
1.43306e-05
5.0256e-06
5.04281e-06
-3.5579e-07
-3.62242e-05
-6.19598e-06
-1.91251e-05
-3.20814e-05
-1.90912e-05
-1.47362e-05
-2.58412e-05
-8.55502e-05
-6.16102e-05
-6.57765e-05
-6.95227e-06
-6.44109e-06
-1.54881e-05
-2.74182e-05
1.21116e-05
1.62475e-05
2.4968e-05
2.12219e-06
2.51014e-06
2.01677e-05
6.16764e-05
6.83316e-05
1.16059e-05
-3.21708e-06
-4.90966e-05
-7.26204e-05
-2.1351e-05
-2.27922e-05
-3.7995e-05
1.51645e-05
7.20705e-06
-1.90501e-05
-2.82739e-05
-1.09413e-05
1.72578e-05
2.59546e-05
3.98196e-05
3.16949e-05
-9.50176e-06
-2.29945e-05
-1.19649e-05
-1.11347e-05
-1.79979e-05
2.97196e-05
5.58497e-06
1.68247e-05
1.187e-05
-2.14434e-05
2.57769e-05
1.81144e-05
-1.34286e-06
-1.2284e-06
1.41974e-05
-1.23945e-05
-3.77521e-06
9.39493e-06
3.73818e-05
-1.20269e-05
-2.06228e-05
-3.07433e-05
-6.3555e-05
-3.46804e-05
-2.90314e-05
-3.77116e-05
-1.32082e-05
3.29303e-05
4.81381e-07
-3.20184e-05
9.54317e-07
-2.67123e-06
-4.10722e-05
-2.87087e-06
5.62462e-06
1.02473e-05
4.15233e-05
2.49408e-05
3.40431e-07
2.54298e-06
1.18451e-05
-1.46537e-05
-8.84485e-07
1.84962e-05
2.9927e-05
6.35151e-05
5.25861e-05
5.21827e-05
4.57701e-05
1.56332e-05
-3.2289e-05
3.15654e-05
-1.39376e-06
-1.65651e-05
1.5137e-05
6.11625e-05
-4.24949e-05
-3.91105e-05
-5.25636e-05
-6.86325e-05
-6.68862e-05
-2.66253e-05
-2.61778e-07
-2.26897e-05
-2.39299e-05
-2.45074e-05
-3.41436e-05
-4.41508e-05
-1.49176e-05
-4.12777e-05
-5.8086e-05
-6.44196e-05
-3.6217e-05
-4.46722e-05
-4.96138e-05
-2.88596e-05
-8.59524e-06
6.42546e-06
-1.04677e-05
-4.40097e-05
-1.98365e-05
8.10629e-06
3.56273e-05
1.26483e-05
-2.45728e-06
-2.6899e-05
1.99233e-05
1.45627e-05
-3.50133e-06
6.25222e-06
1.66284e-06
2.39991e-05
2.93658e-06
2.14235e-05
3.7248e-05
9.16465e-06
1.99168e-06
-7.35828e-06
-5.24223e-05
-3.63542e-05
-5.46849e-05
-9.00992e-06
-4.77824e-06
-1.22505e-05
-1.24832e-05
-2.16336e-05
1.82738e-05
4.95694e-05
4.93969e-05
5.77171e-05
9.42447e-06
3.69447e-06
9.66902e-06
6.26814e-06
-1.18546e-05
-4.89653e-05
-5.21297e-05
6.1176e-06
-2.12757e-05
-4.77069e-05
-3.29102e-05
1.53266e-05
7.81088e-06
-8.57244e-06
1.77018e-05
1.97583e-05
2.84442e-05
4.64595e-05
1.82147e-05
5.07124e-06
1.88823e-05
-1.68798e-05
-3.28703e-05
-1.85931e-05
-5.01585e-06
-2.37182e-05
-4.84621e-05
6.65955e-05
6.90617e-05
2.46007e-05
8.05506e-05
6.98633e-05
0.000158857
0.000181254
0.000277599
0.000511922
0.000716852
0.00119225
0.00190385
0.00305563
0.00482482
0.00765643
0.0122704
0.0196019
0.0314174
0.0502992
0.0805146
0.128942
0.206457
0.33086
0.529974
0.849625
1.36155
2.18383
3.50136
5.61894
9.01401
14.474
23.2342
37.3344
59.979
96.4727
155.169
249.981
402.903
651.202
1054.09
1716.49
2804.84
4648.88
7755.18
13329.8
22672.9
40207.6
65786.4
6.76107e-06
2.02172e-05
8.72914e-06
2.02986e-06
-3.76016e-05
-4.93613e-05
-1.96535e-05
1.32704e-05
6.62618e-06
6.33424e-06
-2.35843e-05
-5.38131e-05
-7.55946e-06
-2.84206e-05
4.42447e-05
4.77083e-05
4.29846e-05
4.05315e-05
5.34945e-05
4.84451e-05
5.09504e-05
3.3789e-05
3.44385e-05
-4.00374e-06
-2.41048e-05
-4.3309e-05
-2.95543e-05
-2.82977e-05
-5.4835e-06
-1.70468e-05
4.04794e-06
1.75544e-05
-3.21676e-05
1.65172e-05
3.77992e-06
4.76965e-06
-4.34664e-05
-5.33228e-05
-2.36794e-05
-5.09176e-05
2.46021e-05
-1.13801e-05
-7.99443e-06
2.14346e-05
5.22528e-05
2.08863e-05
-1.03917e-05
2.01839e-05
5.73431e-05
-2.70835e-06
1.96141e-05
-1.81402e-05
-4.99176e-05
-8.80133e-07
1.75679e-05
1.93143e-05
-9.80536e-06
3.58744e-06
1.53559e-05
2.00259e-05
4.73624e-05
-1.13865e-05
-6.66971e-06
5.46067e-05
-2.26568e-05
-4.72534e-05
1.39743e-05
1.28873e-05
4.62211e-05
1.18224e-05
1.8026e-05
2.81965e-05
6.33579e-05
-2.96157e-06
6.24277e-06
1.2913e-05
2.4056e-05
4.76131e-05
-2.92186e-05
5.90455e-06
1.27806e-05
-1.10278e-05
-3.47935e-05
-2.13371e-05
-1.19037e-05
3.19111e-05
2.76495e-05
2.59786e-05
-6.25738e-06
-3.91957e-05
-9.53103e-06
5.18291e-06
1.95442e-06
9.40373e-06
1.91218e-05
3.10513e-05
1.7639e-05
1.76848e-05
2.11959e-05
8.05097e-06
5.17519e-05
3.82244e-05
3.63035e-05
2.70619e-06
-5.8412e-06
1.80344e-05
2.8471e-06
1.92188e-05
-3.78993e-05
5.36136e-06
-2.92136e-05
-1.04213e-05
2.15986e-05
2.81691e-05
3.07625e-05
5.4412e-05
-9.4193e-06
-3.1072e-05
-4.56018e-05
-5.95518e-05
-9.87507e-05
-0.000111198
-8.86575e-05
-6.32097e-05
-4.32187e-05
-2.21674e-06
1.14905e-06
1.27974e-05
-3.5409e-05
-6.71056e-05
-2.90395e-05
-3.84608e-05
-6.9165e-06
-4.23367e-05
-3.9335e-05
-7.78897e-06
-6.73163e-06
-2.9432e-05
-3.9613e-05
-6.65265e-05
-4.55073e-05
-2.3475e-05
-3.38682e-05
-1.79695e-05
-8.56254e-06
1.56795e-06
-1.01967e-07
2.75839e-05
1.21829e-05
3.25018e-05
3.01696e-05
5.05306e-05
7.50165e-05
7.46752e-05
2.64441e-05
-1.38574e-05
1.63956e-05
3.71608e-05
1.34288e-05
1.12267e-05
3.34669e-06
-3.08484e-06
-2.5902e-05
-4.56689e-05
-2.25806e-05
2.86577e-06
-1.00645e-05
4.09176e-05
3.48787e-05
1.65436e-05
4.3601e-05
1.88212e-05
-4.39212e-05
-2.60908e-05
-4.30218e-06
-7.26641e-06
1.43006e-05
-2.06821e-05
-2.69606e-05
3.16501e-06
-2.38594e-05
6.46257e-05
0.000120532
3.362e-05
-2.84353e-05
8.79282e-06
1.51639e-05
3.6581e-05
3.4942e-05
8.60813e-06
2.35689e-05
8.97967e-06
-4.60185e-05
-2.16855e-05
-2.62062e-06
1.39152e-05
-1.0837e-05
-2.05119e-05
1.43682e-05
3.58835e-05
-4.31432e-05
-7.70886e-05
-2.05189e-05
-1.54398e-05
-7.40518e-05
-2.02e-05
-1.39013e-05
5.26797e-06
9.68415e-06
-4.20711e-05
-3.83283e-05
2.48629e-05
1.42087e-06
2.04045e-05
3.21294e-05
2.02938e-05
-6.07912e-06
-4.31496e-08
1.16591e-05
1.9842e-06
-2.17023e-05
-5.75471e-06
4.99586e-05
4.99264e-05
1.78122e-05
2.192e-05
4.34773e-05
2.67302e-05
3.22941e-05
4.5516e-07
-1.43294e-05
4.55238e-06
3.98769e-05
1.82693e-05
5.15286e-07
-6.23871e-06
1.43758e-05
3.48312e-05
9.26782e-06
-2.03871e-05
-4.73027e-05
-1.41868e-05
2.86795e-06
5.81598e-05
4.17049e-05
1.07763e-05
1.1027e-05
2.27078e-05
-1.41966e-05
1.90762e-05
2.53685e-05
7.00905e-07
3.61656e-05
4.15422e-05
2.39858e-05
3.75732e-05
1.97989e-05
8.37732e-05
0.000171318
0.000286373
0.00045747
0.000696273
0.00110018
0.0017809
0.00288582
0.00456859
0.0072942
0.0117081
0.0187368
0.029896
0.0477946
0.0764363
0.122292
0.195571
0.312827
0.500191
0.800532
1.28056
2.04997
3.27985
5.25169
8.40458
13.4606
21.547
34.5185
55.2726
88.5815
141.91
227.597
364.985
586.376
942.665
1521.02
2458.57
4007.45
6564.27
10957.8
18163.1
30908.6
50031.1
4.55255e-06
-1.20517e-06
3.08834e-05
-1.49458e-05
-3.24408e-06
-3.01148e-05
-1.43072e-05
-1.03503e-05
1.20603e-06
2.20491e-05
2.08976e-05
1.55888e-05
-1.33711e-05
-1.06273e-05
-8.21725e-06
-1.66514e-05
-4.97358e-05
-3.32125e-05
-4.02537e-05
-1.56521e-05
5.36123e-06
1.01601e-05
-1.44712e-05
-2.60597e-05
-6.10965e-05
-5.32895e-05
-4.09931e-05
4.87238e-06
-1.45915e-05
-1.51259e-05
-1.81261e-05
2.08212e-05
-4.62781e-05
-3.03441e-05
-1.20163e-05
-2.89137e-05
-1.66128e-05
-1.25172e-05
1.01805e-05
4.91533e-06
1.03358e-05
-2.34851e-05
-9.10318e-07
1.11801e-05
2.08087e-06
1.2783e-05
2.19291e-05
-2.91187e-06
-3.91675e-05
2.72864e-05
4.78744e-05
6.31618e-05
4.90777e-05
4.87961e-05
6.23669e-05
4.21612e-05
6.24505e-05
5.72992e-05
7.8722e-06
-1.61396e-05
1.68451e-05
1.52311e-05
7.06911e-06
3.59901e-05
4.56604e-05
2.09148e-05
-1.62532e-05
2.1663e-05
1.70536e-05
5.65156e-06
1.92661e-05
-3.3341e-05
-5.72838e-05
-4.31128e-05
-3.36874e-05
-3.9659e-07
-2.91323e-05
-4.23264e-05
-3.42685e-05
-1.91337e-05
-1.77082e-05
-2.68211e-05
-3.6813e-05
-1.59849e-05
-2.95574e-05
-5.49447e-05
-4.3727e-05
-2.71256e-05
-7.70067e-06
-3.79032e-05
1.33021e-05
1.46755e-05
-2.03353e-05
-2.3438e-05
-3.25728e-06
-8.52324e-06
2.72802e-05
3.53084e-05
3.82668e-05
2.15818e-05
3.12137e-05
1.12216e-05
3.87581e-05
2.31599e-05
-4.9525e-05
-1.90549e-05
-7.11396e-05
-3.76605e-05
-2.14384e-05
2.6121e-05
2.43522e-05
-2.99863e-05
-7.38486e-05
-3.9492e-05
1.42564e-05
4.18113e-05
1.33285e-05
4.10627e-05
2.04125e-05
2.99344e-07
1.43063e-05
4.7402e-05
3.67958e-05
-3.86081e-06
-2.93308e-05
2.695e-05
1.27091e-05
5.25189e-05
-1.19343e-05
4.70895e-06
4.27541e-05
3.54126e-05
-2.20838e-07
4.1004e-05
7.86904e-05
-1.43651e-05
2.17604e-05
3.77824e-05
3.80597e-05
8.14255e-05
5.5562e-05
5.99803e-05
6.31343e-05
4.45377e-05
3.80778e-05
4.39504e-05
3.02346e-05
-1.65406e-05
-4.40592e-05
-2.31949e-05
-3.0882e-05
-1.40936e-05
-2.0375e-05
-3.07301e-05
8.7106e-06
1.11353e-05
-7.82366e-06
-1.77757e-05
-4.6151e-05
-6.95732e-05
-2.9855e-05
-1.84364e-05
-1.44354e-06
-2.03277e-05
-2.05127e-05
1.10807e-05
2.57119e-05
5.94955e-05
5.10767e-05
2.75792e-06
-3.6973e-05
1.70019e-05
-2.4825e-06
-3.30329e-05
-1.4995e-05
-4.79831e-05
-5.40862e-05
-1.90576e-05
-1.21667e-05
4.49682e-06
-1.30184e-06
-1.44661e-06
-1.67172e-05
-1.94583e-05
-1.75858e-05
-4.51531e-05
-1.72468e-06
-1.10948e-05
-1.82658e-05
-8.13572e-06
9.70039e-06
-1.90609e-05
-2.13055e-05
-1.09816e-05
-1.21583e-05
-4.01603e-05
-3.55546e-06
2.54048e-05
1.99441e-05
-1.58157e-05
-3.59819e-05
5.27212e-06
1.89831e-05
2.74571e-05
-1.06399e-05
-7.12547e-06
-2.16057e-06
2.55038e-05
9.77081e-06
1.59099e-05
-2.34127e-05
-4.76777e-05
-1.47278e-05
-4.33184e-05
-4.83808e-05
-3.23802e-05
-8.40322e-05
-3.30037e-05
-3.96209e-05
-1.22752e-05
-2.58751e-05
-7.26828e-05
-0.000117463
-4.66721e-05
-3.31022e-05
-5.29185e-05
-2.88448e-05
-1.49262e-07
-1.71711e-05
-4.86494e-06
-9.78314e-06
2.97635e-05
2.1023e-05
-1.42317e-05
-9.73796e-07
-6.37446e-06
-2.65633e-05
-1.76459e-05
-8.30204e-06
3.72979e-05
4.81248e-05
2.76352e-05
6.50198e-05
5.2244e-05
2.34444e-05
2.8538e-05
1.09821e-06
4.77795e-05
2.07827e-05
5.63587e-05
6.24924e-05
2.56427e-05
4.01625e-05
5.70361e-05
-3.94267e-06
1.39046e-05
9.14397e-05
0.000117385
0.000195252
0.000263771
0.000409205
0.000685242
0.00103157
0.00163642
0.00264554
0.00424351
0.00673303
0.0107654
0.0171047
0.0272113
0.0434793
0.0693542
0.110793
0.176743
0.282173
0.450258
0.718915
1.14721
1.83181
2.92324
4.66777
7.44859
11.8938
18.9793
30.3053
48.359
77.2209
123.235
196.836
314.247
502.392
803.099
1287.46
2063.87
3331.29
5382.12
8858.55
14379.9
24171.9
38374.1
-2.49349e-06
8.62825e-06
2.34707e-05
3.40144e-06
-1.04543e-05
-2.3781e-05
-3.41373e-05
1.18621e-05
-1.02801e-05
-6.56705e-06
-7.06919e-06
-4.35758e-05
-2.09779e-05
2.57716e-05
-2.77227e-06
-3.64222e-05
-2.22163e-05
-4.12161e-05
-5.27637e-05
-2.41547e-05
7.01076e-06
-1.74139e-05
-4.81253e-05
-1.53671e-05
2.08876e-05
7.85105e-06
7.54073e-07
-1.03221e-05
2.86813e-05
3.25112e-05
3.34958e-05
5.00707e-05
6.13318e-06
-7.26604e-06
5.09889e-05
7.5846e-05
5.38929e-05
-2.65381e-06
-3.90445e-06
-7.88329e-06
1.27562e-05
-2.73369e-05
3.90387e-07
-1.45457e-06
-6.06736e-07
2.4236e-06
9.11497e-06
-4.20462e-06
4.91412e-05
3.69009e-05
6.39826e-06
1.70842e-05
-1.72975e-06
-7.19864e-06
-1.76826e-05
-2.5228e-05
-1.25294e-05
-2.11631e-05
-1.59769e-05
-1.07909e-05
1.46513e-05
1.5078e-05
-1.76562e-05
1.99705e-05
1.02987e-06
1.44957e-05
-8.2655e-06
-5.42685e-06
-2.03708e-05
7.76076e-07
1.90176e-05
1.48166e-05
1.38633e-05
-2.68771e-06
3.17757e-06
-3.68674e-05
-3.59422e-05
-3.474e-05
6.44423e-06
6.35313e-06
-7.85908e-06
-1.92115e-05
-4.28663e-05
-8.458e-05
-9.77117e-05
-2.68363e-05
3.09414e-05
-2.47124e-06
3.56944e-05
6.55252e-05
8.06047e-05
3.55889e-05
3.28696e-05
4.66526e-06
2.09039e-05
5.1398e-05
6.43388e-05
5.02974e-05
-9.99321e-06
-2.59956e-05
5.57837e-06
3.86433e-05
1.31901e-05
8.37817e-06
2.50355e-05
8.01675e-06
2.39808e-05
6.02523e-05
-6.01125e-06
-5.05726e-05
-1.12691e-05
-2.63898e-05
6.86163e-06
-3.86859e-06
2.16671e-05
1.07949e-05
1.67359e-05
6.21044e-05
2.94928e-05
-2.44541e-06
5.72416e-06
-2.94553e-06
1.5278e-05
-5.40208e-05
-4.79379e-05
4.59956e-05
-5.41639e-05
-5.97286e-06
1.66156e-05
3.59243e-05
6.26324e-06
2.5351e-05
3.44599e-05
1.40298e-05
2.67994e-06
4.51607e-05
1.73274e-05
1.06072e-06
2.23628e-05
1.41925e-05
-1.79191e-06
3.54415e-05
2.01214e-05
1.48671e-06
2.17586e-05
3.96172e-05
2.12174e-05
1.3016e-05
4.80515e-05
1.97692e-05
4.21489e-05
1.40228e-05
-1.18213e-05
-2.81332e-05
-5.1835e-06
5.50273e-06
-1.53794e-05
1.70425e-05
-1.92558e-05
1.1704e-05
8.42154e-06
5.71938e-06
3.16142e-06
6.30888e-06
-7.32274e-06
5.11815e-05
2.2832e-05
-2.61186e-05
-4.74167e-06
1.44243e-05
4.52287e-05
4.78935e-05
1.36259e-05
-1.84468e-07
1.48295e-06
-7.01676e-05
-2.99936e-05
-1.43003e-05
-3.04739e-05
3.99515e-06
2.66927e-05
-3.47012e-05
-4.65331e-05
1.45281e-05
-7.27692e-06
1.64829e-05
6.62654e-05
4.64812e-05
3.91159e-05
2.11481e-05
2.45128e-05
3.13972e-06
-1.08677e-05
-1.30548e-05
-2.88048e-06
2.60138e-05
2.54403e-06
2.48511e-05
4.04166e-05
3.45115e-05
-1.19213e-05
-1.16435e-05
8.19659e-06
3.14524e-05
-1.42239e-05
-2.43255e-05
-4.4316e-06
-1.47382e-05
-1.60932e-05
-2.5464e-05
2.23079e-05
5.70737e-05
7.58091e-05
3.26728e-05
3.52285e-06
-4.2483e-05
-3.38358e-05
1.23333e-07
-1.54211e-05
-7.38792e-05
-4.05488e-05
-3.22276e-05
-3.97563e-05
-5.04036e-05
-1.31996e-05
-3.57871e-05
-2.13911e-05
2.36268e-05
1.06422e-05
1.58381e-05
8.75654e-06
-7.71887e-07
5.56093e-05
4.19768e-05
8.4043e-06
8.164e-06
2.03963e-05
2.97689e-05
1.04534e-05
3.91325e-05
3.85327e-05
-8.72269e-06
6.37827e-05
6.45167e-05
2.70616e-05
3.03859e-05
2.50077e-05
3.16543e-05
4.49255e-06
-1.84567e-05
-5.35082e-06
-1.85701e-05
-4.2715e-05
-2.20482e-06
2.60565e-05
4.23075e-05
3.03034e-05
6.03531e-05
8.28585e-05
0.000257072
0.000331442
0.000530717
0.000922623
0.00147521
0.00234541
0.00375225
0.00594807
0.00942413
0.0150315
0.0239027
0.0381022
0.060652
0.0966074
0.153814
0.244922
0.389813
0.620792
0.987984
1.57323
2.50332
3.98551
6.34048
10.0924
16.0525
25.5459
40.6225
64.6336
102.759
163.485
259.909
413.654
657.937
1048.86
1669.95
2674.11
4274.88
6956.9
11107.8
18420.5
28626.5
1.5462e-05
1.0214e-05
3.33869e-05
2.74861e-05
-2.14597e-05
-6.57574e-06
1.6369e-05
-2.34864e-05
-4.25389e-05
-3.17563e-05
-6.669e-06
8.56497e-06
6.58258e-06
4.28176e-06
2.50814e-05
5.71566e-05
2.49829e-05
1.63581e-05
1.68266e-06
-3.19158e-05
-2.01988e-05
2.05648e-05
2.8304e-05
5.74608e-05
9.17469e-05
6.6931e-05
6.62495e-05
-1.03065e-05
2.73223e-05
1.48619e-05
-4.74748e-06
3.3011e-05
2.19507e-05
4.1542e-05
1.14278e-06
-9.18564e-06
1.47912e-05
1.17143e-05
-3.54362e-06
-3.9725e-05
-1.35739e-05
5.75216e-05
8.52003e-06
8.18064e-06
3.86699e-05
2.77594e-05
1.60564e-05
8.60333e-06
1.47437e-05
2.42426e-06
-1.86499e-05
-2.51967e-05
-4.70926e-05
-9.59197e-05
-1.98452e-05
-1.00141e-05
9.95042e-07
-3.34133e-05
-5.78358e-06
1.20606e-05
-4.15578e-05
-4.03663e-05
-3.12103e-05
-2.16113e-05
-8.30258e-05
-8.48293e-06
1.58837e-05
9.1407e-06
-4.9882e-07
2.54365e-05
3.94179e-05
4.4142e-05
4.53772e-05
2.88619e-05
4.00972e-05
6.02209e-05
3.27165e-05
3.13441e-05
2.8796e-05
1.71613e-05
6.39716e-05
6.67437e-05
2.48459e-05
4.54891e-05
1.97102e-05
-1.49783e-05
-5.63533e-05
-5.21717e-05
-2.0444e-05
-6.50435e-06
5.46569e-06
-2.50507e-05
-3.70209e-05
-4.04883e-05
-1.54556e-05
-2.72888e-05
-3.27061e-05
-2.96454e-05
-1.29778e-05
-4.65965e-05
-5.46479e-05
-4.46762e-05
-1.6037e-05
3.36497e-05
4.15339e-05
3.02116e-05
3.33901e-05
2.48753e-06
-3.00916e-05
3.19706e-06
-2.80912e-05
-3.02746e-05
-3.61557e-05
-3.18957e-05
4.65283e-05
2.30155e-05
3.17437e-05
2.63532e-05
2.38513e-06
3.107e-05
5.31888e-05
4.08205e-06
-1.82991e-05
-4.28109e-06
-7.83482e-06
-4.75323e-05
-3.74722e-05
-2.78675e-05
-3.9941e-05
1.49596e-05
5.78265e-05
3.10314e-05
2.46959e-06
-1.66971e-05
2.7111e-05
1.37205e-05
2.1605e-05
1.7225e-05
-3.36431e-05
-2.12632e-05
-2.52396e-05
-4.82945e-05
-3.19304e-05
-4.75194e-05
6.94082e-06
-4.05662e-06
9.71286e-06
2.39932e-07
4.98983e-06
1.37366e-05
1.90967e-05
1.27254e-05
-3.08029e-05
-0.00010873
-7.73342e-05
-5.21347e-05
-4.39859e-05
-3.61005e-05
1.62061e-05
3.0271e-06
-2.45175e-06
1.13405e-05
1.12673e-05
4.66577e-06
-4.32617e-05
-4.67688e-05
3.8397e-05
4.10024e-05
3.26784e-05
4.56593e-05
4.45654e-05
-2.17274e-05
-9.35377e-06
3.72482e-06
9.34756e-06
1.85254e-05
1.83061e-05
7.6725e-06
2.43883e-05
-2.03251e-05
-2.79491e-05
-3.20289e-05
-3.32264e-05
-5.22748e-05
-1.83876e-05
-1.78495e-05
8.75063e-06
3.27218e-06
-3.77136e-05
-1.72059e-05
3.72226e-06
-3.9233e-05
-1.06114e-05
1.7309e-05
1.02341e-05
1.46578e-05
-1.9587e-06
1.64941e-05
5.31737e-05
1.57276e-05
-7.34461e-06
2.59752e-05
1.86389e-05
1.73521e-05
4.03051e-05
-5.83784e-06
-2.08044e-05
1.49304e-05
1.38587e-05
-1.33253e-05
-3.86019e-05
-2.50859e-05
-9.43933e-06
1.56255e-05
6.76291e-05
3.05447e-05
-2.13252e-05
-2.27176e-05
-2.22878e-05
-1.61878e-05
2.32793e-05
3.43722e-05
-5.5924e-05
-5.9205e-05
-2.39705e-05
-3.71796e-06
8.4801e-06
3.25702e-05
5.57676e-05
3.02289e-05
1.73411e-06
-2.06701e-05
-7.40758e-07
2.92408e-05
2.22874e-05
-7.04698e-06
3.33685e-05
2.05176e-05
-5.37397e-05
-5.0501e-05
-3.89315e-06
2.29963e-05
-1.86284e-06
-1.84791e-05
5.5842e-05
8.57533e-06
3.19417e-05
3.11723e-05
3.1446e-05
1.5318e-05
-3.07599e-05
-3.95414e-05
-1.52218e-05
-5.18046e-06
2.53159e-05
2.71673e-05
5.23787e-05
9.14298e-05
9.46813e-05
0.000205072
0.000312555
0.000484279
0.00077693
0.0012828
0.00200003
0.00319353
0.00508511
0.00803614
0.0128127
0.0203875
0.032389
0.0515075
0.0818223
0.129854
0.206301
0.327518
0.52027
0.82588
1.31168
2.08159
3.30504
5.24355
8.32326
13.201
20.9475
33.2127
52.686
83.5085
132.441
209.87
332.876
527.507
837.569
1327.26
2113.99
3355.69
5420.34
8555.68
14040.9
21404.2
1.6109e-06
-9.0205e-06
-3.71892e-05
-2.36355e-05
-2.44769e-05
-7.173e-07
4.14157e-06
9.66628e-06
-7.429e-06
-2.4595e-06
4.03248e-05
4.68788e-05
4.08406e-05
-3.57727e-06
1.68818e-05
3.50565e-05
2.33333e-05
4.36201e-05
3.369e-05
4.02731e-05
7.10106e-05
4.87769e-05
6.21743e-05
4.85166e-05
-5.09583e-06
-2.87281e-05
-3.4881e-06
1.68269e-05
1.90749e-05
9.28296e-06
3.79167e-05
4.26563e-05
2.10074e-05
1.16142e-05
-6.90486e-07
1.16143e-05
-1.37424e-05
-4.4724e-05
-4.78271e-05
-1.23473e-05
-1.40071e-05
-4.194e-05
-7.98417e-05
-5.54621e-05
-5.68743e-05
-3.54658e-05
1.5928e-05
-4.75492e-06
-2.7984e-05
5.15634e-06
-1.38675e-05
-1.0139e-05
-6.39768e-05
-4.61085e-05
-3.59204e-06
1.61886e-05
-1.49508e-05
-1.08063e-05
-8.61848e-06
-1.33891e-05
2.75745e-06
-5.10286e-06
9.24133e-06
-1.9339e-05
-9.64958e-06
-7.43997e-06
-1.06712e-05
1.77e-05
-2.44471e-05
-6.53959e-05
-2.52902e-05
-3.34768e-05
-5.04614e-06
-3.40599e-05
1.33012e-05
4.84029e-05
7.27856e-05
6.09986e-05
1.03237e-05
-1.53645e-05
-4.81081e-06
-1.50959e-05
-3.88935e-05
-1.16823e-05
-1.18575e-05
-1.72274e-05
2.39037e-05
1.4876e-05
2.62854e-05
1.85029e-05
1.34681e-05
-2.31968e-05
-2.79537e-05
-1.79609e-05
-2.09075e-05
-2.96214e-05
-1.50929e-05
5.31954e-05
3.90798e-05
3.99631e-05
1.24415e-05
-3.72642e-05
-2.5116e-05
-3.69091e-05
-3.69533e-05
-2.90683e-05
1.05798e-05
3.43817e-05
4.47039e-05
6.00005e-05
6.12908e-05
4.81789e-06
1.34957e-05
-1.47046e-05
-3.6009e-05
9.34741e-06
4.74289e-05
5.20219e-05
7.74357e-06
-1.93259e-05
9.64611e-06
1.57206e-05
2.09271e-05
3.32527e-05
3.45273e-05
7.30812e-06
1.34099e-05
3.7367e-05
-1.0224e-05
5.9855e-05
5.56327e-05
-3.77008e-06
-2.28176e-05
5.35721e-06
-2.25641e-07
-9.62216e-06
1.57963e-05
3.28167e-05
-2.06014e-05
-4.06841e-05
-3.12817e-05
2.08407e-05
3.19198e-05
6.12721e-06
-3.74499e-06
3.16633e-05
2.78541e-05
4.51504e-05
2.84326e-05
5.60516e-05
5.45942e-05
3.12271e-05
3.87581e-05
4.92253e-05
1.70235e-05
5.50443e-05
2.6811e-05
2.83343e-05
-3.4852e-06
-2.53322e-06
-2.49024e-05
-3.93656e-05
-3.63531e-05
-1.31372e-05
-2.89855e-05
-1.2842e-05
-1.4287e-05
-1.7303e-05
-3.79376e-05
4.51183e-05
3.5949e-05
-4.19268e-05
-3.01097e-05
6.91001e-06
2.13923e-05
-1.7875e-05
-1.35521e-05
1.72526e-05
-4.59509e-05
-1.39752e-05
-2.76944e-05
-8.10936e-07
2.83435e-05
1.76967e-05
-4.15282e-05
9.32129e-06
-2.93699e-06
3.89032e-05
5.50241e-05
5.72374e-05
8.18571e-05
4.68925e-05
3.26884e-05
4.02129e-05
-8.46435e-07
-6.38742e-06
4.29522e-06
-2.28329e-06
-1.22402e-05
2.43356e-05
5.17432e-05
8.53906e-06
-2.3031e-06
-9.59553e-06
-3.5976e-05
-1.7482e-05
-4.51988e-05
-5.74636e-05
-6.87665e-05
-2.46069e-05
-3.58276e-05
-4.95021e-05
-3.25747e-05
1.65244e-05
3.27778e-05
4.56233e-05
-1.13105e-05
-1.23861e-05
-1.81487e-05
4.87054e-07
-9.50378e-06
-3.36143e-06
-1.43157e-05
3.39899e-05
3.29053e-05
5.35841e-06
3.08945e-05
-4.88635e-05
-3.14211e-05
-3.47867e-05
-2.85699e-06
3.60752e-05
3.02062e-05
-2.51043e-06
3.05374e-05
-1.29205e-05
7.9376e-06
7.7375e-06
5.36152e-06
-1.70458e-05
-5.46842e-06
1.74655e-05
3.92358e-05
3.04105e-05
3.45931e-05
3.44229e-05
-1.5977e-06
-7.72841e-06
6.72498e-05
1.10898e-06
-1.2452e-05
2.29096e-05
3.90958e-06
-2.02185e-05
1.91317e-06
3.22252e-05
5.24783e-06
1.9917e-05
8.33037e-05
0.000136172
0.000263068
0.000394888
0.000659997
0.00107518
0.001701
0.00270803
0.00427023
0.00676859
0.0107
0.0169448
0.02684
0.0426328
0.0675646
0.107064
0.169701
0.268765
0.426056
0.674737
1.06919
1.69286
2.68161
4.24442
6.72134
10.635
16.8355
26.6291
42.141
66.633
105.42
166.635
263.628
416.648
659.669
1041.93
1653.51
2612.35
4198.48
6575.21
10707.2
16068.3
7.09745e-06
-6.75726e-06
-1.87496e-06
-1.01404e-05
-3.5701e-05
-2.00125e-05
-1.8046e-05
1.428e-05
9.2203e-06
-2.57767e-05
-1.72851e-05
6.98536e-06
6.61819e-06
7.56469e-06
-9.83643e-06
5.06768e-05
2.7398e-05
2.89211e-05
7.0177e-06
-3.08625e-05
-1.00122e-06
2.47796e-05
3.54458e-05
4.41615e-05
3.2172e-05
2.29567e-05
2.31647e-05
-2.23141e-05
1.04313e-05
-2.25572e-05
-1.05259e-05
-5.20376e-06
-3.19388e-05
-4.26962e-05
-2.50119e-05
9.19131e-06
-9.10862e-06
-2.77233e-05
-3.24073e-05
-6.76036e-06
8.80093e-06
-3.93237e-05
1.19816e-05
1.05863e-05
-1.80961e-05
1.3203e-05
7.64944e-06
3.31122e-06
3.65309e-05
2.67777e-05
2.84364e-05
-2.02133e-05
1.05742e-05
-3.48284e-05
-3.23699e-05
7.26432e-06
3.36657e-05
-1.36585e-06
9.58737e-06
2.87549e-05
-2.88339e-06
-2.30457e-05
-4.71625e-05
1.20352e-05
3.24448e-05
-2.37901e-06
-2.04737e-05
1.16558e-05
-1.05169e-05
1.05518e-05
-1.24975e-06
-1.79534e-05
-3.89185e-05
-3.40403e-05
8.19443e-06
2.80299e-05
2.25893e-05
2.16696e-05
4.59708e-05
5.30637e-05
-1.9846e-07
-2.88355e-06
2.25119e-06
-4.24771e-06
3.94662e-05
2.27627e-07
2.53282e-05
-7.87262e-06
-3.45947e-06
-1.6567e-05
-1.1656e-05
3.09916e-05
4.87474e-05
-1.75004e-05
-2.2378e-05
-1.34974e-07
9.83762e-06
-8.00335e-07
-3.97461e-05
3.69134e-05
3.57763e-05
4.03033e-05
4.92664e-05
1.79493e-05
3.78851e-05
7.13177e-06
1.1903e-05
1.9469e-05
-1.92267e-05
-1.13135e-07
-1.4922e-05
-1.11406e-05
-7.3945e-05
-5.21243e-05
-1.10809e-05
1.77781e-05
1.19119e-05
-1.43763e-05
-4.38463e-05
-6.41951e-05
-1.33163e-05
6.94917e-06
4.70267e-06
-2.49091e-05
-5.23944e-05
-5.10296e-05
-2.27676e-05
-3.63375e-05
2.69813e-05
1.56798e-05
-2.76875e-06
7.51644e-07
3.19434e-05
-1.44279e-05
-1.96873e-05
-2.4964e-05
-1.8642e-05
-2.82046e-05
-2.25678e-05
1.63869e-05
7.36784e-05
5.61141e-05
1.2748e-05
-1.11461e-05
2.54611e-05
1.09583e-05
4.47413e-06
2.44886e-05
3.9559e-05
-1.61893e-05
-4.33137e-06
9.42424e-06
-1.2793e-05
-7.97874e-06
2.70791e-05
2.33932e-05
-4.18562e-05
-4.95447e-05
-4.13554e-05
-5.08157e-05
-1.23586e-05
1.52466e-05
1.62176e-05
5.26542e-05
3.93521e-05
-6.4598e-06
-2.98378e-05
-4.30923e-06
1.58177e-05
1.67569e-05
-2.25327e-05
-9.74018e-06
-4.22881e-05
-4.30115e-05
-5.0721e-05
-6.01725e-05
-9.619e-05
-6.18966e-05
-4.39355e-05
3.63901e-06
-1.24975e-05
2.38676e-05
3.56632e-05
5.53997e-06
-1.43428e-06
2.56307e-06
2.17878e-05
-1.19013e-05
-3.79321e-06
-3.25994e-05
1.84507e-05
2.7385e-05
2.06318e-05
5.83299e-06
-8.0953e-06
-3.50413e-06
6.04459e-06
-2.81276e-06
-9.1998e-06
-1.81394e-05
1.23299e-05
3.51042e-05
-1.58957e-05
-1.78362e-05
1.36676e-05
-1.74412e-05
-2.8024e-05
-3.93524e-05
-2.78053e-05
-4.88704e-05
-2.97495e-05
2.25876e-06
3.48234e-05
8.01416e-06
3.1911e-05
-1.05713e-05
-3.37923e-05
-2.09076e-05
-7.02421e-05
-9.74746e-05
-6.80358e-05
-6.62813e-05
-4.25121e-05
-9.84881e-06
-4.13406e-05
-3.18786e-05
-3.58118e-05
-6.35181e-05
-3.43694e-05
-1.15134e-05
2.06603e-05
-9.19422e-06
1.29836e-05
1.81051e-05
1.48926e-05
-1.28859e-05
4.66209e-05
4.40869e-06
8.96326e-06
-1.2039e-05
-4.07176e-05
-9.50752e-06
1.18033e-05
-2.22461e-05
1.916e-05
-3.55436e-06
-1.04985e-05
1.60352e-05
3.20209e-05
2.68946e-05
1.03707e-05
1.40749e-05
4.24423e-06
1.1176e-05
1.41087e-05
8.99728e-06
5.01301e-05
7.37079e-05
0.000105851
0.000137865
0.00023141
0.000336764
0.000500585
0.000834925
0.00137196
0.00218731
0.00348668
0.00552639
0.00871422
0.0138156
0.0219034
0.0345885
0.0547192
0.0865692
0.137019
0.216608
0.342704
0.541745
0.856725
1.35384
2.14043
3.38136
5.34429
8.4399
13.3353
21.053
33.2542
52.4837
82.8804
130.765
206.491
325.716
514.659
811.064
1283.94
2022.08
3238.89
5045.53
8170.24
12116.4
-1.18867e-05
-1.60556e-05
-2.37983e-05
2.35918e-06
1.51613e-06
3.53973e-05
1.42726e-05
-3.66074e-05
1.54572e-06
1.21592e-05
1.85683e-07
7.16313e-05
4.52985e-05
4.69431e-05
2.39078e-05
5.19515e-05
5.65767e-05
1.68025e-05
-3.1131e-05
-2.30368e-05
-1.53005e-05
-5.8102e-06
-3.33131e-05
4.11996e-06
-1.27995e-05
-4.10136e-05
-1.47045e-05
-1.61355e-05
-2.99301e-05
3.37757e-06
1.04436e-05
-4.53083e-05
-1.58041e-05
-4.75517e-05
-5.00459e-05
-4.24613e-05
1.55305e-05
-3.07844e-05
-5.00941e-05
-5.74287e-05
-7.24137e-06
3.44054e-05
1.19479e-05
1.44483e-05
2.02408e-05
5.03805e-05
3.22213e-05
3.86068e-05
3.60769e-05
1.02463e-05
-1.57661e-05
6.13677e-05
7.47884e-05
4.6567e-05
7.73747e-05
6.27793e-05
5.78152e-05
5.55424e-05
5.03937e-05
3.3495e-05
6.87993e-05
2.77901e-05
1.26198e-05
1.8025e-05
1.53904e-05
-2.36026e-05
7.69792e-06
-2.95247e-05
-2.50442e-05
-1.96204e-05
-3.11643e-05
-6.00353e-06
-4.1427e-06
-2.96674e-05
-3.05882e-05
-1.64599e-05
-1.398e-05
-5.60671e-05
-5.30322e-05
-1.59995e-05
1.48726e-06
2.03343e-05
1.30711e-05
6.1304e-05
4.66242e-05
-4.09367e-05
-5.76995e-05
-3.89908e-05
-2.60083e-05
-3.54186e-06
1.3213e-05
-2.39959e-05
-7.36191e-05
-4.38033e-05
-2.8501e-05
-6.8543e-06
-1.24924e-05
7.68358e-06
-9.02677e-06
-1.61252e-05
-2.40816e-05
4.20634e-06
5.47986e-05
1.99445e-05
1.12859e-05
1.50803e-05
-2.72979e-06
-5.60586e-05
-3.79744e-06
-1.74571e-05
-3.72097e-05
-4.2023e-05
-3.59517e-06
3.952e-06
1.3189e-06
-2.78312e-05
-1.77881e-05
-1.31886e-05
-2.08355e-05
-1.15551e-05
2.21215e-05
2.81039e-05
2.33051e-05
-2.24219e-05
-2.14469e-05
-1.73136e-05
1.40443e-05
5.48646e-05
3.09667e-05
1.43515e-05
2.24273e-05
1.62118e-05
2.94334e-05
4.68711e-05
-1.63977e-05
-6.35762e-06
-1.38544e-06
8.12641e-06
2.12639e-05
-9.97462e-06
-3.95488e-06
-3.20079e-05
4.30534e-05
5.06271e-05
3.29103e-05
-8.53832e-07
-5.90166e-08
5.63183e-06
4.72452e-08
-6.60328e-05
-4.19281e-05
-2.34545e-05
3.02415e-05
4.17671e-05
-9.63199e-06
1.28089e-05
2.19878e-05
3.25892e-05
2.22807e-05
2.79981e-05
5.28745e-05
7.32239e-05
1.84336e-05
5.84572e-05
4.93408e-05
1.70794e-05
5.49102e-05
1.15365e-05
3.5256e-05
3.89474e-05
4.40458e-05
3.58549e-05
2.09653e-06
-1.65954e-05
-2.50759e-05
9.68433e-06
2.2172e-05
7.11798e-05
3.56648e-05
4.80055e-05
2.46118e-05
-7.94454e-06
1.67262e-05
9.22004e-06
-1.09591e-05
2.47797e-05
-4.31794e-05
-3.34638e-05
-1.7676e-05
8.47362e-06
-2.99404e-05
-5.87298e-05
6.96365e-06
2.33207e-05
3.07132e-05
-2.1698e-06
-5.39015e-07
-4.01549e-05
-1.31928e-05
-2.92169e-05
2.19794e-06
-2.68455e-05
-5.92921e-06
-2.18813e-05
-2.87887e-05
-1.47548e-05
3.03829e-05
5.63638e-05
4.65935e-05
1.34531e-05
1.59834e-05
1.91011e-05
1.14871e-06
4.15488e-06
-1.8225e-06
-3.43762e-05
-1.52346e-05
-9.29158e-06
8.40396e-06
1.53092e-05
-4.12754e-05
3.81927e-05
4.39132e-05
4.903e-05
2.09986e-05
3.32652e-05
3.55863e-05
2.84218e-06
4.88084e-06
2.15236e-05
1.39438e-05
-4.65569e-06
-2.74288e-05
-2.17371e-05
-1.78691e-05
-2.91721e-05
-7.23838e-05
-4.08831e-05
-4.18339e-05
-2.97202e-05
1.10224e-05
1.79709e-05
-1.88365e-06
1.65961e-05
4.06468e-05
-7.69392e-06
-1.34115e-05
1.52748e-05
7.42767e-06
-3.40182e-06
-5.05364e-05
-1.50372e-05
2.39827e-05
4.2259e-05
4.74334e-05
2.80017e-05
2.47208e-05
4.00802e-05
0.000103755
8.88855e-05
0.000192088
0.000292486
0.000435067
0.000703085
0.00112457
0.00177646
0.00277296
0.00439885
0.00705283
0.0111116
0.0175144
0.0276932
0.0438302
0.0691119
0.109109
0.172251
0.272037
0.42922
0.677647
1.06905
1.68748
2.66154
4.20011
6.6229
10.4485
16.4712
25.9792
40.9431
64.5649
101.725
160.41
252.668
398.657
627.248
991.233
1557.71
2489.25
3863.79
6231.79
9162.75
9.41974e-06
7.79631e-07
-2.53066e-05
-1.76262e-06
-2.97322e-05
-3.17897e-05
-2.04578e-05
3.97598e-06
6.86013e-06
8.80285e-06
4.31097e-06
-1.29584e-05
1.80238e-05
2.30237e-05
2.12502e-05
-2.71712e-05
-1.46824e-05
-9.89809e-06
-4.49233e-05
-6.08056e-05
-1.87319e-05
-1.85608e-05
-3.91901e-05
-1.66697e-05
1.99141e-06
4.65344e-05
8.40699e-05
4.34538e-05
1.43772e-05
5.18304e-05
3.4614e-05
3.10089e-05
1.82477e-05
-1.59433e-06
-3.90864e-05
-2.29669e-05
-5.64877e-05
-2.82582e-05
-5.93385e-05
-4.14481e-05
-1.83341e-05