/*--------------------------------*- C++ -*----------------------------------*\
| =========                 |                                                 |
| \\      /  F ield         | OpenFOAM: The Open Source CFD Toolbox           |
|  \\    /   O peration     | Version:  2412                                  |
|   \\  /    A nd           | Website:  www.openfoam.com                      |
|    \\/     M anipulation  |                                                 |
\*---------------------------------------------------------------------------*/
FoamFile
{
    version     2.0;
    format      ascii;
    arch        "LSB;label=32;scalar=64";
    class       volScalarField;
    location    "0.0015";
    object      ddt0(rho,K);
}
// * * * * * * * * * * * * * * * * * * * * * * * * * * * * * * * * * * * * * //

dimensions      [1 -1 -3 0 0 0 0];

internalField   nonuniform List<scalar> 
180000
(
-2.8293e-06
-3.58056e-05
-7.38479e-05
-3.10264e-05
-7.86564e-06
5.87502e-05
2.61888e-05
-3.31574e-06
9.68447e-06
2.91121e-05
5.03602e-06
1.70745e-05
-3.61058e-05
-1.67662e-05
5.61173e-08
-1.41629e-05
-3.63746e-05
1.23398e-05
4.69876e-06
-5.69216e-05
-4.69891e-06
-4.26204e-06
-2.77095e-05
4.58756e-06
-2.73352e-05
-3.96051e-05
-9.87364e-06
1.04844e-05
3.24104e-05
4.68733e-05
3.42414e-05
1.47704e-05
4.64966e-05
-2.2425e-05
-2.35075e-05
-1.23751e-05
-1.2901e-05
3.56068e-05
3.65395e-05
3.10708e-05
4.74541e-05
5.61516e-05
6.27263e-05
6.62287e-05
8.11701e-05
5.71576e-05
2.83456e-05
-4.18392e-06
-4.6563e-07
-7.46276e-05
-0.000116362
-6.95411e-05
-2.16586e-05
-0.000105924
-8.24788e-05
-4.45026e-05
-5.07999e-05
-3.61165e-05
-7.35149e-05
-5.50268e-05
-2.23889e-05
-7.9653e-05
-6.30157e-05
-5.19482e-05
-3.79969e-05
-6.03994e-05
8.23982e-06
-3.67784e-05
-1.2493e-05
-3.9369e-05
7.55124e-06
4.51466e-06
5.72242e-05
3.94096e-06
1.04135e-05
-1.40531e-05
1.46527e-05
1.50309e-05
-1.00921e-05
6.56925e-06
-1.51822e-06
3.73424e-05
2.17097e-05
2.34106e-05
0.000103514
5.35899e-05
2.69331e-05
1.51006e-05
4.36886e-05
5.57443e-05
8.78388e-05
1.30047e-05
-8.45789e-06
-2.9679e-05
2.41605e-05
2.97881e-05
3.63972e-05
1.38053e-05
3.76596e-05
6.20047e-05
6.34173e-05
0.000103703
5.29721e-05
3.77937e-05
1.01762e-05
4.2663e-06
-3.26929e-05
6.52008e-06
-4.33869e-06
1.17692e-05
1.78154e-05
5.12487e-08
-1.37847e-05
-2.74482e-05
1.62443e-06
4.00778e-05
1.28017e-05
1.62673e-05
1.45007e-05
-1.64379e-06
-4.13721e-05
-4.17793e-06
1.92866e-05
1.26224e-05
3.67986e-05
1.07884e-05
-2.71423e-05
3.04271e-05
3.46885e-05
-1.51586e-05
7.48687e-05
9.10466e-05
4.87099e-05
9.05573e-06
4.70443e-05
5.22931e-05
3.48668e-05
5.03415e-05
-1.65855e-05
-1.19413e-06
2.41551e-05
1.11224e-05
-2.22818e-05
8.45696e-06
2.57355e-05
-8.91698e-06
-2.07016e-06
2.44279e-05
2.96082e-05
-2.83329e-05
2.91194e-05
1.46325e-05
-9.26749e-06
2.32511e-05
-9.89551e-06
-3.04365e-05
-1.15485e-06
-6.24361e-05
-5.51678e-05
-1.78281e-05
-4.44747e-05
-8.67844e-05
-6.39852e-05
-2.76576e-05
-2.72651e-05
4.71586e-05
-4.02153e-06
-1.57902e-05
4.55701e-06
-1.07383e-05
3.68385e-06
5.39235e-05
4.3851e-05
5.55137e-05
4.83318e-05
6.79871e-05
2.14444e-05
-1.37741e-05
6.60086e-06
3.19743e-05
4.14806e-05
2.91701e-05
4.67198e-05
7.02631e-05
6.96632e-05
6.66873e-05
0.000103788
5.38902e-05
8.3068e-05
0.000120057
8.20689e-05
9.32578e-05
5.10777e-05
2.76281e-05
3.64279e-05
-1.57202e-05
-1.88043e-05
-4.46653e-05
-3.95823e-05
-4.87831e-05
-2.26692e-05
-5.66294e-05
-1.54399e-05
1.47127e-05
-1.46689e-05
-2.22504e-05
-8.0692e-06
-3.55381e-05
-3.9828e-05
-2.99521e-06
3.86562e-05
5.1138e-05
4.11856e-05
3.25505e-05
1.86147e-05
-6.40997e-06
-5.23992e-05
-1.50475e-05
-3.58805e-06
-4.95439e-06
-6.448e-06
-4.31609e-05
-2.09583e-05
-2.49726e-05
-4.89901e-05
-1.74195e-05
2.02331e-08
-1.09306e-05
-5.35617e-06
-1.20093e-05
-2.01651e-05
1.45433e-05
1.62481e-05
-3.72847e-07
1.74665e-05
-9.88165e-06
-5.02709e-05
-4.88452e-05
-6.25153e-05
-6.71622e-05
-1.26781e-05
-4.64848e-05
-3.71835e-05
-6.8998e-06
-1.37124e-06
2.36638e-06
2.87791e-05
2.5824e-06
6.53635e-05
-6.61127e-06
3.33209e-06
6.0564e-05
-3.68004e-05
-3.81781e-05
-1.40573e-05
-3.6202e-05
1.03767e-05
-2.96074e-05
3.33639e-05
0.000104287
0.000108024
0.00025386
0.000354392
0.000632223
0.000917875
0.00153175
0.00247389
0.00392616
0.0062855
0.00999931
0.0159661
0.025498
0.0407839
0.0652127
0.104209
0.166736
0.266439
0.426629
0.681822
1.09188
1.74516
2.79506
4.46727
7.15334
11.4274
18.2815
29.1501
46.4903
73.7062
116.472
181.482
278.82
410.862
573.413
669.765
501.359
-824.671
-4507.51
-15610.5
-33375.6
-1.64061e-05
8.01993e-06
1.30768e-05
-1.85308e-06
6.43827e-05
6.34256e-05
4.35128e-05
-7.78202e-06
8.69675e-07
-2.58716e-06
-4.63653e-05
5.82057e-05
-1.20728e-06
-6.38626e-07
-1.88316e-07
-3.29836e-06
-3.3259e-06
-1.45228e-05
-8.25979e-05
-5.23603e-05
-5.86444e-05
-1.86029e-05
-1.2772e-05
-2.79412e-05
-1.43511e-05
1.69035e-05
-7.31233e-06
-5.67771e-07
5.23858e-07
1.29691e-06
8.9543e-06
-2.89906e-05
2.42738e-05
-3.32286e-05
9.80104e-06
3.50473e-05
6.65913e-05
3.8108e-05
2.66136e-06
2.86472e-05
-7.45146e-05
2.75601e-06
3.41507e-05
2.26258e-05
-4.83498e-06
-7.7695e-06
1.79725e-05
5.64409e-06
-5.91778e-05
-2.55625e-05
-1.8642e-05
1.27709e-05
3.44291e-05
2.3747e-05
2.07279e-05
-5.71794e-06
4.37076e-05
-2.30722e-05
-1.98221e-05
-1.25807e-06
-2.56047e-05
1.12548e-05
4.1835e-05
-3.54734e-05
1.53186e-05
3.8907e-05
-4.09472e-05
-5.77321e-05
-7.9401e-05
-4.82478e-05
-6.50957e-05
-4.75705e-05
-7.29006e-05
-2.81239e-05
-2.99235e-06
-1.47457e-05
-1.1066e-05
-4.62554e-05
1.97325e-05
1.82852e-05
1.17406e-05
4.91373e-05
4.96098e-05
3.74394e-05
-1.04985e-05
-6.17404e-05
-2.81466e-05
-3.85006e-05
8.76136e-06
3.33915e-05
-9.95149e-06
-3.5036e-05
1.21437e-05
-1.08599e-05
-4.14097e-05
-4.38596e-05
2.84319e-06
-1.69042e-05
-2.2033e-05
8.73045e-06
-4.28317e-05
-3.09469e-05
-2.26598e-05
3.6997e-05
4.35009e-05
1.53218e-05
3.20861e-05
3.23357e-05
5.62554e-05
4.22385e-05
6.73513e-05
3.64237e-05
3.12028e-05
8.30069e-06
-1.67984e-05
-3.42977e-05
5.76032e-05
4.25441e-05
6.62917e-05
7.98846e-05
9.6029e-05
8.98871e-05
6.3324e-05
2.98398e-05
2.29966e-05
1.385e-06
2.93873e-05
8.73103e-06
4.19471e-05
3.9065e-05
-1.345e-05
2.03246e-05
-2.10181e-05
5.29136e-05
-1.18706e-06
-1.74495e-05
-3.32971e-05
2.47329e-05
5.58561e-05
4.94703e-05
1.69291e-05
1.0291e-05
3.55399e-05
1.15715e-07
4.13738e-05
3.23582e-05
4.83281e-05
-1.35795e-05
-1.45866e-05
-8.78851e-05
-8.27143e-05
-5.39389e-05
-8.66721e-05
-1.57904e-05
-2.85609e-05
-2.38696e-05
-7.44622e-05
-7.2948e-05
-4.40086e-05
5.76914e-07
9.79729e-06
3.27208e-05
1.29361e-05
4.93243e-05
5.50611e-05
2.53008e-06
2.88254e-05
-2.86616e-05
-3.05527e-05
-2.47041e-05
-7.07982e-05
-5.76634e-05
8.91297e-06
-3.65429e-05
-2.86808e-05
-2.33259e-05
-3.0925e-05
-1.17947e-05
-2.52533e-05
-6.29609e-05
-9.67135e-06
-8.53265e-05
-0.000117031
-2.55209e-05
5.46706e-06
3.52231e-05
4.24348e-05
-1.59084e-05
6.38798e-06
5.30716e-05
-1.0903e-06
-1.53472e-05
2.56517e-05
2.40493e-05
1.75477e-05
-5.75759e-07
7.22356e-06
2.37912e-05
-8.54696e-06
-3.37408e-05
2.10152e-05
6.16368e-05
-2.90809e-06
6.32052e-06
4.86783e-05
-1.70011e-05
1.94917e-05
3.51144e-05
8.47191e-06
3.9393e-05
3.04021e-05
-9.07017e-06
-2.60697e-05
-3.87542e-05
-1.49823e-05
-3.69072e-06
-7.16377e-05
-4.59678e-05
-7.44956e-05
-7.38927e-05
-1.09868e-05
5.76467e-06
-4.4451e-05
-3.02689e-05
-4.36376e-05
-2.2985e-05
-3.1944e-05
1.4799e-05
7.22692e-06
-5.57502e-06
1.3821e-05
7.44787e-06
-2.80641e-05
1.98458e-05
3.90571e-05
2.76153e-05
7.79969e-06
-7.15282e-06
3.66778e-05
1.37104e-05
2.55088e-05
3.00902e-06
-1.3163e-05
-5.5483e-05
-2.53835e-05
-5.39011e-05
-9.9933e-06
-4.45131e-05
-3.10237e-05
-4.58171e-05
-5.60013e-05
-4.58317e-05
-4.49333e-05
-8.78938e-06
-6.05495e-06
3.38601e-05
0.000104707
5.97662e-05
8.45946e-05
2.46484e-05
0.000161048
0.000250981
0.000378372
0.000582079
0.000917901
0.00150095
0.00245516
0.00385021
0.00601885
0.00963132
0.0153938
0.0245872
0.0391841
0.0626989
0.100147
0.160379
0.256176
0.409982
0.654895
1.0484
1.67512
2.68186
4.28525
6.86036
10.959
17.5341
27.976
44.6675
70.9976
112.661
177.099
276.048
419.888
620.768
849.35
1025.62
722.825
-701.939
-5843.45
-14808.8
-8.62953e-06
9.32237e-06
-3.69996e-05
-1.19431e-05
-1.71434e-05
-1.56969e-05
-2.6682e-05
5.02266e-06
8.68496e-06
-7.66695e-06
-1.2192e-05
1.75589e-05
4.69651e-05
5.89367e-06
-2.76589e-05
1.39837e-05
8.7152e-05
4.28925e-05
4.36713e-05
-2.84799e-05
1.78517e-05
3.90897e-06
5.49249e-05
5.53857e-05
2.66199e-05
-5.86521e-07
2.45263e-06
-3.03554e-05
8.43001e-06
-2.41151e-06
3.0868e-05
-8.06652e-06
5.54259e-05
4.04867e-05
-2.25028e-05
3.03257e-05
3.62045e-05
-7.58986e-07
-3.6444e-05
-4.77415e-05
-9.025e-05
-4.66315e-05
-4.04568e-05
-2.95461e-05
-5.25807e-05
-5.623e-05
-4.18769e-05
-1.05899e-05
5.26904e-05
2.03564e-05
-5.11555e-05
-8.26183e-05
-3.92425e-05
-4.87597e-05
-4.81546e-05
-4.17204e-07
-9.38886e-06
3.74938e-06
3.16647e-07
2.22797e-05
9.0401e-06
-2.92542e-06
-1.7316e-06
2.82429e-05
-3.50731e-05
6.93968e-06
3.93043e-05
3.04042e-05
3.20927e-05
1.07916e-05
-9.20717e-06
6.44025e-05
9.30179e-05
6.64043e-05
7.20654e-06
-2.45966e-05
4.29737e-05
4.03556e-05
2.03209e-05
1.84796e-05
-8.5478e-06
7.10281e-06
1.58603e-05
4.41054e-05
3.25388e-05
4.39549e-05
1.91108e-05
3.38648e-05
-2.44308e-05
-6.09257e-06
-4.03545e-05
-2.54598e-05
4.8833e-05
4.25282e-05
7.87849e-06
1.94214e-05
-2.12363e-05
-2.4193e-05
-2.438e-05
2.2061e-05
2.41998e-05
1.11436e-05
3.06898e-05
4.58272e-05
0.000122653
4.27875e-05
7.9803e-05
4.3562e-05
6.07864e-05
1.39677e-05
2.57025e-05
4.15221e-05
4.22255e-05
3.39468e-05
-1.90385e-05
-1.06815e-05
1.50092e-05
-4.77543e-05
-2.09601e-05
-1.94195e-05
-2.1252e-06
-2.54986e-05
-7.07884e-06
-1.57055e-05
-1.18723e-06
-6.12407e-05
-1.02029e-06
-4.32252e-05
-3.94973e-06
-1.36846e-05
-7.89249e-05
-5.59946e-05
-3.0751e-05
-2.20441e-05
-7.33625e-05
-3.09278e-06
-5.68228e-05
-7.03525e-05
-7.77581e-05
-0.000102374
-9.54871e-05
-6.93916e-05
-4.26902e-05
7.89094e-06
-2.64077e-05
-4.39285e-05
-7.35633e-06
-3.06117e-05
3.67381e-05
1.07873e-05
-1.14292e-05
1.75889e-05
2.73262e-05
2.84858e-05
-4.72409e-07
6.7382e-06
-1.03944e-05
1.64147e-05
2.17609e-05
4.00076e-05
-3.01209e-07
1.92572e-05
-4.36877e-05
-1.13371e-06
7.67291e-06
-5.19955e-05
-4.75801e-05
-0.000118443
-8.81777e-05
-6.48013e-05
-1.32408e-05
-4.13293e-05
2.11087e-05
6.9681e-05
3.82715e-05
7.40933e-05
3.94893e-05
5.98738e-05
4.736e-05
1.71331e-05
5.59019e-05
2.42507e-05
4.27105e-05
3.44065e-05
3.19162e-05
3.7885e-05
7.58615e-06
2.59368e-05
1.65508e-06
1.34639e-05
-1.29612e-06
3.04734e-05
3.61547e-05
-1.23024e-06
3.5037e-06
3.76499e-05
1.49851e-05
-3.38703e-06
1.42355e-05
6.49266e-05
5.01929e-05
-3.56005e-06
-5.0589e-05
-3.85919e-05
-1.50004e-05
1.96147e-05
-1.72137e-05
-7.7231e-05
-1.31365e-05
-1.42139e-05
4.76238e-06
3.8795e-05
2.90466e-05
3.96714e-05
3.28476e-05
1.14023e-05
2.99844e-05
-2.71651e-05
1.11753e-05
-3.07551e-05
1.4235e-05
1.85536e-05
3.34316e-05
2.10015e-05
4.45707e-05
8.27004e-05
5.15798e-05
1.6671e-05
-7.70985e-07
-5.11032e-06
-2.5055e-05
-4.06814e-05
-1.99429e-05
1.17612e-07
-2.84443e-05
-5.32667e-06
4.40336e-06
-2.2711e-06
-2.94033e-06
-1.79366e-05
-5.06871e-05
1.29887e-05
-3.70996e-05
-2.90181e-05
-8.31801e-07
-2.82198e-06
3.48074e-05
2.42961e-05
2.06761e-05
-2.15999e-05
-7.33831e-05
1.40129e-05
4.06518e-06
-5.93399e-05
1.05458e-06
2.8104e-05
-1.25047e-05
-1.86397e-05
-1.91133e-05
5.93395e-05
0.000126931
0.000209237
0.000368178
0.000566133
0.000894808
0.00131873
0.00217189
0.00347525
0.00557532
0.00898135
0.0142792
0.0228683
0.0363877
0.0581295
0.0928227
0.148283
0.236587
0.378052
0.603133
0.964064
1.53813
2.45892
3.92317
6.271
10.0028
15.9812
25.4682
40.6289
64.573
102.589
161.838
254.242
392.705
598.667
870.941
1210.86
1380.54
1204.4
-1095.06
-4293.85
-7.18769e-07
-1.67748e-05
-3.04044e-05
-8.82756e-06
-1.02662e-05
-1.59625e-05
2.79267e-05
3.18981e-06
-5.96513e-07
1.67519e-05
-2.0503e-06
2.90441e-05
4.40802e-05
8.04457e-06
3.87316e-05
3.26053e-05
2.45669e-05
3.68622e-05
2.40594e-06
2.56198e-05
-7.10514e-06
1.87003e-05
4.58679e-05
6.39703e-05
8.55343e-06
4.35276e-05
6.62216e-05
4.63768e-05
-2.44574e-05
-6.20439e-05
-7.0463e-05
-3.80081e-05
-4.3681e-05
-1.25532e-06
-1.16871e-05
-2.12882e-06
1.97932e-05
4.60804e-05
1.28977e-05
9.43939e-06
-2.2821e-05
2.10884e-05
-5.07469e-06
-9.6268e-06
-2.56714e-05
1.17286e-05
-1.74374e-05
8.70578e-06
-1.50783e-05
-3.22743e-05
-1.47289e-05
-2.4811e-05
3.07801e-06
4.80893e-06
1.19561e-05
1.38966e-05
1.96248e-05
1.16884e-05
2.54702e-05
-7.78214e-07
-5.33677e-05
-6.60388e-05
1.2559e-06
-5.66425e-05
-4.32177e-05
-3.76214e-05
-4.9723e-06
-4.48271e-06
8.65981e-06
-5.45566e-07
-4.03174e-06
-2.03354e-05
-2.50144e-05
-3.56361e-05
6.37051e-06
1.70912e-05
2.7817e-05
3.97739e-05
2.96513e-05
3.00375e-05
-2.88682e-06
3.2262e-06
2.91708e-05
7.40864e-05
5.15982e-05
2.13552e-05
-3.43062e-05
2.07057e-05
3.73471e-05
3.62527e-05
-3.26421e-05
6.84037e-06
-2.00846e-05
-2.54995e-05
-4.00182e-05
-5.108e-05
-4.80392e-05
-6.04911e-05
4.028e-06
4.01049e-06
-4.90521e-05
-8.37951e-05
1.22918e-06
-1.66767e-06
-1.76872e-05
1.09074e-05
6.21149e-06
-4.19617e-05
1.93782e-05
5.94545e-05
3.97289e-05
4.16491e-05
2.19817e-05
1.86266e-05
-1.64357e-05
1.45424e-05
1.41634e-05
-3.96581e-06
4.57168e-05
4.96517e-05
1.03647e-05
1.2464e-05
2.55575e-05
6.91783e-05
6.32223e-05
-7.74694e-06
4.88523e-05
-2.71265e-05
-2.83038e-05
-3.05606e-05
-1.44353e-05
-3.3225e-05
-4.97382e-05
-2.97021e-05
-2.19069e-05
-4.4686e-05
-1.82769e-05
3.49121e-06
-2.21968e-05
-9.6075e-06
-5.06421e-07
9.47627e-07
3.29837e-05
2.16005e-06
-3.13829e-05
-8.71185e-05
-6.25136e-05
-1.67591e-05
-4.68513e-05
-1.38074e-05
-3.06124e-05
-3.50977e-05
-1.53675e-05
-2.07061e-05
-3.7174e-05
-2.47494e-05
2.45277e-06
-1.11315e-05
1.12814e-05
-1.62757e-05
-5.90091e-07
-4.23813e-06
1.29301e-05
-5.34785e-06
3.09038e-06
-9.96863e-05
-7.84547e-05
9.79004e-08
-1.45427e-05
-2.90033e-05
-3.6187e-05
-4.11622e-05
-6.15825e-06
1.18517e-05
-2.17003e-05
1.06105e-05
-1.77969e-05
-8.13906e-05
-4.00256e-05
-3.0311e-05
-4.35809e-05
-1.10086e-05
-2.11461e-05
-2.63443e-05
7.86937e-06
-5.39872e-05
-8.65176e-05
-9.53485e-05
-7.69742e-05
-3.76887e-05
-4.77177e-05
-1.65926e-05
-1.29734e-06
-1.40103e-05
6.55872e-06
1.39286e-05
-4.88968e-06
6.1121e-06
-4.90685e-05
-3.52691e-05
-5.64891e-06
3.63567e-05
1.01836e-05
1.22968e-05
2.16533e-06
1.13943e-05
-1.07527e-05
3.19926e-05
1.34769e-05
1.62829e-05
-1.95611e-05
-4.61935e-05
-1.66407e-05
7.73252e-06
1.86462e-05
7.04489e-05
4.05704e-05
1.65921e-05
-1.4288e-05
7.49068e-05
8.6496e-05
5.30103e-05
7.42766e-05
9.58265e-05
2.84558e-05
4.13683e-05
1.56952e-05
-2.79906e-05
-6.05713e-06
1.2613e-05
-1.6724e-05
2.57192e-05
4.53905e-06
-2.37329e-05
-7.76245e-06
-2.82661e-05
-4.66579e-05
-6.61855e-05
-6.31091e-05
-8.72393e-05
-7.69726e-05
2.93916e-06
-7.00175e-05
-2.33249e-05
1.88247e-06
-2.79465e-05
-2.88601e-05
-7.80214e-06
1.14838e-05
2.23772e-05
3.64307e-05
2.20582e-07
6.80445e-05
6.42316e-05
4.632e-05
3.46566e-05
2.51691e-05
3.20003e-05
0.000110698
7.19976e-05
0.000158856
0.00019604
0.000342189
0.000510489
0.000769599
0.00123124
0.0019797
0.0032094
0.00505682
0.00806098
0.0128542
0.02049
0.0326006
0.0519881
0.0829447
0.132273
0.210638
0.336008
0.53506
0.85367
1.35945
2.1689
3.45369
5.50925
8.77022
13.984
22.245
35.4304
56.2532
89.3562
141.173
222.712
347.124
538.558
810.302
1202.28
1594.92
2052.81
1437.86
1630.41
-1.95684e-05
-5.1348e-06
-1.53912e-05
-2.7815e-05
1.16488e-05
1.12916e-05
1.11823e-06
6.59284e-05
2.75007e-05
1.50053e-06
3.58705e-06
-3.84535e-05
-6.40518e-06
-1.8177e-05
-3.05716e-05
-7.48257e-05
-4.47194e-05
-1.25462e-05
-1.01017e-05
9.31609e-07
-2.40344e-05
-6.43336e-05
-0.00010738
-0.000113927
-0.000136166
-9.50085e-05
-8.72693e-05
-2.5023e-05
-3.66971e-05
-4.27955e-05
2.48149e-05
9.7086e-06
-7.48209e-06
-2.9793e-05
-1.02928e-05
-6.15994e-05
-5.75131e-05
-7.83201e-05
7.61652e-06
8.06049e-05
4.29183e-05
-4.2451e-05
1.63578e-05
5.1484e-05
2.31702e-06
2.9176e-05
1.62976e-05
4.8417e-05
6.29428e-05
6.51641e-05
7.46069e-05
6.09899e-05
0.000103804
0.000163198
5.45619e-05
8.29907e-06
-9.92364e-06
2.05852e-05
5.61821e-05
5.98788e-05
9.13264e-05
7.91729e-05
9.15981e-05
5.48234e-05
0.000133416
5.38813e-05
-4.50515e-05
-1.44183e-05
-2.34005e-05
-4.29031e-05
-5.98536e-05
-4.11027e-05
-3.01316e-05
-2.74986e-05
-6.28175e-05
-7.32971e-05
-6.17461e-05
-6.88712e-05
-7.30021e-05
-2.36237e-05
-7.23164e-05
-3.86943e-05
1.1626e-05
1.15684e-05
1.37988e-05
7.10069e-05
0.000118752
6.91842e-05
2.6675e-05
-3.11005e-06
-1.56123e-05
3.17695e-05
1.42551e-05
3.26176e-05
1.42806e-05
-1.56197e-05
1.21534e-05
1.28193e-05
3.44478e-05
7.65559e-05
5.16861e-05
5.43093e-05
3.68523e-05
-4.32498e-05
-2.53117e-05
1.02748e-05
1.41816e-05
2.68934e-05
6.52259e-05
-9.85844e-06
1.03441e-05
1.65199e-05
2.76342e-05
2.03438e-05
-3.95806e-05
-1.46648e-05
-1.79677e-05
-3.15781e-05
1.24615e-05
-4.28369e-05
-5.47885e-05
4.98275e-06
2.27815e-05
3.38027e-05
3.95776e-05
2.3997e-05
4.47674e-05
-2.08509e-06
1.21114e-05
8.62454e-06
-2.70825e-05
5.2795e-05
4.90303e-05
4.87059e-05
-1.04771e-05
5.13184e-05
-4.21353e-06
-1.79804e-05
7.1303e-06
-2.65994e-05
-1.81797e-05
1.21414e-05
-1.81208e-05
2.74219e-05
-5.79168e-06
1.91138e-05
-1.78452e-05
2.36113e-06
-7.51909e-06
-4.63953e-05
-6.16278e-05
2.26155e-05
7.98046e-05
0.000114049
6.51852e-05
5.58922e-05
3.02511e-05
4.7265e-05
-1.2076e-06
1.87476e-05
8.51439e-06
3.97527e-07
-4.75994e-05
3.05991e-05
5.80811e-05
4.85197e-05
-4.79911e-05
-3.75759e-05
-6.6158e-05
-5.82783e-05
-7.35272e-05
3.69937e-06
-3.35261e-05
-5.43832e-06
-3.51917e-05
-1.61519e-05
-2.86675e-05
-3.45968e-05
-5.96147e-06
3.98474e-05
4.22616e-05
4.26566e-05
4.59247e-05
6.86479e-05
4.40307e-06
1.42712e-05
1.76226e-07
-9.25769e-06
-1.42343e-05
-2.22018e-05
-7.68428e-05
-1.98924e-05
2.67743e-05
-1.36246e-06
8.45089e-06
-3.15443e-05
-8.45119e-06
6.09989e-06
-1.26784e-05
1.29945e-05
4.82971e-05
5.95596e-06
8.24665e-06
5.73531e-06
-2.23351e-05
1.21908e-05
-4.074e-05
-3.28826e-05
-1.92787e-05
-6.44928e-06
2.09254e-05
6.92793e-06
-2.46957e-05
1.87704e-05
-2.01913e-05
-1.47292e-05
4.27867e-05
3.08225e-05
3.55643e-05
1.46206e-05
-4.41255e-06
2.27851e-05
4.57496e-05
4.38499e-05
2.27439e-05
-4.28846e-05
-1.01865e-05
-1.79197e-05
1.6956e-05
1.48798e-06
6.55703e-06
1.22003e-05
-7.30134e-06
-4.77269e-05
-3.46347e-05
2.50361e-05
-1.8398e-05
-2.42705e-05
4.06548e-05
1.44776e-05
5.09711e-06
-3.12524e-05
4.24812e-07
-1.3888e-05
-3.62173e-05
1.23895e-05
-2.14307e-05
-3.40843e-05
-3.19992e-05
4.57572e-06
-2.36495e-05
4.68882e-06
-4.14819e-05
3.12194e-05
-9.76807e-06
-1.75068e-05
1.76429e-05
4.05605e-06
6.31787e-05
-3.932e-06
7.60457e-05
0.0001969
0.000272691
0.000409917
0.000693698
0.00109134
0.00170219
0.00279092
0.0044289
0.00704467
0.0112263
0.0178017
0.0283138
0.0451904
0.0717431
0.1143
0.181646
0.289254
0.459705
0.731873
1.16317
1.85154
2.94167
4.68158
7.43602
11.8293
18.7768
29.845
47.3063
75.0564
118.565
187.318
293.204
458.958
702.474
1075.56
1520.53
2200.36
2387.38
4161.51
4.83228e-06
6.30438e-06
9.79268e-06
2.80406e-05
1.7913e-05
-1.19181e-05
2.59835e-05
2.0524e-05
2.70702e-06
-1.00611e-05
-3.3764e-05
1.1247e-06
-5.20866e-05
1.37695e-05
-4.64949e-05
-2.13489e-05
-1.87721e-05
-6.14158e-05
-2.77843e-05
-6.75913e-05
-6.96435e-05
7.13373e-05
3.9496e-06
1.57015e-05
2.73524e-05
2.79434e-05
-4.2245e-07
-2.02162e-05
-2.08637e-05
-3.83062e-05
-8.50126e-05
-4.31877e-05
-4.62974e-05
-1.91087e-05
-8.28275e-06
1.29633e-05
3.50118e-05
6.46948e-05
7.52917e-05
5.20782e-05
5.65235e-05
5.43425e-05
9.54617e-05
6.77946e-05
7.17771e-05
4.357e-05
2.09473e-05
1.21516e-05
-6.8055e-06
3.0185e-05
1.30001e-05
2.77813e-05
9.52889e-05
6.35688e-05
4.4943e-05
1.74009e-05
6.49401e-05
5.89531e-05
5.4417e-05
-3.10762e-05
-6.80313e-05
-1.15629e-05
1.50341e-05
7.52781e-06
-2.61183e-05
-9.00706e-06
1.40882e-05
4.08107e-06
5.40227e-05
6.2106e-05
5.22137e-05
7.1794e-05
3.27415e-05
3.35245e-05
4.25962e-06
-3.74762e-05
-4.28398e-05
-1.88448e-05
8.94772e-06
8.46713e-06
3.91388e-05
3.78228e-05
6.70028e-05
4.86468e-05
5.38478e-05
6.72967e-05
2.03857e-05
-1.82357e-06
-2.05126e-05
4.1017e-07
-4.32215e-05
-2.2963e-05
-1.47588e-05
-1.28658e-05
2.87599e-05
1.4222e-05
3.36679e-05
-1.85688e-05
-3.6265e-05
-1.25031e-05
1.34405e-05
1.25466e-05
2.67376e-05
1.45078e-05
4.76131e-06
-1.82575e-05
-4.61662e-06
-2.23743e-05
-4.8662e-05
-5.10809e-05
-1.83311e-05
1.40082e-05
-1.50059e-05
-7.62536e-06
1.61899e-05
-4.38472e-06
-2.07318e-05
-1.5441e-05
-2.4732e-05
3.06271e-06
-1.31281e-05
-1.09377e-05
1.25406e-05
-2.10367e-05
-3.20528e-05
-9.24563e-06
-1.2882e-06
-1.87268e-05
3.14363e-06
-4.76044e-05
-4.60801e-05
-7.07099e-06
1.47675e-05
-2.56166e-05
-6.9042e-06
-1.27762e-05
-1.21561e-05
2.32547e-05
7.53995e-05
8.00633e-05
6.37578e-05
-9.16749e-07
1.63642e-05
3.08962e-05
5.72873e-05
8.73668e-06
-1.05659e-06
4.08621e-06
3.96219e-05
2.80416e-06
-1.7187e-05
1.35268e-05
3.80553e-05
1.74857e-05
2.59166e-06
-8.93564e-06
3.21976e-05
1.72536e-05
5.30423e-05
1.15537e-05
6.24039e-05
5.42647e-05
8.81014e-05
-3.17507e-06
-1.62548e-06
5.63572e-05
5.5931e-05
1.67069e-05
6.41342e-05
6.91152e-06
1.87341e-05
8.42389e-05
6.50295e-05
2.44127e-05
-3.97509e-05
-4.91659e-05
-2.72065e-05
-5.18604e-05
3.5468e-05
2.12843e-06
-1.32482e-06
4.55446e-06
-3.13844e-05
-1.33224e-05
5.45682e-05
1.6918e-05
7.32543e-05
9.24358e-06
3.05928e-05
-3.01919e-05
-8.39186e-05
-4.77743e-05
-4.94616e-06
-2.73221e-05
1.11166e-05
-3.6464e-06
7.40273e-06
-2.26406e-05
-4.7579e-06
-7.71089e-07
-8.45587e-06
4.65279e-05
-3.22064e-06
-2.53885e-07
4.97487e-05
-2.26692e-06
1.49647e-05
1.80358e-05
3.28157e-05
-9.00774e-06
-7.26041e-06
5.14569e-07
8.4483e-07
-4.8486e-05
-6.38747e-05
-6.59098e-05
-8.17784e-06
-1.45937e-05
7.05025e-05
4.51155e-05
4.70461e-05
7.93335e-06
1.26841e-05
-3.55459e-05
-2.3307e-05
-8.98049e-06
-2.2947e-05
6.59029e-05
4.12503e-05
4.20414e-05
-1.00481e-05
-4.44796e-05
-3.68478e-05
1.6275e-05
-7.53847e-06
3.28526e-05
1.82447e-05
-2.55304e-05
-1.69027e-05
9.5586e-06
-1.7302e-06
1.28558e-05
2.71819e-05
1.53186e-05
3.66727e-05
3.86563e-05
3.31784e-05
4.06728e-06
-1.80137e-05
2.53956e-05
2.26113e-05
8.6341e-06
2.13008e-05
2.32464e-05
1.79252e-05
1.42453e-05
3.88786e-05
9.45128e-05
8.50994e-05
2.66292e-05
5.47424e-05
0.000147395
0.000250095
0.000325635
0.000583995
0.000925198
0.00145799
0.00236802
0.00379436
0.00601019
0.00959044
0.0151422
0.0240249
0.0381539
0.0605397
0.096256
0.152694
0.242597
0.384782
0.611244
0.969263
1.53963
2.44071
3.87573
6.14226
9.74944
15.4425
24.495
38.7561
61.3998
96.9127
153.133
240.141
377.612
583.308
908.139
1326.11
2023.36
2528.41
4817.34
-1.6185e-06
2.1992e-05
2.5198e-05
2.95574e-05
7.1851e-05
1.24596e-05
5.38225e-05
2.75645e-06
5.92818e-06
6.5175e-05
2.19539e-05
1.55814e-05
1.53086e-05
1.78165e-05
1.9358e-05
-5.68964e-06
2.04992e-05
1.91512e-05
1.23536e-05
-1.57138e-05
-4.4229e-05
-2.92774e-05
-1.41482e-05
1.50248e-05
1.58491e-05
1.06334e-05
3.86711e-05
6.52289e-05
3.55666e-05
1.56204e-05
5.46925e-06
-2.22027e-05
5.22811e-05
6.00081e-05
5.10161e-05
3.67333e-05
2.56285e-05
8.56117e-06
1.86832e-05
-1.29403e-05
-5.75013e-05
-1.04502e-06
-9.2813e-06
-1.25286e-05
-2.62204e-05
-8.23389e-06
2.65177e-05
2.82543e-05
-2.02977e-05
-6.61947e-05
-7.25237e-05
-1.43418e-05
-4.29912e-05
6.56756e-06
2.18407e-05
1.34728e-05
-4.30965e-06
9.38199e-06
2.4144e-05
1.07203e-05
5.385e-05
0.000120839
9.43973e-05
4.04215e-05
-2.52691e-05
4.07863e-06
6.54615e-05
-1.21445e-05
-1.50681e-05
-5.41043e-05
-5.83693e-05
-1.50544e-05
-5.93616e-06
2.06963e-05
-2.04347e-05
1.43431e-06
-2.02263e-05
-1.38208e-05
-2.53832e-05
-3.5312e-05
1.53231e-05
3.60379e-05
3.18173e-05
3.30031e-05
-6.11322e-05
2.65023e-05
2.32034e-05
4.75208e-05
-1.23469e-05
-7.5913e-06
1.79319e-05
-1.28277e-06
1.03701e-05
6.81412e-05
7.21169e-05
1.18466e-05
-3.72712e-05
-2.02197e-05
-9.52265e-06
-4.91739e-05
-1.07585e-05
-1.37269e-05
-4.67903e-06
1.43351e-05
-2.1789e-05
-1.41326e-05
-1.52815e-05
-3.37606e-05
3.33712e-05
8.21597e-06
3.26473e-05
-3.78333e-06
7.25585e-05
3.56423e-05
-3.15086e-06
-3.31416e-05
-4.28231e-06
-3.09907e-07
3.47201e-05
5.10846e-05
-1.69316e-05
9.72958e-06
1.59238e-06
5.56671e-05
5.39133e-05
5.77831e-05
3.01573e-05
3.29011e-05
-2.491e-05
3.58019e-05
4.65148e-05
2.98956e-05
3.49119e-06
4.33483e-05
4.05375e-05
5.05586e-05
5.9938e-05
1.25562e-05
2.989e-05
-1.36885e-05
-5.44365e-05
-7.10664e-05
-3.61521e-05
1.00439e-05
-4.51899e-05
-8.41496e-06
-3.42097e-05
-4.3449e-05
-4.6417e-05
-2.15885e-05
-6.44459e-06
3.39111e-06
-9.94483e-06
-1.29074e-05
-7.06203e-05
-2.01078e-05
4.83399e-05
4.73593e-05
2.65668e-05
2.23655e-05
1.98816e-06
-1.69875e-05
-2.70715e-05
-5.12034e-05
-2.61174e-05
-4.6969e-06
7.33622e-06
2.07539e-05
5.88441e-05
-1.58843e-05
6.41357e-05
-1.78829e-05
5.30962e-05
5.28625e-05
4.53266e-05
0.000115201
5.1526e-05
2.91617e-05
3.99081e-05
-4.70782e-05
-3.06518e-05
-3.13799e-05
-2.31075e-05
1.62028e-05
3.19252e-05
4.84012e-05
8.68033e-06
-1.69238e-06
-2.45002e-05
-8.92418e-06
-2.73449e-05
-4.55361e-05
-1.11393e-05
1.54339e-05
-1.22875e-05
-3.41371e-05
8.7047e-06
-2.90473e-06
1.73807e-06
-1.67021e-05
-4.12378e-05
-4.91146e-05
-9.76161e-06
1.15905e-05
-1.33331e-05
3.73837e-06
-1.89899e-05
5.11708e-05
2.83068e-05
8.6886e-06
-4.62271e-05
-1.66496e-05
-3.80777e-05
2.10998e-05
-1.6877e-05
4.12847e-05
4.14823e-05
4.18385e-05
2.13123e-05
5.76385e-05
5.22156e-05
3.20128e-05
5.72698e-05
1.13169e-05
2.33285e-05
5.38223e-06
2.84006e-05
4.607e-05
2.33593e-05
-1.90831e-05
-6.56068e-05
-9.46343e-05
-5.76119e-05
-1.56101e-05
1.74269e-05
6.56031e-05
-2.83208e-05
3.22521e-06
-5.55414e-06
-2.35249e-05
-2.09439e-05
-4.96565e-05
-1.17428e-05
-4.85962e-07
-6.38334e-06
8.09296e-06
-7.53525e-06
-6.10724e-06
-5.94981e-06
1.45568e-05
1.11934e-05
2.33204e-05
6.63416e-06
9.26755e-07
7.59661e-06
-1.36587e-05
9.63657e-06
2.17451e-05
2.68507e-05
7.71762e-05
5.44115e-05
0.000119142
0.000218841
0.000326654
0.00047035
0.000801389
0.00121406
0.00196634
0.003158
0.00500129
0.00791805
0.0125875
0.0199659
0.0316178
0.050036
0.0793556
0.1256
0.199202
0.315299
0.499913
0.791155
1.25403
1.98421
3.14434
4.9733
7.87816
12.4546
19.7187
31.1469
49.2721
77.6909
122.707
192.554
303.462
471.15
740.369
1100.66
1726.69
2305.5
4563.37
1.4522e-05
-4.5548e-06
2.83035e-06
-1.56413e-05
4.11132e-05
-2.33786e-05
-1.57822e-05
2.18153e-05
-3.16264e-06
-4.90029e-05
2.8123e-05
-2.64804e-05
-1.09589e-05
-1.63191e-05
-4.74657e-06
-3.61725e-05
-2.36499e-05
-3.59573e-05
3.72591e-05
5.20507e-05
6.1243e-05
1.75072e-05
3.46857e-05
6.29416e-06
-3.06935e-05
-6.06783e-06
-1.01599e-05
-5.2878e-05
-1.49169e-05
-1.98388e-06
-4.46212e-05
8.85165e-06
6.83452e-06
4.25253e-05
5.0678e-05
6.01827e-05
2.96921e-05
3.67893e-05
2.22985e-05
1.29538e-05
-1.39005e-05
-6.07317e-05
6.99056e-06
-1.5085e-05
-4.24222e-05
-5.47616e-05
-9.98298e-05
-7.8943e-05
-5.27787e-05
-6.17053e-05
2.41571e-06
-6.07379e-05
-8.41264e-05
-5.8823e-05
-7.3881e-05
-4.94015e-05
-8.3917e-05
-7.2458e-05
-5.8171e-05
-6.83331e-05
-2.21261e-05
-2.16657e-05
-9.01002e-06
-8.34209e-06
-1.10658e-05
3.14891e-05
-1.62822e-05
3.09314e-05
2.06459e-05
4.41137e-05
4.96034e-05
-7.03175e-06
-2.00994e-05
1.17797e-05
3.51729e-05
-9.5862e-06
-4.81883e-06
7.47149e-05
7.84937e-05
4.41391e-05
3.85556e-05
-3.87847e-06
-9.71765e-06
-3.97292e-05
-4.43427e-05
4.09677e-05
4.91178e-05
6.15629e-06
1.30259e-05
-3.3835e-05
-1.38244e-05
2.75491e-05
7.0896e-05
6.53916e-05
5.66175e-05
9.95073e-06
5.16669e-05
1.96569e-05
1.82962e-05
6.87447e-06
-1.50888e-05
-3.17398e-05
-2.37834e-05
-1.05639e-05
1.88139e-05
-4.26365e-05
-4.20765e-05
3.22076e-05
-3.79634e-06
1.75862e-05
-1.6778e-06
4.74541e-05
-4.02648e-06
-1.31771e-05
-1.8978e-05
9.34606e-06
5.72642e-06
2.75803e-05
-1.71661e-05
-3.67585e-05
-7.71737e-05
-4.57111e-05
-1.24762e-05
4.51529e-06
-2.15155e-06
-7.36068e-06
-7.32602e-05
-9.68712e-05
-4.36603e-05
-2.91132e-05
-3.36432e-05
1.23832e-05
1.70597e-05
-3.39438e-06
-2.494e-05
-2.34765e-05
-3.53728e-05
-4.07248e-05
-6.25228e-05
-3.60433e-05
-4.96774e-05
-3.39277e-05
-9.19369e-05
-4.43754e-05
-2.37854e-05
-1.86136e-05
-9.59307e-06
-8.92175e-06
3.56762e-05
4.79369e-05
1.49896e-05
-1.83983e-05
-5.11061e-05
-7.36618e-05
-3.9552e-05
-5.71007e-05
-1.16502e-06
-4.28224e-06
-1.65969e-05
-6.3913e-06
-5.27998e-05
-6.42837e-05
4.73968e-06
-2.22616e-05
-4.09177e-05
-1.97352e-06
-7.66546e-05
-4.82966e-06
-4.1125e-05
-4.00308e-05
-4.51659e-05
-5.8078e-05
-3.3086e-05
-1.80691e-05
-1.81194e-05
-4.10741e-05
-4.02925e-05
-7.61487e-05
-4.16641e-05
-4.48791e-05
-1.84515e-05
4.93713e-05
2.72781e-06
-3.1254e-05
2.62195e-05
1.7759e-05
5.40615e-05
3.67521e-05
1.10304e-05
-3.25826e-05
2.55531e-05
6.00663e-05
3.732e-05
2.56904e-05
-1.25308e-06
4.13582e-05
3.94076e-05
5.31698e-05
2.12585e-05
3.9408e-05
-1.88867e-05
4.54762e-05
-1.74233e-05
4.88459e-05
1.94513e-05
2.65623e-05
2.8535e-05
-1.5855e-05
5.37191e-06
5.85254e-05
2.6392e-05
5.5925e-05
4.61982e-05
5.34687e-05
-1.20632e-05
-2.31184e-06
-2.89684e-05
-2.02854e-05
-2.74774e-05
-5.47313e-05
-2.55158e-05
-8.72314e-05
-4.89517e-05
-3.97597e-05
-4.24435e-05
-3.0463e-05
1.2137e-05
3.19695e-06
8.94496e-06
-1.11992e-05
1.07177e-05
6.87087e-05
5.6793e-05
1.89664e-05
2.31827e-05
1.75218e-06
3.11668e-05
2.46577e-05
2.15933e-05
-7.71703e-06
-5.73938e-05
-2.02456e-05
2.54784e-05
7.07641e-06
9.62079e-06
3.20376e-05
4.88173e-05
-2.5427e-06
3.53416e-05
-1.23312e-05
2.00884e-05
-2.19513e-05
2.08562e-05
-5.47761e-05
-1.48776e-05
7.28414e-06
2.90383e-05
2.53427e-06
1.21233e-05
2.40332e-05
7.86869e-05
2.82709e-05
0.000156539
0.000228923
0.000362582
0.000630795
0.00104076
0.00168162
0.0025659
0.00404186
0.00654225
0.0102047
0.0161496
0.0255725
0.0405594
0.0642096
0.10148
0.160695
0.253947
0.401982
0.635098
1.00499
1.58737
2.51106
3.96494
6.26999
9.89594
15.6427
24.6724
38.9785
61.3975
96.9115
152.086
239.941
373.573
590.162
886.625
1412.94
1955.67
3948.38
-1.40213e-05
-1.40428e-05
2.91691e-05
-7.89233e-06
3.61872e-05
-8.08504e-06
1.81694e-05
8.16954e-06
-1.08596e-05
-1.83753e-05
-1.0824e-05
-6.23672e-06
-2.61929e-05
-5.84711e-06
-3.08027e-05
1.06268e-05
-2.48352e-05
-2.35938e-05
-2.30547e-05
5.35379e-05
1.84967e-05
3.74611e-05
4.70892e-05
-1.33556e-05
-8.34662e-06
-5.27256e-05
-8.30496e-05
-7.81218e-05
-6.49912e-05
-6.22048e-05
-3.75029e-05
-2.91046e-05
4.94149e-05