/*--------------------------------*- C++ -*----------------------------------*\
| =========                 |                                                 |
| \\      /  F ield         | OpenFOAM: The Open Source CFD Toolbox           |
|  \\    /   O peration     | Version:  2412                                  |
|   \\  /    A nd           | Website:  www.openfoam.com                      |
|    \\/     M anipulation  |                                                 |
\*---------------------------------------------------------------------------*/
FoamFile
{
    version     2.0;
    format      ascii;
    arch        "LSB;label=32;scalar=64";
    class       volScalarField;
    location    "0.0015";
    object      ddt0(rho,e);
}
// * * * * * * * * * * * * * * * * * * * * * * * * * * * * * * * * * * * * * //

dimensions      [1 -1 -3 0 0 0 0];

internalField   nonuniform List<scalar> 
180000
(
-1.20715e-06
3.04133e-05
-2.85296e-05
-2.04114e-05
2.83594e-05
2.17505e-05
-1.60307e-06
-4.77582e-05
-1.09014e-05
4.31211e-06
7.02859e-05
1.43342e-05
-9.5925e-06
-2.67773e-05
-5.97946e-05
-5.21609e-05
9.49883e-06
-1.60326e-05
-7.14676e-05
4.40172e-05
4.93051e-05
6.02662e-05
1.02983e-05
-2.94275e-05
5.95611e-05
1.49526e-05
-5.16978e-06
7.00825e-06
-2.45482e-05
3.14809e-05
2.41579e-05
-7.07622e-05
-8.59102e-06
3.78368e-05
-4.44121e-05
-6.9248e-05
4.57707e-06
-6.05782e-05
-6.97719e-05
-3.64992e-05
4.34708e-05
0.000110642
-1.10701e-05
-2.59173e-05
-1.96546e-06
-1.32947e-05
5.72579e-06
1.87031e-06
-2.81868e-06
4.01759e-05
9.95464e-06
-4.05258e-05
2.68412e-05
-5.9049e-05
2.05195e-05
-1.12694e-05
7.94879e-06
4.36273e-05
2.22986e-05
4.37202e-05
8.13965e-05
-3.334e-05
6.96914e-05
-2.13157e-05
-8.00785e-05
-5.41731e-05
-5.6565e-05
-1.47082e-05
6.31044e-05
-3.3397e-05
-7.51083e-05
3.38746e-05
-2.02497e-05
-6.23423e-06
7.10526e-05
4.58754e-05
1.46017e-05
1.19431e-05
4.31139e-05
1.13433e-05
2.26586e-05
-1.24981e-05
-6.73102e-05
1.14914e-05
-2.19407e-05
-2.85352e-05
4.44958e-05
4.18118e-05
3.4066e-05
-1.53084e-05
4.19535e-06
1.35855e-05
-6.13995e-05
9.34901e-05
7.85702e-05
-1.19492e-05
-3.95942e-05
-2.31061e-05
-3.69899e-05
5.69184e-05
6.29001e-05
-1.05967e-05
-3.51412e-05
-2.65882e-05
-5.21319e-05
-1.26799e-07
6.24353e-05
-0.000105401
-9.8529e-05
-3.77824e-05
2.10751e-05
0.00011427
0.000110346
2.05828e-05
-8.41084e-06
-1.562e-05
3.3831e-05
4.50761e-05
-1.07497e-05
1.28672e-05
2.69144e-05
9.42956e-06
-9.44188e-05
-9.67918e-05
-1.17558e-05
6.98443e-06
-3.84535e-05
1.41363e-06
6.0455e-05
8.91338e-05
3.48501e-05
-4.02042e-05
-4.07147e-05
-2.12853e-05
-3.45668e-05
-7.86963e-05
-2.07708e-05
1.28776e-06
8.81148e-05
8.23542e-05
-1.51491e-05
5.12765e-05
2.86481e-05
-2.60463e-05
-5.1388e-05
-8.78595e-05
-0.00013305
-0.000228049
-5.86553e-05
-2.12643e-05
5.25302e-06
9.31018e-05
0.000111449
8.04391e-05
0.000136269
3.7085e-05
-4.5771e-05
-1.01709e-07
2.5287e-05
-6.22094e-06
-2.71705e-05
-0.000126465
-0.000107231
4.74359e-05
4.26721e-05
1.11655e-06
7.50214e-05
2.07819e-05
-1.8972e-05
-3.07855e-05
-9.90638e-06
-1.65047e-05
4.12625e-05
-4.5926e-05
-0.000118579
2.04959e-05
6.91871e-05
8.04241e-06
1.53053e-05
-3.59053e-05
-0.000109032
-0.000103632
-4.17415e-05
-5.02751e-05
-2.29933e-05
-5.77533e-05
-3.25379e-05
1.01762e-05
1.2933e-05
6.30043e-05
4.20753e-05
8.54804e-06
-1.59664e-05
-0.000112758
-7.33453e-05
-3.6042e-05
-8.06691e-05
2.82803e-06
9.77065e-06
-4.43461e-05
-3.38245e-05
-1.25418e-05
1.35877e-06
1.89218e-05
-1.6486e-05
3.04379e-05
-6.38303e-06
4.29819e-05
7.50326e-05
-1.49377e-05
-7.81177e-05
-4.1564e-05
-4.73347e-05
1.12206e-05
9.9422e-05
6.35094e-05
7.49408e-05
2.51638e-05
4.21453e-06
-4.34185e-05
-3.25431e-05
-8.15793e-06
-8.13021e-05
-0.000108721
-2.98464e-05
2.97349e-05
5.59253e-05
-6.98653e-06
1.96714e-05
-2.81391e-05
-0.000119768
-5.58616e-05
-0.00012361
-0.000105559
1.29675e-05
1.47657e-05
-6.34823e-05
-1.21883e-05
-3.46889e-05
1.33632e-05
3.3665e-05
-1.54435e-05
-4.01294e-05
-1.22146e-06
4.10193e-05
7.57213e-05
0.000152544
7.71565e-05
9.10305e-05
0.000258865
0.000460175
0.000739707
0.00116824
0.00151057
0.00227594
0.00363457
0.00575984
0.00899384
0.0139519
0.021628
0.0339403
0.052834
0.0817656
0.12729
0.198991
0.309103
0.47917
0.746128
1.1638
1.806
2.80382
4.36602
6.80321
10.5665
16.4351
25.6057
39.9133
62.1085
96.8034
150.996
235.708
367.667
574.399
897.696
1404.54
2197.21
3442.82
5396.94
8475.11
13318.4
20988.1
33138.8
52595.1
83829
135130
219352
364464
603527
1.03508e+06
1.62162e+06
-7.72891e-06
3.38993e-05
3.14898e-05
2.65316e-05
4.49002e-06
-1.47308e-05
-3.6088e-05
-4.21011e-05
-4.97042e-05
3.80092e-05
4.14077e-05
-4.84058e-05
-4.02829e-05
-2.04277e-05
-7.51376e-06
3.90291e-05
0.000116255
5.84576e-05
7.46607e-06
2.07683e-05
-4.45779e-05
-1.82816e-05
1.20608e-05
-1.38742e-05
-2.81487e-05
-5.19281e-05
-2.33078e-05
3.23296e-06
1.38979e-05
4.15232e-06
4.31549e-05
9.72286e-06
8.40586e-05
0.000122081
9.5695e-05
-0.000119177
-0.000125735
-3.56979e-05
5.82589e-05
-1.9916e-05
5.27495e-06
6.66763e-05
7.85053e-05
6.28494e-05
-6.87766e-05
-0.000167615
-0.00011994
4.39496e-05
2.8801e-06
5.48613e-06
4.66041e-05
0.000107599
9.46146e-05
1.6076e-06
-7.14803e-05
-6.94973e-05
-9.59657e-05
-6.97406e-05
2.26162e-05
1.24951e-05
6.9015e-06
1.20757e-05
-9.36486e-06
7.00879e-05
3.33114e-05
-3.01268e-05
2.67085e-05
5.42185e-06
-4.16669e-07
-7.08303e-06
-0.000108808
-7.13999e-05
4.1028e-05
8.40359e-05
6.34128e-05
6.48444e-06
-6.08452e-05
-9.52037e-06
-2.59679e-05
-1.68191e-05
-1.76347e-05
-4.39676e-05
2.62206e-05
7.02567e-05
-2.74799e-05
-6.9163e-05
-7.85318e-06
6.36193e-05
4.02724e-05
1.24469e-05
-8.03302e-05
-2.06958e-05
-6.19631e-05
-8.82555e-05
-6.55945e-06
-3.51293e-05
-2.9029e-05
-5.41811e-05
-1.35057e-05
7.5994e-06
6.07186e-05
2.18662e-05
3.88593e-05
7.90439e-05
8.47971e-05
1.65339e-05
6.76779e-05
-3.63109e-05
-2.52616e-05
5.41008e-05
7.61826e-07
1.25993e-05
5.7524e-05
2.85364e-05
-7.99839e-05
-1.53291e-05
-1.10787e-05
-6.6392e-05
3.95855e-05
0.000135126
7.27453e-05
-4.29568e-05
-2.23165e-05
-6.43571e-05
4.25268e-05
1.32371e-05
4.26517e-05
8.82816e-05
2.27679e-05
-5.10796e-05
-2.86087e-05
-8.42194e-05
-4.23704e-05
4.85213e-05
6.44346e-05
9.41234e-05
7.60967e-05
-2.77438e-05
3.66045e-05
-1.29667e-05
6.59133e-06
-4.45383e-05
-2.04985e-05
3.27985e-05
-4.33009e-06
-6.79179e-06
1.55053e-06
3.15407e-05
-3.70577e-05
-1.35383e-05
2.93674e-05
5.70602e-05
1.3586e-06
-4.03237e-05
4.97253e-05
-4.34427e-05
-7.76739e-05
9.00232e-05
-1.25046e-05
-1.56385e-05
1.40569e-05
1.89363e-05
6.49738e-05
5.79719e-05
0.000140207
1.52613e-05
-9.05492e-05
-7.45155e-05
-3.25559e-05
3.5558e-05
-7.12368e-06
-2.48529e-05
3.73132e-05
-3.38609e-05
-2.47732e-05
2.18971e-05
-2.17224e-05
-2.04235e-06
-3.04731e-05
2.44161e-05
3.17009e-05
4.02755e-05
-4.29568e-05
-2.19801e-05
8.48534e-05
-5.31716e-05
-4.21985e-05
-1.6213e-05
-2.04815e-05
-2.92726e-05
-5.16237e-05
-3.47464e-05
1.53399e-05
-2.48611e-05
3.79415e-07
4.9935e-05
-1.05195e-05
-1.54903e-05
-8.65385e-06
1.70831e-05
-2.47697e-05
5.20946e-06
0.000100296
0.00018066
0.000125749
-3.98461e-05
-1.1259e-05
-7.67813e-05
1.86395e-06
3.23456e-05
-8.78575e-05
-0.000133307
-3.84192e-05
-5.37562e-05
1.91349e-05
8.66491e-05
4.83091e-05
3.80204e-06
3.97137e-05
-9.13306e-06
-1.14525e-05
-1.1232e-05
7.50869e-05
-1.31704e-05
-5.30197e-05
-1.5812e-05
6.52844e-06
2.54576e-05
6.65132e-06
2.72082e-05
2.95353e-05
-1.8013e-05
8.68873e-05
8.02507e-05
6.0225e-05
1.85616e-05
-4.55096e-05
-0.000136564
-0.000153429
1.32777e-05
7.41731e-05
-2.20653e-05
6.68471e-05
4.40621e-05
6.12298e-05
8.75249e-05
-4.30459e-06
6.32236e-05
0.000106215
0.000272819
0.000394427
0.00055211
0.000918523
0.00141649
0.00219141
0.003627
0.00558142
0.00857628
0.0134639
0.0209084
0.032401
0.0504375
0.078551
0.121858
0.189438
0.294726
0.458846
0.712106
1.10591
1.71921
2.67326
4.14895
6.44742
10.0234
15.5895
24.2174
37.6712
58.6047
91.2338
141.932
221.086
344.362
536.87
836.669
1305.49
2036.84
3181.5
4968.92
7771.72
12158.8
19059.3
29903.5
47079.9
74299.9
118096
188464
305298
493426
820606
1.28422e+06
4.95951e-05
-3.9745e-06
-3.79651e-05
-8.06717e-06
3.96453e-05
-2.35725e-06
1.03707e-06
3.03195e-05
-2.97634e-05
-2.70141e-05
1.57324e-06
-2.41733e-05
-4.60904e-06
4.68224e-05
-6.0582e-05
-7.88718e-05
3.04972e-05
4.05698e-05
1.40254e-05
-1.47718e-06
5.58305e-05
3.85173e-05
-2.74149e-05
5.4539e-06
6.27783e-06
4.44204e-05
-4.02395e-05
-1.45162e-06
3.53233e-06
-1.87311e-05
2.09215e-05
2.89974e-05
9.15632e-05
3.3276e-05
-6.84211e-05
-5.54323e-06
8.97812e-05
-2.07109e-05
-8.39319e-05
-6.85983e-05
6.39546e-05
-3.03092e-06
9.85546e-06
4.20037e-05
-9.09804e-05
-7.81569e-05
-6.76791e-05
-5.00559e-06
-2.36143e-05
4.81267e-05
-4.8705e-07
-5.03819e-05
-8.01965e-06
3.72293e-05
-9.36852e-06
-2.33966e-05
-1.53448e-05
2.86376e-05
1.16559e-06
1.45316e-05
-4.65604e-05
-5.25191e-05
-1.02264e-05
4.37521e-05
-1.47321e-05
-4.11341e-05
-8.01786e-05
3.30907e-05
0.000100062
5.64353e-05
6.7117e-05
6.09145e-05
-6.34157e-05
-5.71449e-05
2.19096e-05
-1.19396e-05
-3.70162e-05
-3.50634e-05
7.23046e-05
-8.26733e-06
-7.38991e-05
-0.000132872
-6.43363e-06
6.65e-05
7.16395e-05
0.000101239
7.25644e-05
9.0191e-05
7.86131e-06
-1.96884e-05
2.32184e-05
-0.000151868
-7.63228e-05
-7.97179e-05
-0.000101399
-0.000120797
-8.66192e-05
8.08008e-06
6.74452e-05
5.09968e-05
3.53907e-05
0.000102402
5.04638e-05
2.18888e-05
4.43699e-05
6.05566e-05
4.37956e-05
8.76199e-06
-2.87531e-05
-1.3178e-05
8.66678e-06
2.25428e-05
4.66342e-05
7.37716e-05
7.05296e-05
0.000129571
5.79952e-05
1.56324e-05
-5.76488e-05
4.86534e-05
5.47002e-05
6.6243e-05
-6.56254e-05
-0.000141481
-0.000103326
-2.05423e-05
-1.24779e-05
-6.20873e-05
-4.36595e-05
-2.30597e-05
3.65372e-05
6.01151e-05
-1.93253e-06
5.63679e-05
-2.3047e-05
-2.12301e-05
0.000133176
0.000132475
7.12645e-05
6.12059e-05
-2.67348e-05
-2.72068e-05
6.48265e-06
-1.65889e-05
-4.14532e-05
-5.54129e-05
-1.75748e-05
-6.84672e-05
-1.9961e-05
-1.1493e-05
1.5784e-05
2.45961e-05
-1.57664e-05
-5.18973e-05
-4.31105e-05
-6.5045e-05
-3.18652e-05
2.31753e-05
5.72297e-06
2.64694e-05
9.15512e-05
6.57292e-06
4.0256e-05
5.43251e-05
3.14388e-05
4.31867e-05
4.66703e-05
2.37542e-05
-3.85924e-05
-2.04075e-05
-6.58423e-06
-5.19922e-07
-1.55236e-05
-5.81059e-05
-0.000106428
-1.02723e-05
-7.70147e-07
-1.1614e-05
2.49407e-05
-4.83266e-05
-7.54498e-05
-4.97877e-05
9.37788e-05
4.38752e-05
-0.000106319
8.59962e-07
-6.00868e-07
-7.91733e-05
-4.06059e-05
-0.000108794
-8.28913e-05
-6.36738e-05
-3.60572e-05
6.21822e-05
2.93495e-05
2.0899e-05
0.000102719
9.50653e-05
3.45587e-05
4.50933e-05
-4.10448e-06
6.84656e-06
-2.14809e-05
-3.90988e-05
2.70651e-05
2.42732e-05
-1.51635e-05
0.000122898
6.70938e-05
6.35698e-05
-4.51087e-06
0.000112543
1.34362e-05
-8.29472e-05
-7.04613e-05
-7.60143e-05
-4.91214e-05
-3.57982e-05
2.64016e-05
-2.25745e-05
-2.8177e-05
-3.5037e-05
5.13443e-05
0.000112261
0.000100198
5.52493e-05
8.82773e-05
4.63751e-05
2.55534e-05
4.57311e-05
-1.24777e-05
-4.59483e-05
7.5139e-07
4.18081e-06
-1.08795e-06
-1.32361e-05
1.51732e-06
-2.47361e-06
-5.44707e-06
-4.95102e-05
-8.17103e-05
-2.48927e-05
2.89315e-05
6.02556e-05
-1.44077e-05
2.63063e-05
4.30166e-05
8.17108e-05
0.000103767
0.000223458
0.000405382
0.000554284
0.000839227
0.00136174
0.00213328
0.00326731
0.00504804
0.00790931
0.0122537
0.0190062
0.0297006
0.0461925
0.0719188
0.111741
0.173663
0.269506
0.418462
0.649346
1.0083
1.56387
2.42698
3.7647
5.8436
9.06261
14.0665
21.8234
33.8844
52.5769
81.655
126.765
196.966
305.891
475.498
738.875
1149.2
1786.67
2780.49
4325.87
6737.55
10492.1
16363.1
25524.9
39917.4
62477.3
98328.9
154860
247278
391750
644474
993155
1.75638e-05
-4.17308e-06
-2.07064e-05
-2.78827e-06
1.12704e-05
5.7532e-06
1.14181e-05
-3.86742e-05
-5.05551e-05
3.35018e-05
1.68367e-05
3.13361e-05
-1.80274e-05
-5.39129e-05
1.94504e-05
-1.46179e-05
-3.10182e-05
8.58245e-05
1.16605e-05
1.54469e-05
2.23062e-05
3.53239e-05
-3.29435e-06
-2.66996e-05
-5.7441e-06
6.30666e-05
6.38401e-05
-4.20377e-06
-7.34827e-05
-0.000110193
-7.31637e-05
-4.25473e-05
1.12876e-05
-2.60167e-05
1.87732e-05
7.95766e-05
3.13107e-05
3.73694e-05
-4.012e-05
-0.000106106
-5.32426e-05
-3.85486e-05
5.2145e-05
9.25189e-05
0.000136658
0.00011573
5.69341e-05
5.7187e-05
-6.74096e-05
-1.52685e-05
5.59763e-05
-6.55784e-05
-5.47691e-05
-1.45101e-05
-8.88577e-05
1.30495e-05
1.07177e-06
0.000156288
0.000108625
0.000136709
7.17145e-05
-9.16889e-05
-0.000122485
-9.53566e-05
-0.000138172
-0.000137302
-1.82625e-05
1.46641e-05
-3.97895e-05
2.86733e-05
4.10983e-05
2.83743e-05
-1.42766e-05
-5.8543e-05
-6.34518e-05
6.52047e-05
0.000161634
8.23696e-05
6.03961e-05
7.84965e-05
4.35692e-05
-2.40219e-05
-7.33015e-05
-9.6964e-05
-8.3642e-05
-7.02333e-05
-3.65929e-05
-2.16962e-05
-3.82762e-05
-9.90169e-05
4.28748e-05
9.1879e-05
2.62686e-05
2.73089e-05
-5.04668e-05
2.24242e-05
1.66756e-05
9.99388e-06
-3.77249e-05
-5.09966e-05
5.20954e-05
6.38531e-07
1.23967e-05
3.56246e-05
2.33184e-06
-0.000126912
-5.13902e-05
3.00102e-06
4.0338e-05
6.11212e-05
4.73038e-05
3.40381e-05
3.35666e-05
1.92004e-05
2.15512e-05
4.12769e-06
-2.468e-05
-2.81817e-05
1.57734e-05
1.10186e-05
-1.64082e-06
-2.155e-05
-8.79167e-05
-2.78465e-05
4.34016e-05
5.91122e-05
1.94123e-05
-1.2796e-05
-3.55452e-05
3.43465e-06
-5.08527e-06
1.18125e-05
2.1351e-06
4.08462e-05
3.84609e-05
3.61068e-05
0.000115518
0.000177374
7.72065e-05
5.08583e-05
5.51745e-05
-2.16036e-05
-8.21389e-06
-6.29943e-05
1.1626e-05
-2.64735e-05
-8.94509e-05
-0.000129706
-7.65005e-05
-6.56743e-05
8.47509e-06
1.99731e-05
-6.84589e-05
-2.79691e-05
1.44041e-05
-1.20966e-05
4.00775e-05
7.44463e-05
-2.70461e-05
6.01838e-05
-1.83729e-05
1.77774e-05
-0.000112912
-0.000105742
-5.20232e-05
-8.8076e-06
4.47881e-05
2.50477e-05
2.682e-05
-1.08391e-05
4.69403e-05
8.46007e-05
4.78963e-05
7.45294e-05
4.74046e-05
3.30208e-05
-4.18202e-05
-6.44085e-05
2.21813e-05
1.28194e-05
-5.03459e-05
1.09801e-05
1.28845e-05
-2.00475e-06
-2.12819e-05
-2.85426e-05
-5.27312e-05
-4.44072e-05
-0.000102978
-1.54527e-05
9.01585e-06
-5.4983e-05
-6.24451e-05
2.77545e-05
-6.927e-05
-6.25956e-05
-7.58284e-05
-8.2205e-05
3.859e-05
0.000171644
0.000149767
7.67445e-05
4.77075e-05
0.000123547
8.93295e-05
-1.43919e-06
-5.30918e-05
-0.000112974
-0.000186847
-7.35274e-05
-0.000145778
-8.98014e-05
9.54733e-05
0.000139379
0.000117981
8.34595e-05
7.04837e-05
1.74906e-05
-2.58921e-06
2.26472e-05
-4.04284e-05
-1.01681e-05
-3.50241e-05
-9.20787e-06
-9.58825e-06
5.44743e-06
1.39676e-05
1.24356e-05
7.92064e-05
1.22045e-06
-2.64597e-05
-1.84957e-05
-7.16101e-05
7.57741e-06
-8.35139e-07
-6.67353e-05
-1.20634e-05
3.45374e-06
3.86042e-05
4.0981e-05
1.95473e-05
-4.91551e-05
-3.05781e-05
4.40061e-05
0.000106298
6.62387e-05
4.75548e-05
5.11571e-05
0.00017156
0.000258909
0.000384393
0.00051458
0.000746429
0.00119755
0.00184576
0.00281025
0.00442984
0.00705705
0.0108502
0.016847
0.0263447
0.0407507
0.0633225
0.0982946
0.152565
0.236555
0.366957
0.568681
0.881745
1.36587
2.11693
3.27804
5.07892
7.86311
12.1818
18.8582
29.2145
45.2295
70.0763
108.504
168.135
260.389
403.582
625.166
969.184
1501.72
2328.79
3609.56
5599.74
8683.66
13481.5
20924.6
32540.6
50595.2
79022.7
123229
194665
303785
494722
750244
-7.91841e-06
-1.48533e-05
1.64128e-06
3.91459e-05
-3.55997e-05
-5.71074e-06
1.15139e-05
2.17498e-05
4.10657e-05
8.196e-06
-6.78904e-05
-3.08668e-05
-3.18467e-06
2.04201e-05
3.5989e-05
1.80689e-05
-1.03472e-05
-4.79629e-06
4.61595e-05
-1.54609e-05
-0.000108284
-4.80072e-05
-2.13987e-05
7.09723e-05
6.99766e-05
-3.15126e-06
-4.92775e-05
1.0675e-05
4.46767e-05
-9.80074e-06
-2.74429e-05
1.1909e-05
-2.32408e-05
-7.69537e-06
-3.01965e-05
3.78378e-05
-4.48029e-06
-9.55664e-05
-5.01105e-05
2.56711e-05
4.92035e-05
5.07207e-05
1.9138e-05
-2.06768e-05
2.63778e-05
-8.48841e-07
-5.04369e-06
-6.67507e-05
-3.7774e-05
5.71754e-05
3.38994e-05
3.19474e-05
7.15475e-05
3.66212e-05
-0.000107263
-5.7093e-05
6.53234e-05
7.77163e-05
1.59577e-05
-4.8869e-05
-0.000132774
-4.23917e-05
3.74811e-05
-1.46694e-05
-5.05451e-06
-3.00325e-05
-3.25676e-05
2.55447e-05
-2.18227e-05
6.57742e-07
5.39419e-05
4.41866e-05
5.80112e-05
1.98321e-05
0.000107167
0.000153932
3.50301e-05
-3.53645e-05
-0.000120382
-0.000138867
-8.14092e-05
-6.85212e-05
-8.7469e-05
-9.30008e-05
-2.85492e-05
2.4986e-05
5.02198e-05
6.08444e-05
7.3027e-05
-2.66482e-05
2.36237e-05
3.44521e-05
1.58026e-06
-1.62391e-05
-5.00916e-05
8.60225e-05
6.47275e-05
3.78056e-05
4.17905e-05
-6.16989e-05
3.94063e-05
-4.46998e-05
-0.000125354
-9.59229e-05
1.9647e-05
-3.25071e-05
-3.18777e-05
8.61138e-05
9.19301e-05
-2.68012e-05
-2.83086e-05
8.27247e-05
3.90402e-06
1.26831e-07
0.000104843
8.65724e-05
1.4034e-05
4.95995e-05
6.46131e-05
-7.52739e-06
-5.68833e-05
-0.000118915
-4.42546e-06
2.30638e-05
2.07563e-05
3.63994e-05
-2.05499e-05
-1.34958e-05
-7.34495e-06
-1.4627e-05
-1.75529e-08
-8.34191e-06
3.71444e-06
-7.75566e-06
-3.8097e-05
-4.21793e-06
5.98773e-05
1.88196e-05
4.60122e-05
5.34804e-05
-3.93457e-05
-2.96183e-06
-3.97349e-05
0.000103881
5.25321e-05
1.09713e-06
-6.92477e-06
2.12909e-05
7.85976e-05
0.000115948
8.49116e-05
-1.26931e-05
-0.000119278
-0.000101772
2.04343e-05
-1.17056e-05
-1.57434e-05
2.82067e-05
-1.98569e-05
-9.50301e-05
-0.000115598
2.64995e-05
9.16654e-05
3.11937e-05
5.81934e-05
0.00010512
8.03193e-06
1.24123e-05
-2.00867e-05
-7.11292e-05
-2.2032e-05
-3.08328e-05
-8.54396e-06
0.000120754
-2.43386e-05
5.00301e-05
5.94478e-05
-1.80783e-06
-5.16307e-05
-5.64834e-05
3.19292e-05
1.8771e-05
2.6346e-05
-0.000125209
-3.52865e-05
-4.9893e-05
-5.27174e-05
-4.3368e-05
-2.18127e-05
2.82047e-05
-2.95858e-05
-3.77064e-05
-1.36527e-05
-4.8269e-05
-4.62296e-05
1.1877e-05
1.07977e-05
3.02367e-05
-2.53206e-05
-7.60828e-05
-3.16328e-06
1.97445e-05
3.5104e-05
1.83005e-05
2.01912e-05
8.30907e-06
-2.39986e-05
1.69427e-05
2.6422e-05
0.000119671
3.53422e-05
6.00093e-06
7.7526e-05
2.75602e-05
3.05637e-05
8.48341e-05
4.45286e-05
5.90635e-05
1.77347e-05
-4.12036e-05
-4.90658e-05
-3.79939e-05
5.57431e-05
-1.81826e-05
-4.99325e-05
-6.36974e-05
-0.000127086
-5.78164e-05
1.49539e-05
8.65076e-06
6.74098e-05
9.76903e-05
7.60146e-05
2.88969e-05
0.000106879
1.58349e-05
5.63165e-05
-5.82277e-06
1.69752e-05
2.89588e-05
8.32795e-05
5.26463e-05
-6.16129e-06
6.36109e-05
-2.5188e-05
1.93755e-05
9.78699e-05
2.68507e-05
4.45419e-05
0.000124444
0.000194944
0.000358957
0.000561852
0.00102586
0.00164728
0.00250714
0.00379934
0.0058787
0.00921245
0.0143789
0.0223461
0.0345214
0.0536905
0.0833066
0.129319
0.20028
0.310357
0.480441
0.74395
1.15086
1.78116
2.75377
4.25976
6.5835
10.1804
15.7302
24.3202
37.5724
58.0835
89.7289
138.708
214.281
331.256
511.762
791.181
1222.41
1890.04
2920.58
4516.52
6980.75
10799.9
16699.8
25864.8
40028.4
62191.8
96338.7
151099
233336
377003
563379
-7.3073e-06
-2.19847e-05
3.00937e-05
4.03214e-05
4.91039e-06
7.2374e-06
-3.60938e-05
6.04072e-07
1.92306e-05
-1.33322e-05
-3.28084e-05
-1.58874e-06
-1.52205e-05
3.70399e-05
9.41352e-05
4.42049e-05
-5.14812e-05
-1.71362e-06
-1.00378e-05
-6.06036e-05
-4.54945e-05
-4.99476e-05
-2.3603e-06
2.49118e-05
6.93929e-05
5.51088e-05
6.67561e-06
-3.16596e-05
-2.75285e-05
6.19372e-05
0.000153539
8.12904e-05
-6.59388e-05
-8.74747e-05
-8.80339e-05
1.76793e-05
-4.20886e-06
-5.35368e-05
-1.57013e-06
4.1699e-05
-5.83013e-05
1.27544e-05
6.76027e-05
7.39514e-05
6.03572e-06
5.81253e-05
2.09698e-05
-5.60157e-05
-6.29906e-05
7.07282e-07
3.56986e-05
-4.01641e-05
6.0674e-06
-0.00011127
-1.25781e-06
2.48683e-05
-8.48646e-06
4.92051e-05
-5.43823e-05
-2.45258e-05
4.02723e-05
6.572e-05
3.98966e-05
-7.49375e-05
-8.31618e-05
-2.01003e-05
3.35103e-05
4.80328e-05
3.08723e-05
1.8462e-05
6.98148e-07
-6.04126e-05
4.52039e-05
-3.02744e-05
-2.94486e-05
2.45428e-05
1.49591e-05
4.07134e-05
7.17012e-05
3.11316e-05
-6.62461e-05
-3.85236e-05
-7.92529e-06
-1.85219e-05
-5.47675e-05
-6.99439e-05
-2.15678e-05
-9.94261e-06
3.96747e-05
-2.81801e-05
-9.58391e-06
2.37534e-05
7.02109e-05
5.4772e-05
9.74218e-05
-4.79013e-05
3.59466e-05
4.02966e-06
-6.648e-05
-5.24734e-05
6.64042e-05
2.0571e-07
-1.58962e-05
3.55785e-05
-2.23444e-05
-8.2986e-05
-2.4758e-06
8.46703e-06
9.28736e-06
2.35993e-05
-3.51057e-05
4.59517e-05
4.65963e-05
-6.42953e-05
-3.15013e-05
-1.41965e-05
4.21813e-05
3.29875e-05
6.97572e-05
5.58965e-05
-3.29894e-06
6.66469e-05
7.82762e-05
1.31896e-05
5.10094e-05
3.17898e-05
-1.3177e-06
3.02711e-05
-5.71962e-05
-5.23003e-05
-4.04506e-06
-2.04391e-05
-1.99403e-05
6.17773e-05
-2.39101e-05
-0.000123979
-8.76199e-05
-2.70961e-05
-5.98165e-05
-7.90955e-05
-1.57481e-05
1.96135e-05
7.70513e-05
0.000105126
6.33909e-05
0.00010277
7.43909e-05
5.6421e-05
0.000132359
4.12851e-05
-3.96293e-05
-5.22767e-05
-7.81126e-05
-7.25479e-05
-4.11224e-05
2.75233e-06
2.12159e-06
-2.42732e-05
-9.41936e-06
4.84054e-05
6.26747e-05
3.59828e-05
-2.91467e-05
-8.29394e-05
-9.90715e-06
-3.59103e-05
-4.06498e-05
8.5875e-05
4.71398e-05
1.07945e-05
-4.86578e-05
7.05526e-06
3.13475e-05
5.8562e-05
2.13418e-05
-1.97277e-05
-5.90122e-05
7.13926e-05
7.57504e-05
2.68809e-07
4.17161e-06
2.77375e-05
-2.20005e-05
-8.13361e-07
2.86115e-05
-6.81805e-05
-3.53843e-05
-9.24948e-06
-2.79955e-05
-9.05794e-05
-1.03555e-05
-6.12399e-05
-6.37314e-05
-3.26885e-05
-4.89527e-05
1.84377e-06
1.43171e-05
3.00234e-05
8.60729e-05
4.11471e-05
-5.47309e-05
-1.97963e-05
0.000135568
-1.57553e-06
2.28445e-05
-6.53012e-06
-8.59091e-05
3.0749e-05
1.97772e-05
0.000101178
5.1623e-05
2.24468e-05
5.72935e-05
8.56196e-06
5.14598e-05
-2.11253e-05
2.61797e-05
5.94766e-05
9.24508e-06
2.968e-05
4.33217e-05
-1.28658e-05
-4.3591e-05
-0.000108825
-3.34797e-05
2.52359e-05
-4.55377e-05
4.58048e-05
-3.02202e-05
-5.4715e-05
7.78955e-06
8.61629e-06
4.74113e-05
4.93143e-05
-6.48188e-05
-1.51177e-05
-0.000114143
-2.97676e-05
8.98962e-05
-4.07041e-05
-1.9055e-05
-1.60862e-05
1.76889e-05
8.13669e-05
8.12033e-05
2.97718e-05
-2.12777e-05
-1.73439e-05
7.86573e-05
0.000174491
0.000201137
0.000412707
0.000577337
0.000775944
0.00124677
0.0019544
0.00302787
0.0047741
0.00752688
0.0118353
0.0183561
0.028515
0.0441314
0.0683717
0.105962
0.164061
0.254039
0.392868
0.607908
0.939316
1.45205
2.24229
3.46401
5.34618
8.25476
12.7348
19.6564
30.3153
46.7808
72.1339
111.294
171.589
264.715
408.101
629.56
970.555
1497.25
2308.29
3561.23
5490.92
8473.69
13068.2
20183.3
31137.2
48210
74352.9
116064
177961
285864
422121
1.97462e-05
-3.24381e-06
-3.6696e-05
-3.23742e-05
-2.03142e-06
2.39795e-05
4.82681e-05
9.87272e-06
2.8588e-06
-2.13596e-06
-7.20598e-05
3.64633e-05
3.13235e-05
-3.05729e-05
1.1387e-05
9.31996e-06
-6.91239e-06
-6.81724e-06
-1.33394e-05
-3.56048e-05
-4.26609e-05
4.89447e-05
4.66668e-05
-5.95452e-06
-7.44259e-05
3.289e-05
3.21045e-05
9.03356e-06
-4.50826e-05
-1.7629e-05
5.74525e-05
6.14568e-05
3.95247e-05
8.61471e-05
1.98084e-05
-5.02852e-05
-5.25798e-05
1.07471e-05
-8.58092e-05
-8.62493e-05
3.27133e-05
7.38757e-05
8.90028e-05
3.80862e-05
-7.8165e-06
-5.15305e-05
-7.49587e-05
-4.29833e-05
-6.47568e-05
1.2454e-05
3.22694e-06
3.5154e-05
7.68359e-05
8.76549e-05
5.6048e-05
6.35899e-05
1.83715e-05
-1.83232e-05
-1.78772e-05
-5.78146e-05
-5.91235e-05
1.96913e-05
-1.31412e-05
4.63983e-06
9.38343e-05
1.30645e-05
6.35082e-05
1.46646e-05
-1.79579e-05
-6.23331e-05
-5.24381e-05
6.53642e-05
8.6213e-06
1.34093e-05
4.47616e-06
-3.11175e-05
1.95233e-05
-3.6914e-05
-4.8844e-05
-5.60087e-05
-1.74229e-05
-2.31109e-05
-2.3909e-05
-1.54745e-05
-4.54052e-05
-3.36197e-07
7.90791e-05
7.44566e-05
-1.36802e-06
-6.56323e-05
3.29875e-05
5.72372e-05
1.78597e-05
-4.47596e-05
-1.00014e-05
3.77501e-05
-7.46715e-05
-0.000148684
-6.8086e-05
6.0963e-05
-1.99805e-06
-1.06328e-05
-4.81148e-05
4.20248e-05
3.52511e-05
3.81002e-05
3.04367e-05
-4.1362e-06
-2.77264e-05
-2.91589e-07
-5.64683e-06
7.81733e-05
6.66621e-05
9.00449e-05
5.38491e-05
-8.68272e-05
-1.12172e-05
-4.4515e-05
-5.92319e-05
-2.71394e-06
0.000141408
3.27647e-05
-2.61349e-05
2.11188e-05
-8.02371e-05
-6.17677e-05
-3.39372e-05
-2.03806e-05
-3.34471e-05
3.4131e-05
0.0001054
-4.42524e-05
-3.24296e-05
5.57926e-05
-3.40033e-05
-2.73379e-05
-1.06522e-05
-2.5837e-05
6.30265e-05
6.18413e-05
3.07229e-05
7.17085e-05
-6.38411e-05
-5.42019e-05
1.01013e-05
3.85104e-05
1.18251e-05
-1.31775e-05
-4.33164e-05
-9.66484e-05
-3.3215e-05
9.70545e-05
0.000108585
4.25511e-05
2.3695e-05
3.02377e-05
-4.11706e-05
-1.69485e-05
3.01228e-05
-3.3136e-05
-5.57155e-05
-7.85835e-05
-1.34984e-05
4.00771e-05
-9.81264e-06
8.84376e-06
1.93912e-05
0.000103333
0.000141113
3.16964e-05
1.04996e-05
2.3022e-06
-9.91435e-05
1.25465e-06
1.56372e-05
9.37642e-05
1.34092e-05
-7.54913e-05
-5.68236e-05
-1.53079e-05
1.03097e-05
-3.74068e-05
-6.2469e-05
-0.000104811
-3.57852e-05
5.01923e-05
2.4761e-05
1.31918e-05
5.42411e-05
3.80733e-05
5.33742e-05
-5.78383e-05
-9.23552e-05
-1.38762e-05
9.04838e-06
-3.34812e-05
-4.77559e-05
-4.34586e-05
-2.33612e-05
0.000149371
0.000115865
0.000104408
9.17407e-05
1.59471e-05
3.01984e-05
4.63974e-06
1.25512e-05
-6.29277e-06
-3.69574e-05
7.62395e-06
2.48067e-05
-7.03854e-05
-2.63577e-05
-4.42198e-05
1.20314e-05
4.3296e-05
2.42293e-05
-2.96339e-05
-5.12009e-05
-5.02737e-05
-4.56192e-06
-2.26753e-05
1.18884e-05
-2.13212e-05
2.06091e-06
4.1537e-05
2.91675e-05
-3.76464e-05
-4.62823e-06
6.3848e-05
4.75925e-05
5.18828e-05
-2.4156e-05
-0.000125284
-9.60891e-05
-0.000100426
-1.78383e-06
5.63433e-05
7.56828e-06
1.50335e-05
2.78874e-06
8.05167e-05
5.2985e-05
0.000107856
3.49374e-05
-6.7673e-05
-4.90446e-05
1.05168e-05
3.54415e-05
0.000128162
0.00019652
0.000345482
0.000456054
0.000605759
0.00102625
0.00161855
0.00253398
0.00390365
0.00603418
0.00931243
0.01452
0.0226091
0.0350932
0.0544783
0.0844104
0.130553
0.202046
0.312213
0.482623
0.745306
1.15121
1.77605
2.74108
4.22627
6.51878
10.0456
15.4872
23.8559
36.7652
56.6153
87.2292
134.296
206.878
318.462
490.526
755.048
1162.95
1790.07
2757.24
4244.33
6538.88
10066.8
15519.2
23893.3
36912.2
56770.5
88353.3
134838
215717
315705
-8.29822e-06
6.583e-05
-6.55442e-05
-3.8418e-05
-9.3314e-06
-5.94954e-07
5.05857e-07
3.54587e-05
-7.23457e-05
-1.41939e-05
3.23373e-05
-1.31834e-05
5.49261e-05
1.03639e-06
1.0979e-05
-2.01542e-05
-7.08916e-05
6.09762e-05
7.88825e-05
-2.85069e-05
8.62423e-06
-3.3317e-05
-9.6941e-06
-2.22043e-05
1.29993e-05
-0.00012376
-0.000133177
5.58187e-05
0.000126696
7.85869e-05
1.06158e-05
7.24811e-05
6.91366e-05
6.64769e-05
-8.92285e-06
-2.12008e-05
-3.11066e-05
-4.42494e-05
2.15061e-06
3.49272e-05
0.000107266
1.91628e-06
-3.20783e-05
-2.06594e-05
-1.68826e-05
-7.28146e-05
-2.88083e-05
-4.09121e-06
-1.78347e-05
4.90665e-05
1.30318e-05
-7.90616e-05
3.14004e-05
4.74023e-05
8.87774e-05
-7.52924e-05
-8.1406e-05
-2.09263e-05
-7.52642e-05
-5.37013e-05
-1.46545e-05
4.3546e-05
7.54667e-06
-5.15391e-05
-8.42332e-06
2.55383e-05
-3.06732e-05
6.81334e-06
0.00010989
2.86369e-05
3.1616e-05
3.64428e-05
-7.64824e-06
-2.40089e-05
-9.13633e-05
4.60233e-05
1.17023e-05
-3.39464e-05
-7.58058e-05
-3.07014e-05
3.1583e-05
4.08173e-05
2.68906e-05
6.78429e-05
2.92021e-05
-7.14491e-05
-6.25865e-05
-9.63127e-05
-4.70581e-05
-3.78375e-05
-2.17877e-05
-8.20326e-06
1.07427e-05
3.2279e-05
2.70588e-05
-1.15502e-05
-3.83922e-06
-5.64099e-05
-8.81035e-06
-3.6675e-06
3.89526e-05
1.50449e-05
3.27665e-05
1.93962e-05
-8.39904e-07
-8.62769e-05
-8.09882e-05
6.3295e-05
7.45499e-05
5.59675e-05
3.07965e-05
-4.41076e-05
8.09757e-05
0.000107252
4.43169e-05
-2.24006e-05
-4.59772e-06
-0.000110016
4.63978e-05
9.62431e-06
-4.03178e-05
-5.0798e-05
-3.2946e-05
-2.73178e-05
3.54603e-05
-1.00798e-05
-5.73807e-05
-5.81849e-05
-1.53048e-05
5.92061e-05
6.6055e-05
1.91127e-05
3.01722e-05
8.83962e-05
9.31038e-05
5.53851e-05
7.34362e-05
8.26803e-05
5.68732e-06
-7.96803e-05
-9.6538e-05
-2.87298e-05
4.86656e-05
4.62644e-05
-2.76515e-05
8.35452e-05
1.61039e-05
4.34747e-05
3.82603e-05
-6.48051e-05
1.42905e-05
-2.57792e-05
-2.80516e-05
-4.35277e-05
-1.48443e-05
1.05392e-05
7.19853e-05
6.20781e-05
-4.24554e-05
6.50615e-05
1.78123e-05
-8.15082e-05
-3.1552e-05
3.68184e-05
5.2577e-05
6.76761e-07
-3.76366e-05
-1.45027e-05
-4.00038e-05
1.47973e-05
2.71756e-05
-6.71956e-05
-1.69793e-05
4.38348e-05
4.69753e-05
0.000113184
-1.34964e-05
-3.86924e-05
-4.62588e-06
-4.66508e-05
-9.26813e-05
-9.82331e-05
-7.42949e-05
-4.34849e-05
-3.01824e-05
-5.01557e-05
-4.15939e-05
2.10366e-05
9.62745e-06
2.34015e-05
1.15628e-05
5.06709e-05
0.000101588
6.08433e-05
-1.36198e-05
-5.24444e-06
2.85238e-05
9.50569e-05
5.58052e-06
3.50925e-05
4.28369e-05
4.14949e-05
4.62407e-05
2.83299e-06
6.75645e-05
3.10011e-05
3.44242e-05
-3.55582e-06
-2.68235e-05
-4.1963e-05
2.00224e-05
2.15029e-05
-6.23144e-05
-1.84504e-05
4.82883e-06
-6.57033e-05
-0.000112863
-5.91763e-05
1.7002e-05
1.62961e-06
-2.11869e-05
2.03258e-05
-2.94679e-05
-1.57442e-05
2.92068e-05
2.38499e-06
0.000147896
8.34577e-05
-4.04112e-05
-6.94659e-05
-2.58731e-05
1.33784e-05
7.0143e-05
1.33246e-05
6.60412e-05
2.08482e-05
5.29346e-05
8.54082e-06
-2.88135e-07
-5.5962e-05
-0.000125988
-4.85521e-05
2.06328e-05
4.56557e-05
-6.65314e-05
-8.56526e-05
7.2892e-05
0.000137026
0.000143873
9.9262e-05
0.000132945
0.000225265
0.000299525
0.000539428
0.000782693
0.00122669
0.0019345
0.00300651
0.00459733
0.00728519
0.0113128
0.0175946
0.027228
0.0421862
0.0654424
0.101207
0.156434
0.24176
0.373671
0.576708
0.890267
1.37294
2.11769
3.26328
5.0306
7.74728
11.9358
18.3724
28.2927
43.5333
67.0172
103.089
158.663
244.019
375.509
577.462
888.57
1366.41
2102.62
3233.44
4976.45
7653.38
11785.7
18123.3
27961.2
42930.6
66689.4
101468
161898
235437
7.3239e-06
-1.28016e-05
-1.50487e-06
-4.39383e-05
8.86384e-06
3.64062e-05
-6.20075e-05
5.81758e-05
1.64877e-05
-1.46267e-05
-3.93648e-07
-8.59803e-06
-0.000110793
-4.02214e-05
3.96274e-05
4.65549e-05
4.51563e-05
1.43985e-05
1.89243e-05
1.96288e-05
1.8746e-05
3.59109e-05
4.49751e-05
-2.10367e-05
-9.56955e-06
-1.53907e-05
-9.10274e-05
-4.42664e-05
1.83198e-05
6.2035e-06
6.397e-05
2.31975e-05
3.69851e-05
2.7939e-05
1.15592e-05
-3.61623e-06
9.64035e-05
2.1561e-05
-0.000124092
-0.000118923
-5.10272e-05
-3.16543e-05
-8.57975e-06
-5.85241e-05
-1.22027e-05
9.84434e-06
-3.05943e-05
5.97442e-05
0.000135383
7.25936e-05
2.29991e-05
2.16343e-05
3.32828e-05
8.93033e-06
-1.49969e-05
-0.000120564
-0.000105189
-5.38899e-05
1.45433e-05
1.26202e-05
0.000102731
-2.36265e-05
1.00734e-05
8.10673e-05
8.96307e-06
-2.42825e-05
-1.54912e-05