/*--------------------------------*- C++ -*----------------------------------*\
| =========                 |                                                 |
| \\      /  F ield         | OpenFOAM: The Open Source CFD Toolbox           |
|  \\    /   O peration     | Version:  2412                                  |
|   \\  /    A nd           | Website:  www.openfoam.com                      |
|    \\/     M anipulation  |                                                 |
\*---------------------------------------------------------------------------*/
FoamFile
{
    version     2.0;
    format      ascii;
    arch        "LSB;label=32;scalar=64";
    class       surfaceScalarField;
    location    "0.0015";
    object      phi;
}
// * * * * * * * * * * * * * * * * * * * * * * * * * * * * * * * * * * * * * //

dimensions      [1 0 -1 0 0 0 0];

oriented        oriented;

internalField   nonuniform List<scalar> 
359100
(
3.27398
1.38778e-17
3.27398
1.38778e-17
3.27398
8.32667e-17
3.27398
1.11022e-16
3.27398
6.93889e-17
3.27398
-2.77556e-17
3.27398
-1.80411e-16
3.27398
-3.46945e-16
3.27398
-5.13478e-16
3.27398
-5.82867e-16
3.27398
-6.10623e-16
3.27398
-6.66134e-16
3.27398
-7.63278e-16
3.27398
-8.60423e-16
3.27398
-1.05471e-15
3.27398
-1.27676e-15
3.27398
-1.33227e-15
3.27398
-1.36002e-15
3.27398
-1.4988e-15
3.27398
-1.54043e-15
3.27398
-1.47105e-15
3.27398
-1.4988e-15
3.27398
-1.48492e-15
3.27398
-1.51268e-15
3.27398
-1.47105e-15
3.27398
-1.38778e-15
3.27398
-1.15186e-15
3.27398
-9.57567e-16
3.27398
-8.46545e-16
3.27398
-8.18789e-16
3.27398
-8.60423e-16
3.27398
-9.15934e-16
3.27398
-8.88178e-16
3.27398
-8.32667e-16
3.27398
-8.60423e-16
3.27398
-9.57567e-16
3.27398
-1.1241e-15
3.27398
-1.31839e-15
3.27398
-1.36002e-15
3.27398
-1.17961e-15
3.27398
-1.11022e-15
3.27398
-1.08247e-15
3.27398
-9.29812e-16
3.27398
-7.91034e-16
3.27398
-5.82867e-16
3.27398
-4.996e-16
3.27398
-6.52256e-16
3.27398
-9.57567e-16
3.27398
-1.27676e-15
3.27398
-1.60982e-15
3.27398
-1.81799e-15
3.27398
-1.90126e-15
3.27398
-1.91513e-15
3.27398
-1.83187e-15
3.27398
-1.73472e-15
3.27398
-1.84575e-15
3.27398
-2.05391e-15
3.27398
-2.04003e-15
3.27398
-1.98452e-15
3.27398
-1.98452e-15
3.27398
-2.05391e-15
3.27398
-2.13718e-15
3.27398
-2.26208e-15
3.27398
-2.28983e-15
3.27398
-2.15106e-15
3.27398
-1.95677e-15
3.27398
-1.83187e-15
3.27398
-1.79023e-15
3.27398
-1.80411e-15
3.27398
-1.84575e-15
3.27398
-1.85962e-15
3.27398
-1.84575e-15
3.27398
-2.13718e-15
3.27398
-2.28983e-15
3.27398
-2.3731e-15
3.27398
-2.45637e-15
3.27398
-2.35922e-15
3.27398
-2.19269e-15
3.27398
-2.15106e-15
3.27398
-2.04003e-15
3.27398
-2.02616e-15
3.27398
-1.85962e-15
3.27398
-1.65146e-15
3.27398
-1.38778e-15
3.27398
-1.19349e-15
3.27398
-1.13798e-15
3.27398
-1.30451e-15
3.27398
-1.65146e-15
3.27398
-1.98452e-15
3.27398
-1.9984e-15
3.27398
-1.81799e-15
3.27398
-1.67921e-15
3.27398
-1.65146e-15
3.27398
-1.4988e-15
3.27398
-1.47105e-15
3.27398
-1.73472e-15
3.27398
-1.94289e-15
3.27398
-2.13718e-15
3.27398
-2.28983e-15
3.27398
-2.48412e-15
3.27398
-2.7478e-15
3.27398
-2.96985e-15
3.27398
-2.88658e-15
3.27398
-2.63678e-15
3.27398
-2.34535e-15
3.27398
-2.1233e-15
3.27398
-1.97065e-15
3.27398
-1.85962e-15
3.27398
-1.67921e-15
3.27398
-1.3739e-15
3.27398
-1.1241e-15
3.27398
-7.91034e-16
3.27398
-5.55112e-16
3.27398
-4.57967e-16
3.27398
-4.996e-16
3.27398
-5.96745e-16
3.27398
-6.52256e-16
3.27398
-5.68989e-16
3.27398
-5.68989e-16
3.27398
-8.46545e-16
3.27398
-1.20737e-15
3.27398
-1.38778e-15
3.27398
-1.36002e-15
3.27398
-1.26288e-15
3.27398
-1.23512e-15
3.27398
-1.29063e-15
3.27398
-1.11022e-15
3.27398
-8.04912e-16
3.27398
-5.55112e-16
3.27398
-4.16334e-16
3.27398
-4.02456e-16
3.27398
-5.41234e-16
3.27398
-5.55112e-16
3.27398
-4.85723e-16
3.27398
-6.38378e-16
3.27398
-9.4369e-16
3.27398
-1.27676e-15
3.27398
-1.47105e-15
3.27398
-1.70697e-15
3.27398
-2.06779e-15
3.27398
-2.26208e-15
3.27398
-2.20657e-15
3.27398
-1.91513e-15
3.27398
-1.55431e-15
3.27398
-1.34615e-15
3.27398
-1.31839e-15
3.27398
-1.41553e-15
3.27398
-1.36002e-15
3.27398
-1.27676e-15
3.27398
-1.19349e-15
3.27398
-1.17961e-15
3.27398
-1.04083e-15
3.27398
-9.57567e-16
3.27398
-9.71445e-16
3.27398
-9.85323e-16
3.27398
-9.85323e-16
3.27398
-9.71445e-16
3.27398
-7.91034e-16
3.27398
-6.52256e-16
3.27398
-5.96745e-16
3.27398
-5.27356e-16
3.27398
-4.71845e-16
3.27398
-5.96745e-16
3.27398
-8.32667e-16
3.27398
-1.02696e-15
3.27398
-1.01308e-15
3.27398
-1.01308e-15
3.27398
-1.01308e-15
3.27398
-9.85323e-16
3.27398
-9.02056e-16
3.27398
-8.88178e-16
3.27398
-8.74301e-16
3.27398
-8.18789e-16
3.27398
-5.96745e-16
3.27398
-8.32667e-17
3.27398
4.16334e-16
3.27398
6.66134e-16
3.27398
7.63278e-16
3.27398
8.88178e-16
3.27398
1.05471e-15
3.27398
1.33227e-15
3.27398
1.63758e-15
3.27398
1.54043e-15
3.27398
1.13798e-15
3.27398
6.93889e-16
3.27398
3.46945e-16
3.27398
3.19189e-16
3.27398
5.13478e-16
3.27398
7.35523e-16
3.27398
5.96745e-16
3.27398
2.77556e-16
3.27398
-5.55112e-17
3.27398
-2.77556e-16
3.27398
-5.68989e-16
3.27398
-8.18789e-16
3.27398
-8.18789e-16
3.27398
-7.35523e-16
3.27398
-7.77156e-16
3.27398
-7.21645e-16
3.27398
-5.82867e-16
3.27398
-4.57967e-16
3.27398
-4.16334e-16
3.27398
-4.16334e-16
3.27398
-4.02456e-16
3.27398
-3.88578e-16
3.27398
-5.55112e-17
3.27398
4.16334e-16
3.27398
8.04912e-16
3.27398
1.17961e-15
3.27398
1.29063e-15
3.27398
1.11022e-15
3.27398
7.07767e-16
3.27398
2.63678e-16
3.27398
6.93889e-17
3.27398
6.93889e-17
3.27398
1.38778e-17
3.27398
-8.15444e-31
3.27398
1.38778e-17
3.27398
1.11022e-16
3.27398
2.498e-16
3.27398
4.44089e-16
3.27398
7.49401e-16
3.27398
7.91034e-16
3.27398
7.07767e-16
3.27398
6.52256e-16
3.27398
5.41234e-16
3.27398
5.41234e-16
3.27398
4.30211e-16
3.27398
1.66533e-16
3.27398
-6.93889e-17
3.27398
-1.52656e-16
3.27398
-6.93889e-17
3.27398
2.22045e-16
3.27398
5.68989e-16
3.27398
9.99201e-16
3.27398
1.02696e-15
3.27398
7.35523e-16
3.27398
5.82867e-16
3.27398
5.68989e-16
3.27398
7.49401e-16
3.27398
1.29063e-15
3.27398
2.1233e-15
3.27398
3.3723e-15
3.27398
5.38458e-15
3.27398
8.49321e-15
3.27398
1.36002e-14
3.27398
2.26208e-14
3.27398
3.82055e-14
3.27398
6.43097e-14
3.27398
1.08205e-13
3.27398
1.81757e-13
3.27398
3.04701e-13
3.27398
5.10203e-13
3.27398
8.53581e-13
3.27398
1.42794e-12
3.27398
2.38874e-12
3.27398
3.996e-12
3.27398
6.68558e-12
3.27398
1.11881e-11
3.27398
1.87282e-11
3.27398
3.13598e-11
3.27398
5.25295e-11
3.27398
8.80245e-11
3.27398
1.47568e-10
3.27398
2.47511e-10
3.27398
4.15357e-10
3.27398
6.97427e-10
3.27398
1.17178e-09
3.27398
1.97008e-09
3.27398
3.31461e-09
3.27398
5.58105e-09
3.27398
9.4049e-09
3.27398
1.58625e-08
3.27398
2.67786e-08
3.27398
4.52512e-08
3.27398
7.65453e-08
3.27398
1.29622e-07
3.27398
2.19751e-07
3.27398
3.72994e-07
3.27398
6.33891e-07
3.27398
1.07869e-06
3.27398
1.83808e-06
3.27397
3.13654e-06
3.27397
5.36016e-06
3.27396
9.17428e-06
3.27394
1.57275e-05
3.27391
2.70071e-05
3.27387
4.64578e-05
3.27379
8.00677e-05
3.27365
0.000138272
3.27341
0.000239333
3.27299
0.000415327
3.27226
0.000723085
3.27099
0.00126382
3.26876
0.0022216
3.26481
0.00393291
3.25775
0.00704501
3.24493
0.0127845
3.22112
0.0237589
0.0447926
3.17625
3.27398
8.32667e-17
3.27398
1.11022e-16
3.27398
5.55112e-17
3.27398
4.16334e-17
3.27398
0
3.27398
-2.77556e-17
3.27398
-2.77556e-17
3.27398
-2.77556e-17
3.27398
-1.38778e-17
3.27398
-5.55112e-17
3.27398
-1.11022e-16
3.27398
-2.08167e-16
3.27398
-3.46945e-16
3.27398
-5.82867e-16
3.27398
-8.18789e-16
3.27398
-9.85323e-16
3.27398
-1.08247e-15
3.27398
-1.1241e-15
3.27398
-1.13798e-15
3.27398
-1.11022e-15
3.27398
-1.09635e-15
3.27398
-1.05471e-15
3.27398
-9.4369e-16
3.27398
-9.99201e-16
3.27398
-1.1241e-15
3.27398
-1.17961e-15
3.27398
-1.06859e-15
3.27398
-8.46545e-16
3.27398
-8.18789e-16
3.27398
-8.74301e-16
3.27398
-9.71445e-16
3.27398
-1.08247e-15
3.27398
-1.13798e-15
3.27398
-1.05471e-15
3.27398
-8.88178e-16
3.27398
-8.60423e-16
3.27398
-1.02696e-15
3.27398
-1.26288e-15
3.27398
-1.26288e-15
3.27398
-1.15186e-15
3.27398
-1.09635e-15
3.27398
-9.4369e-16
3.27398
-8.88178e-16
3.27398
-9.85323e-16
3.27398
-1.1241e-15
3.27398
-1.19349e-15
3.27398
-1.29063e-15
3.27398
-1.36002e-15
3.27398
-1.52656e-15
3.27398
-1.54043e-15
3.27398
-1.42941e-15
3.27398
-1.3739e-15
3.27398
-1.41553e-15
3.27398
-1.44329e-15
3.27398
-1.4988e-15
3.27398
-1.51268e-15
3.27398
-1.52656e-15
3.27398
-1.55431e-15
3.27398
-1.4988e-15
3.27398
-1.41553e-15
3.27398
-1.42941e-15
3.27398
-1.48492e-15
3.27398
-1.48492e-15
3.27398
-1.52656e-15
3.27398
-1.45717e-15
3.27398
-1.33227e-15
3.27398
-1.36002e-15
3.27398
-1.48492e-15
3.27398
-1.73472e-15
3.27398
-1.94289e-15
3.27398
-2.1233e-15
3.27398
-2.31759e-15
3.27398
-2.35922e-15
3.27398
-2.35922e-15
3.27398
-2.31759e-15
3.27398
-2.09555e-15
3.27398
-1.8735e-15
3.27398
-1.60982e-15
3.27398
-1.31839e-15
3.27398
-1.36002e-15
3.27398
-1.42941e-15
3.27398
-1.52656e-15
3.27398
-1.42941e-15
3.27398
-1.15186e-15
3.27398
-9.15934e-16
3.27398
-1.02696e-15
3.27398
-1.41553e-15
3.27398
-1.95677e-15
3.27398
-2.35922e-15
3.27398
-2.55351e-15
3.27398
-2.66454e-15
3.27398
-2.60902e-15
3.27398
-2.40086e-15
3.27398
-2.41474e-15
3.27398
-2.41474e-15
3.27398
-2.34535e-15
3.27398
-2.30371e-15
3.27398
-2.22045e-15
3.27398
-2.22045e-15
3.27398
-2.2482e-15
3.27398
-2.3731e-15
3.27398
-2.47025e-15
3.27398
-2.52576e-15
3.27398
-2.52576e-15
3.27398
-2.58127e-15
3.27398
-2.47025e-15
3.27398
-2.3731e-15
3.27398
-2.17881e-15
3.27398
-1.81799e-15
3.27398
-1.54043e-15
3.27398
-1.29063e-15
3.27398
-1.01308e-15
3.27398
-7.91034e-16
3.27398
-8.32667e-16
3.27398
-1.01308e-15
3.27398
-1.19349e-15
3.27398
-1.27676e-15
3.27398
-1.23512e-15
3.27398
-1.1241e-15
3.27398
-1.05471e-15
3.27398
-1.08247e-15
3.27398
-1.13798e-15
3.27398
-1.11022e-15
3.27398
-1.15186e-15
3.27398
-1.27676e-15
3.27398
-1.40166e-15
3.27398
-1.38778e-15
3.27398
-1.16573e-15
3.27398
-8.60423e-16
3.27398
-6.38378e-16
3.27398
-6.38378e-16
3.27398
-8.32667e-16
3.27398
-1.01308e-15
3.27398
-1.09635e-15
3.27398
-1.16573e-15
3.27398
-1.30451e-15
3.27398
-1.58207e-15
3.27398
-1.85962e-15
3.27398
-1.92901e-15
3.27398
-1.88738e-15
3.27398
-1.84575e-15
3.27398
-1.8735e-15
3.27398
-1.8735e-15
3.27398
-1.88738e-15
3.27398
-1.77636e-15
3.27398
-1.51268e-15
3.27398
-1.19349e-15
3.27398
-9.85323e-16
3.27398
-7.63278e-16
3.27398
-6.80012e-16
3.27398
-6.66134e-16
3.27398
-5.82867e-16
3.27398
-3.19189e-16
3.27398
-1.94289e-16
3.27398
-3.33067e-16
3.27398
-4.996e-16
3.27398
-5.55112e-16
3.27398
-6.93889e-16
3.27398
-8.88178e-16
3.27398
-7.63278e-16
3.27398
-3.60822e-16
3.27398
-9.71445e-17
3.27398
-1.66533e-16
3.27398
-3.747e-16
3.27398
-6.245e-16
3.27398
-8.46545e-16
3.27398
-9.85323e-16
3.27398
-1.02696e-15
3.27398
-9.71445e-16
3.27398
-7.35523e-16
3.27398
-4.71845e-16
3.27398
-3.05311e-16
3.27398
-1.66533e-16
3.27398
-1.249e-16
3.27398
-1.94289e-16
3.27398
-3.05311e-16
3.27398
-4.996e-16
3.27398
-5.27356e-16
3.27398
-4.02456e-16
3.27398
-1.52656e-16
3.27398
-2.77556e-17
3.27398
-1.249e-16
3.27398
-2.08167e-16
3.27398
-1.38778e-16
3.27398
-9.71445e-17
3.27398
-1.38778e-17
3.27398
4.16334e-17
3.27398
1.94289e-16
3.27398
2.63678e-16
3.27398
3.88578e-16
3.27398
4.30211e-16
3.27398
2.35922e-16
3.27398
-1.80411e-16
3.27398
-5.41234e-16
3.27398
-6.80012e-16
3.27398
-7.21645e-16
3.27398
-8.18789e-16
3.27398
-8.60423e-16
3.27398
-8.88178e-16
3.27398
-8.74301e-16
3.27398
-6.93889e-16
3.27398
-5.82867e-16
3.27398
-5.13478e-16
3.27398
-1.94289e-16
3.27398
3.05311e-16
3.27398
7.91034e-16
3.27398
1.22125e-15
3.27398
1.58207e-15
3.27398
1.84575e-15
3.27398
1.84575e-15
3.27398
1.6237e-15
3.27398
1.45717e-15
3.27398
1.20737e-15
3.27398
1.06859e-15
3.27398
7.77156e-16
3.27398
3.88578e-16
3.27398
4.16334e-17
3.27398
-1.38778e-16
3.27398
-1.11022e-16
3.27398
5.55112e-17
3.27398
4.30211e-16
3.27398
7.35523e-16
3.27398
9.29812e-16
3.27398
9.57567e-16
3.27398
1.05471e-15
3.27398
1.17961e-15
3.27398
1.15186e-15
3.27398
1.01308e-15
3.27398
8.74301e-16
3.27398
6.80012e-16
3.27398
4.71845e-16
3.27398
3.05311e-16
3.27398
1.66533e-16
3.27398
9.71445e-17
3.27398
2.77556e-17
3.27398
-1.38778e-16
3.27398
-3.747e-16
3.27398
-6.245e-16
3.27398
-4.30211e-16
3.27398
3.60822e-16
3.27398
1.58207e-15
3.27398
3.16414e-15
3.27398
5.68989e-15
3.27398
9.50628e-15
3.27398
1.53905e-14
3.27398
2.51604e-14
3.27398
4.15501e-14
3.27398
6.90975e-14
3.27398
1.15519e-13
3.27398
1.93082e-13
3.27398
3.22437e-13
3.27398
5.38097e-13
3.27398
8.97768e-13
3.27398
1.49721e-12
3.27398
2.49661e-12
3.27398
4.16268e-12
3.27398
6.93975e-12
3.27398
1.15688e-11
3.27398
1.92855e-11
3.27398
3.21504e-11
3.27398
5.36004e-11
3.27398
8.93684e-11
3.27398
1.49021e-10
3.27398
2.48521e-10
3.27398
4.14521e-10
3.27398
6.9152e-10
3.27398
1.15385e-09
3.27398
1.92569e-09
3.27398
3.21461e-09
3.27398
5.3676e-09
3.27398
8.96504e-09
3.27398
1.49778e-08
3.27398
2.50311e-08
3.27398
4.18456e-08
3.27398
6.99786e-08
3.27398
1.17066e-07
3.27398
1.95906e-07
3.27398
3.2796e-07
3.27398
5.4923e-07
3.27398
9.20126e-07
3.27398
1.54206e-06
3.27398
2.58533e-06
3.27398
4.33601e-06
3.27397
7.27481e-06
3.27397
1.22098e-05
3.27397
2.04996e-05
3.27396
3.443e-05
3.27395
5.78471e-05
3.27393
9.72272e-05
3.2739
0.000163484
3.27387
0.00027503
3.27382
0.000462992
3.27376
0.000780135
3.2737
0.00131637
3.27369
0.00222583
3.27383
0.00377614
3.27442
0.00643589
3.27612
0.0110499
3.28072
0.0191072
0.0334581
3.29199
3.27398
-9.71445e-17
3.27398
-1.52656e-16
3.27398
-1.52656e-16
3.27398
-1.52656e-16
3.27398
-8.32667e-17
3.27398
-5.55112e-17
3.27398
-1.11022e-16
3.27398
-1.80411e-16
3.27398
-3.33067e-16
3.27398
-2.91434e-16
3.27398
-2.77556e-16
3.27398
-3.747e-16
3.27398
-4.30211e-16
3.27398
-3.747e-16
3.27398
-3.33067e-16
3.27398
-2.91434e-16
3.27398
-4.02456e-16
3.27398
-6.38378e-16
3.27398
-7.63278e-16
3.27398
-8.88178e-16
3.27398
-9.57567e-16
3.27398
-8.18789e-16
3.27398
-6.38378e-16
3.27398
-6.38378e-16
3.27398
-8.18789e-16
3.27398
-1.04083e-15
3.27398
-1.15186e-15
3.27398
-1.13798e-15
3.27398
-1.11022e-15
3.27398
-1.19349e-15
3.27398
-1.11022e-15
3.27398
-1.09635e-15
3.27398
-1.17961e-15
3.27398
-1.23512e-15
3.27398
-1.13798e-15
3.27398
-9.85323e-16
3.27398
-8.18789e-16
3.27398
-9.15934e-16
3.27398
-1.20737e-15
3.27398
-1.3739e-15
3.27398
-1.36002e-15
3.27398
-1.29063e-15
3.27398
-1.41553e-15
3.27398
-1.4988e-15
3.27398
-1.54043e-15
3.27398
-1.63758e-15
3.27398
-1.59595e-15
3.27398
-1.45717e-15
3.27398
-1.1241e-15
3.27398
-7.49401e-16
3.27398
-5.55112e-16
3.27398
-5.41234e-16
3.27398
-5.68989e-16
3.27398
-7.35523e-16
3.27398
-9.4369e-16
3.27398
-1.05471e-15
3.27398
-9.99201e-16
3.27398
-9.29812e-16
3.27398
-9.29812e-16
3.27398
-9.71445e-16
3.27398
-1.04083e-15
3.27398
-1.04083e-15
3.27398
-9.85323e-16
3.27398
-1.01308e-15
3.27398
-1.20737e-15
3.27398
-1.52656e-15
3.27398
-1.67921e-15
3.27398
-1.80411e-15
3.27398
-2.05391e-15
3.27398
-2.28983e-15
3.27398
-2.40086e-15
3.27398
-2.44249e-15
3.27398
-2.44249e-15
3.27398
-2.44249e-15
3.27398
-2.2482e-15
3.27398
-2.06779e-15
3.27398
-1.73472e-15
3.27398
-1.27676e-15
3.27398
-1.08247e-15
3.27398
-1.04083e-15
3.27398
-1.20737e-15
3.27398
-1.36002e-15
3.27398
-1.44329e-15
3.27398
-1.54043e-15
3.27398
-1.52656e-15
3.27398
-1.26288e-15
3.27398
-9.85323e-16
3.27398
-8.46545e-16
3.27398
-8.60423e-16
3.27398
-9.29812e-16
3.27398
-1.02696e-15
3.27398
-1.249e-15
3.27398
-1.55431e-15
3.27398
-1.80411e-15
3.27398
-2.01228e-15
3.27398
-2.13718e-15
3.27398
-2.10942e-15
3.27398
-2.01228e-15
3.27398
-1.97065e-15
3.27398
-2.06779e-15
3.27398
-2.15106e-15
3.27398
-2.19269e-15
3.27398
-2.19269e-15
3.27398
-2.16493e-15
3.27398
-2.01228e-15
3.27398
-1.9984e-15
3.27398
-1.9984e-15
3.27398
-2.04003e-15
3.27398
-2.01228e-15
3.27398
-1.91513e-15
3.27398
-1.80411e-15
3.27398
-1.76248e-15
3.27398
-1.79023e-15
3.27398
-1.80411e-15
3.27398
-1.80411e-15
3.27398
-1.76248e-15
3.27398
-1.92901e-15
3.27398
-2.28983e-15
3.27398
-2.41474e-15
3.27398
-2.2482e-15
3.27398
-1.98452e-15
3.27398
-1.79023e-15
3.27398
-1.60982e-15
3.27398
-1.45717e-15
3.27398
-1.38778e-15
3.27398
-1.44329e-15
3.27398
-1.70697e-15
3.27398
-1.88738e-15
3.27398
-1.8735e-15
3.27398
-1.66533e-15
3.27398
-1.45717e-15
3.27398
-1.3739e-15
3.27398
-1.48492e-15
3.27398
-1.60982e-15
3.27398
-1.55431e-15
3.27398
-1.36002e-15
3.27398
-1.17961e-15
3.27398
-1.08247e-15
3.27398
-7.07767e-16
3.27398
-2.35922e-16
3.27398
-5.55112e-17
3.27398
-2.22045e-16
3.27398
-4.996e-16
3.27398
-6.66134e-16
3.27398
-7.49401e-16
3.27398
-8.32667e-16
3.27398
-9.15934e-16
3.27398
-7.77156e-16
3.27398
-5.82867e-16
3.27398
-4.57967e-16
3.27398
-4.57967e-16
3.27398
-3.88578e-16
3.27398
-3.747e-16
3.27398
-3.747e-16
3.27398
-3.60822e-16
3.27398
-2.91434e-16
3.27398
-3.05311e-16
3.27398
-3.88578e-16
3.27398
-4.30211e-16
3.27398
-3.46945e-16
3.27398
-2.22045e-16
3.27398
-3.33067e-16
3.27398
-6.245e-16
3.27398
-8.74301e-16
3.27398
-1.09635e-15
3.27398
-1.249e-15
3.27398
-1.27676e-15
3.27398
-1.16573e-15
3.27398
-9.4369e-16
3.27398
-7.07767e-16
3.27398
-4.996e-16
3.27398
-3.33067e-16
3.27398
-3.05311e-16
3.27398
-4.16334e-16
3.27398
-6.93889e-16
3.27398
-9.71445e-16
3.27398
-1.11022e-15
3.27398
-1.15186e-15
3.27398
-1.13798e-15
3.27398
-1.19349e-15
3.27398
-1.249e-15
3.27398
-1.20737e-15
3.27398
-1.02696e-15
3.27398
-8.04912e-16
3.27398
-4.85723e-16
3.27398
-2.77556e-17
3.27398
2.63678e-16
3.27398
3.60822e-16
3.27398
3.33067e-16
3.27398
2.35922e-16
3.27398
1.52656e-16
3.27398
9.71445e-17
3.27398
-2.77556e-17
3.27398
-1.94289e-16
3.27398
-4.02456e-16
3.27398
-5.82867e-16
3.27398
-7.21645e-16
3.27398
-7.07767e-16
3.27398
-6.80012e-16
3.27398
-7.07767e-16
3.27398
-7.91034e-16
3.27398
-6.245e-16
3.27398
-3.60822e-16
3.27398
-1.80411e-16
3.27398
9.71445e-17
3.27398
4.02456e-16
3.27398
6.80012e-16
3.27398
9.15934e-16
3.27398
1.06859e-15
3.27398
1.1241e-15
3.27398
9.85323e-16
3.27398
7.91034e-16
3.27398
8.04912e-16
3.27398
8.04912e-16
3.27398
8.46545e-16
3.27398
7.07767e-16
3.27398
5.96745e-16
3.27398
5.13478e-16
3.27398
4.996e-16
3.27398
6.245e-16
3.27398
6.66134e-16
3.27398
7.07767e-16
3.27398
8.46545e-16
3.27398
1.01308e-15
3.27398
9.4369e-16
3.27398
6.66134e-16
3.27398
4.71845e-16
3.27398
3.19189e-16
3.27398
3.33067e-16
3.27398
4.71845e-16
3.27398
5.96745e-16
3.27398
5.13478e-16
3.27398
2.91434e-16
3.27398
9.71445e-17
3.27398
-2.77556e-17
3.27398
1.23948e-29
3.27398
2.22045e-16
3.27398
5.55112e-16
3.27398
9.71445e-16
3.27398
1.47105e-15
3.27398
2.45637e-15
3.27398
4.28824e-15
3.27398
7.10543e-15
3.27398
1.16296e-14
3.27398
1.89987e-14
3.27398
3.12389e-14
3.27398
5.19168e-14
3.27398
8.63198e-14
3.27398
1.43704e-13
3.27398
2.39433e-13
3.27398
3.98903e-13
3.27398
6.64052e-13
3.27398
1.10437e-12
3.27398
1.83546e-12
3.27398
3.04923e-12
3.27398
5.06403e-12
3.27398
8.40764e-12
3.27398
1.39553e-11
3.27398
2.31585e-11
3.27398
3.8424e-11
3.27398
6.37419e-11
3.27398
1.05725e-10
3.27398
1.75337e-10
3.27398
2.90742e-10
3.27398
4.82053e-10
3.27398
7.99157e-10
3.27398
1.32473e-09
3.27398
2.19575e-09
3.27398
3.63915e-09
3.27398
6.03088e-09
3.27398
9.99372e-09
3.27398
1.65591e-08
3.27398
2.74354e-08
3.27398
4.54514e-08
3.27398
7.52906e-08
3.27398
1.24706e-07
3.27398
2.0653e-07
3.27398
3.41996e-07
3.27398
5.66228e-07
3.27398
9.37311e-07
3.27398
1.55127e-06
3.27398
2.56679e-06
3.27398
4.24595e-06
3.27398
7.02142e-06
3.27398
1.16071e-05
3.27398
1.91798e-05
3.27398
3.16791e-05
3.27399
5.22975e-05
3.274
8.62882e-05
3.27402
0.000142287
3.27406
0.000234484
3.27413
0.000386191
3.27428
0.000635711
3.27454
0.00104609
3.27504
0.00172124
3.27597
0.00283378
3.27772
0.0046705
3.28102
0.00772009
3.2873
0.0127904
0.0213576
3.29933
3.27398
1.27412e-33
3.27398
8.32667e-17
3.27398
4.16334e-17
3.27398
1.38778e-17
3.27398
4.16334e-17
3.27398
1.52656e-16
3.27398
2.91434e-16
3.27398
4.16334e-16
3.27398
5.55112e-16
3.27398
5.68989e-16
3.27398
5.13478e-16
3.27398
4.16334e-16
3.27398
3.19189e-16
3.27398
4.02456e-16
3.27398
4.996e-16
3.27398
5.68989e-16
3.27398
4.996e-16
3.27398
3.60822e-16
3.27398
1.80411e-16
3.27398
-1.38778e-17
3.27398
-2.77556e-16
3.27398
-6.245e-16
3.27398
-8.60423e-16
3.27398
-9.99201e-16
3.27398
-1.09635e-15
3.27398
-1.05471e-15
3.27398
-1.1241e-15
3.27398
-1.33227e-15
3.27398
-1.33227e-15
3.27398
-1.17961e-15
3.27398
-1.05471e-15
3.27398
-1.01308e-15
3.27398
-1.05471e-15
3.27398
-1.30451e-15
3.27398
-1.54043e-15
3.27398
-1.63758e-15
3.27398
-1.63758e-15
3.27398
-1.60982e-15
3.27398
-1.6237e-15
3.27398
-1.6237e-15
3.27398
-1.48492e-15
3.27398
-1.3739e-15
3.27398
-1.33227e-15
3.27398
-1.13798e-15
3.27398
-1.06859e-15
3.27398
-9.57567e-16
3.27398
-8.60423e-16
3.27398
-9.57567e-16
3.27398
-1.05471e-15
3.27398
-1.23512e-15
3.27398
-1.249e-15
3.27398
-1.08247e-15
3.27398
-1.01308e-15
3.27398
-9.99201e-16
3.27398
-1.05471e-15
3.27398
-1.04083e-15
3.27398
-8.32667e-16
3.27398
-6.52256e-16
3.27398
-6.245e-16
3.27398
-6.52256e-16
3.27398
-6.38378e-16
3.27398
-6.38378e-16
3.27398
-7.91034e-16
3.27398
-1.05471e-15
3.27398
-1.42941e-15
3.27398
-1.65146e-15
3.27398
-1.69309e-15
3.27398
-1.76248e-15
3.27398
-1.76248e-15
3.27398
-1.69309e-15
3.27398
-1.6237e-15
3.27398
-1.6237e-15
3.27398
-1.70697e-15
3.27398
-1.54043e-15
3.27398
-1.29063e-15
3.27398
-1.1241e-15
3.27398
-1.11022e-15
3.27398
-1.17961e-15
3.27398
-1.19349e-15
3.27398
-1.27676e-15
3.27398
-1.31839e-15
3.27398
-1.31839e-15
3.27398
-1.29063e-15
3.27398
-1.29063e-15
3.27398
-1.29063e-15
3.27398
-1.13798e-15
3.27398
-9.71445e-16
3.27398
-8.46545e-16
3.27398
-7.63278e-16
3.27398
-6.80012e-16
3.27398
-5.96745e-16
3.27398
-7.21645e-16
3.27398
-9.71445e-16
3.27398
-1.16573e-15
3.27398
-1.27676e-15
3.27398
-1.42941e-15
3.27398
-1.67921e-15
3.27398
-1.76248e-15
3.27398
-1.73472e-15
3.27398
-1.84575e-15
3.27398
-1.77636e-15
3.27398
-1.56819e-15
3.27398
-1.36002e-15
3.27398
-1.27676e-15
3.27398
-1.3739e-15
3.27398
-1.42941e-15
3.27398
-1.44329e-15
3.27398
-1.66533e-15
3.27398
-1.98452e-15
3.27398
-2.16493e-15
3.27398
-2.27596e-15
3.27398
-2.35922e-15
3.27398
-2.31759e-15
3.27398
-2.28983e-15
3.27398
-2.31759e-15
3.27398
-2.42861e-15
3.27398
-2.55351e-15
3.27398
-2.58127e-15
3.27398
-2.498e-15
3.27398
-2.2482e-15
3.27398
-2.01228e-15
3.27398
-2.04003e-15
3.27398
-2.2482e-15
3.27398
-2.44249e-15
3.27398
-2.52576e-15
3.27398
-2.58127e-15
3.27398
-2.58127e-15
3.27398
-2.55351e-15
3.27398
-2.45637e-15
3.27398
-2.38698e-15
3.27398
-2.23432e-15
3.27398
-2.01228e-15
3.27398
-1.73472e-15
3.27398
-1.55431e-15
3.27398
-1.3739e-15
3.27398
-1.27676e-15
3.27398
-1.19349e-15
3.27398
-9.99201e-16
3.27398
-7.63278e-16
3.27398
-4.996e-16
3.27398
-2.35922e-16
3.27398
8.32667e-17
3.27398
4.30211e-16
3.27398
7.21645e-16
3.27398
9.85323e-16
3.27398
1.15186e-15
3.27398
1.16573e-15
3.27398
1.15186e-15
3.27398
1.16573e-15
3.27398
1.31839e-15
3.27398
1.34615e-15
3.27398
1.02696e-15
3.27398
6.245e-16
3.27398
3.747e-16
3.27398
2.22045e-16
3.27398
2.35922e-16
3.27398
2.63678e-16
3.27398
1.249e-16
3.27398
-8.32667e-17
3.27398
-2.35922e-16
3.27398
-5.55112e-16
3.27398
-9.4369e-16
3.27398
-1.26288e-15
3.27398
-1.47105e-15
3.27398
-1.51268e-15
3.27398
-1.56819e-15
3.27398
-1.52656e-15
3.27398
-1.52656e-15
3.27398
-1.63758e-15
3.27398
-1.54043e-15
3.27398
-1.29063e-15
3.27398
-1.17961e-15
3.27398
-1.26288e-15
3.27398
-1.31839e-15
3.27398
-1.15186e-15
3.27398
-9.99201e-16
3.27398
-9.85323e-16
3.27398
-9.4369e-16
3.27398
-8.74301e-16
3.27398
-9.57567e-16
3.27398
-1.19349e-15
3.27398
-1.31839e-15
3.27398
-1.23512e-15
3.27398
-1.06859e-15
3.27398
-9.4369e-16
3.27398
-8.88178e-16
3.27398
-7.07767e-16
3.27398
-6.245e-16
3.27398
-5.41234e-16
3.27398
-4.02456e-16
3.27398
-2.91434e-16
3.27398
-2.63678e-16
3.27398
-1.94289e-16
3.27398
-1.66533e-16
3.27398
-2.08167e-16
3.27398
-3.60822e-16
3.27398
-4.85723e-16
3.27398
-4.44089e-16
3.27398
-3.33067e-16
3.27398
-2.63678e-16
3.27398
-1.52656e-16
3.27398
-4.16334e-17
3.27398
2.77556e-16
3.27398
4.85723e-16
3.27398
5.96745e-16
3.27398
7.07767e-16
3.27398
7.91034e-16
3.27398
7.07767e-16
3.27398
5.27356e-16
3.27398
2.91434e-16
3.27398
2.35922e-16
3.27398
2.35922e-16
3.27398
2.63678e-16
3.27398
4.02456e-16
3.27398
6.245e-16
3.27398
9.99201e-16
3.27398
1.16573e-15
3.27398
1.15186e-15
3.27398
1.02696e-15
3.27398
7.77156e-16
3.27398
3.747e-16
3.27398
-1.38778e-17
3.27398
-2.77556e-16
3.27398
-4.30211e-16
3.27398
-5.82867e-16
3.27398
-5.41234e-16
3.27398
-3.33067e-16
3.27398
-8.32667e-17
3.27398
-9.78533e-31
3.27398
6.93889e-17
3.27398
1.94289e-16
3.27398
3.05311e-16
3.27398
4.30211e-16
3.27398
4.996e-16
3.27398
5.27356e-16
3.27398
6.52256e-16
3.27398
7.77156e-16
3.27398
1.11022e-15
3.27398
1.41553e-15
3.27398
1.88738e-15
3.27398
2.72005e-15
3.27398
4.2466e-15
3.27398
6.91114e-15
3.27398
1.16018e-14
3.27398
1.95399e-14
3.27398
3.27655e-14
3.27398
5.44148e-14
3.27398
9.03722e-14
3.27398
1.50185e-13
3.27398
2.49509e-13
3.27398
4.14141e-13
3.27398
6.86798e-13
3.27398
1.13798e-12
3.27398
1.88403e-12
3.27398
3.11709e-12
3.27398
5.15461e-12
3.27398
8.52039e-12
3.27398
1.40781e-11
3.27398
2.32515e-11
3.27398
3.83875e-11
3.27398
6.33537e-11
3.27398
1.04519e-10
3.27398
1.72373e-10
3.27398
2.84176e-10
3.27398
4.68336e-10
3.27398
7.71575e-10
3.27398
1.27073e-09
3.27398
2.09208e-09
3.27398
3.44315e-09
3.27398
5.66477e-09
3.27398
9.31654e-09
3.27398
1.53168e-08
3.27398
2.51722e-08
3.27398
4.13527e-08
3.27398
6.79067e-08
3.27398
1.11464e-07
3.27398
1.82881e-07
3.27398
2.99912e-07
3.27398
4.91592e-07
3.27398
8.0535e-07
3.27398
1.31862e-06
3.27398
2.15771e-06
3.27398
3.52846e-06
3.27398
5.76603e-06
3.27398
9.41557e-06
3.27399
1.53628e-05
3.27399
2.50452e-05
3.27401
4.07928e-05
3.27403
6.63778e-05
3.27406
0.0001079
3.27412
0.00017521
3.27422
0.000284202
3.27439
0.000460501
3.27469
0.000745433
3.2752
0.00120561
3.27607
0.00194897
3.27758
0.00314982
3.28018
0.00509608
3.28469
0.008248
0.0134207
3.29257
3.27398
9.71445e-17
3.27398
9.71445e-17
3.27398
1.66533e-16
3.27398
1.38778e-16
3.27398
1.52656e-16
3.27398
1.66533e-16
3.27398
3.05311e-16
3.27398
4.02456e-16
3.27398
4.02456e-16
3.27398
2.91434e-16
3.27398
2.498e-16
3.27398
2.498e-16
3.27398
3.46945e-16
3.27398
5.55112e-16
3.27398
6.93889e-16
3.27398
7.77156e-16
3.27398
8.74301e-16
3.27398
8.74301e-16
3.27398
8.18789e-16
3.27398
6.245e-16
3.27398
4.44089e-16
3.27398
2.91434e-16
3.27398
4.16334e-17
3.27398
-2.77556e-17
3.27398
1.80411e-16
3.27398
2.91434e-16
3.27398
1.11022e-16
3.27398
-5.55112e-17
3.27398
-1.66533e-16
3.27398
-1.94289e-16
3.27398
-3.747e-16
3.27398
-5.96745e-16
3.27398
-7.49401e-16
3.27398
-9.15934e-16
3.27398
-1.06859e-15
3.27398
-1.22125e-15
3.27398
-1.19349e-15
3.27398
-1.05471e-15
3.27398
-1.02696e-15
3.27398
-1.15186e-15
3.27398
-1.23512e-15
3.27398
-1.26288e-15
3.27398
-1.16573e-15
3.27398
-1.09635e-15
3.27398
-9.4369e-16
3.27398
-9.29812e-16
3.27398
-9.85323e-16
3.27398
-8.60423e-16
3.27398
-8.32667e-16
3.27398
-8.60423e-16
3.27398
-1.13798e-15
3.27398
-1.36002e-15
3.27398
-1.30451e-15
3.27398
-1.04083e-15
3.27398
-7.63278e-16
3.27398
-6.66134e-16
3.27398
-6.66134e-16
3.27398
-6.80012e-16
3.27398
-7.35523e-16
3.27398
-7.91034e-16
3.27398
-9.57567e-16
3.27398
-1.22125e-15
3.27398
-1.40166e-15
3.27398
-1.52656e-15
3.27398
-1.52656e-15
3.27398
-1.48492e-15
3.27398
-1.4988e-15
3.27398
-1.52656e-15
3.27398
-1.55431e-15
3.27398
-1.48492e-15
3.27398
-1.52656e-15
3.27398
-1.76248e-15
3.27398
-1.88738e-15
3.27398
-1.81799e-15
3.27398
-1.67921e-15
3.27398
-1.45717e-15
3.27398
-1.20737e-15
3.27398
-1.08247e-15
3.27398
-1.23512e-15
3.27398
-1.45717e-15
3.27398
-1.59595e-15
3.27398
-1.6237e-15
3.27398
-1.4988e-15
3.27398
-1.45717e-15
3.27398
-1.56819e-15
3.27398
-1.76248e-15
3.27398
-1.81799e-15
3.27398
-1.69309e-15
3.27398
-1.55431e-15
3.27398
-1.54043e-15
3.27398
-1.72085e-15
3.27398
-1.97065e-15
3.27398
-2.06779e-15
3.27398
-2.13718e-15
3.27398
-2.1233e-15
3.27398
-2.06779e-15
3.27398
-1.94289e-15
3.27398
-1.79023e-15
3.27398
-1.56819e-15
3.27398
-1.30451e-15
3.27398
-1.17961e-15
3.27398
-1.02696e-15
3.27398
-9.71445e-16
3.27398
-1.04083e-15
3.27398
-9.85323e-16
3.27398
-9.99201e-16
3.27398
-9.99201e-16
3.27398
-1.01308e-15
3.27398
-1.1241e-15
3.27398
-1.44329e-15
3.27398
-1.6237e-15
3.27398
-1.72085e-15
3.27398
-1.76248e-15
3.27398
-1.8735e-15
3.27398
-2.22045e-15
3.27398
-2.40086e-15
3.27398
-2.30371e-15
3.27398
-2.19269e-15
3.27398
-1.98452e-15
3.27398
-1.84575e-15
3.27398
-1.73472e-15
3.27398
-1.77636e-15
3.27398
-1.95677e-15
3.27398
-1.90126e-15
3.27398
-1.91513e-15
3.27398
-1.95677e-15
3.27398
-1.81799e-15
3.27398
-1.7486e-15
3.27398
-1.77636e-15
3.27398
-1.83187e-15
3.27398
-1.81799e-15
3.27398
-1.63758e-15
3.27398
-1.34615e-15
3.27398
-1.23512e-15
3.27398
-1.13798e-15
3.27398
-1.16573e-15
3.27398
-1.3739e-15
3.27398
-1.67921e-15
3.27398
-1.91513e-15
3.27398
-1.85962e-15
3.27398
-1.6237e-15
3.27398
-1.17961e-15
3.27398
-5.82867e-16
3.27398
-6.93889e-17
3.27398
3.46945e-16
3.27398
8.46545e-16
3.27398
1.38778e-15
3.27398
1.60982e-15
3.27398
1.4988e-15
3.27398
1.34615e-15
3.27398
1.36002e-15
3.27398
1.26288e-15
3.27398
1.06859e-15
3.27398
8.46545e-16
3.27398
5.96745e-16
3.27398
2.63678e-16
3.27398
-6.93889e-17
3.27398
-2.91434e-16
3.27398
-5.96745e-16
3.27398
-9.4369e-16
3.27398
-1.05471e-15
3.27398
-1.09635e-15
3.27398
-1.04083e-15
3.27398
-9.85323e-16
3.27398
-8.88178e-16
3.27398
-7.07767e-16
3.27398
-7.21645e-16
3.27398
-9.4369e-16
3.27398
-1.23512e-15
3.27398
-1.51268e-15
3.27398
-1.65146e-15
3.27398
-1.76248e-15
3.27398
-1.84575e-15
3.27398
-1.91513e-15
3.27398
-1.88738e-15
3.27398
-1.72085e-15
3.27398
-1.41553e-15
3.27398
-1.26288e-15
3.27398
-1.06859e-15
3.27398
-8.18789e-16
3.27398
-6.93889e-16
3.27398
-6.52256e-16
3.27398
-6.52256e-16
3.27398
-6.52256e-16
3.27398
-4.996e-16
3.27398
-4.02456e-16
3.27398
-5.27356e-16
3.27398
-7.07767e-16
3.27398
-7.49401e-16
3.27398
-4.85723e-16
3.27398
-2.35922e-16
3.27398
-1.11022e-16
3.27398
-6.93889e-17
3.27398
2.77556e-17
3.27398
1.66533e-16
3.27398
3.33067e-16
3.27398
4.02456e-16
3.27398
2.77556e-16
3.27398
1.249e-16
3.27398
4.16334e-17
3.27398
6.93889e-17
3.27398
1.80411e-16
3.27398
1.66533e-16
3.27398
9.71445e-17
3.27398
-1.11022e-16
3.27398
-2.63678e-16
3.27398
-3.05311e-16
3.27398
-3.88578e-16
3.27398
-6.245e-16
3.27398
-6.52256e-16
3.27398
-5.41234e-16
3.27398
-3.33067e-16
3.27398
-8.32667e-17
3.27398
8.32667e-17
3.27398
2.63678e-16
3.27398
4.85723e-16
3.27398
6.52256e-16
3.27398
6.38378e-16
3.27398