/*--------------------------------*- C++ -*----------------------------------*\
| =========                 |                                                 |
| \\      /  F ield         | OpenFOAM: The Open Source CFD Toolbox           |
|  \\    /   O peration     | Version:  2412                                  |
|   \\  /    A nd           | Website:  www.openfoam.com                      |
|    \\/     M anipulation  |                                                 |
\*---------------------------------------------------------------------------*/
FoamFile
{
    version     2.0;
    format      ascii;
    arch        "LSB;label=32;scalar=64";
    class       surfaceScalarField;
    location    "0.0015";
    object      phi_0;
}
// * * * * * * * * * * * * * * * * * * * * * * * * * * * * * * * * * * * * * //

dimensions      [1 0 -1 0 0 0 0];

oriented        oriented;

internalField   nonuniform List<scalar> 
359100
(
3.27398
1.38778e-17
3.27398
2.77556e-17
3.27398
1.249e-16
3.27398
6.93889e-17
3.27398
-1.38778e-17
3.27398
-1.249e-16
3.27398
-2.63678e-16
3.27398
-3.747e-16
3.27398
-5.13478e-16
3.27398
-5.41234e-16
3.27398
-5.27356e-16
3.27398
-6.52256e-16
3.27398
-8.18789e-16
3.27398
-9.71445e-16
3.27398
-1.19349e-15
3.27398
-1.23512e-15
3.27398
-1.22125e-15
3.27398
-1.33227e-15
3.27398
-1.42941e-15
3.27398
-1.42941e-15
3.27398
-1.48492e-15
3.27398
-1.4988e-15
3.27398
-1.4988e-15
3.27398
-1.4988e-15
3.27398
-1.48492e-15
3.27398
-1.27676e-15
3.27398
-1.01308e-15
3.27398
-8.60423e-16
3.27398
-7.77156e-16
3.27398
-8.32667e-16
3.27398
-8.88178e-16
3.27398
-8.32667e-16
3.27398
-7.77156e-16
3.27398
-7.35523e-16
3.27398
-8.32667e-16
3.27398
-1.01308e-15
3.27398
-1.17961e-15
3.27398
-1.249e-15
3.27398
-1.11022e-15
3.27398
-9.57567e-16
3.27398
-9.29812e-16
3.27398
-8.46545e-16
3.27398
-6.80012e-16
3.27398
-5.13478e-16
3.27398
-3.88578e-16
3.27398
-5.82867e-16
3.27398
-9.15934e-16
3.27398
-1.249e-15
3.27398
-1.55431e-15
3.27398
-1.79023e-15
3.27398
-1.94289e-15
3.27398
-1.91513e-15
3.27398
-1.84575e-15
3.27398
-1.77636e-15
3.27398
-1.84575e-15
3.27398
-2.06779e-15
3.27398
-2.19269e-15
3.27398
-2.19269e-15
3.27398
-2.10942e-15
3.27398
-2.08167e-15
3.27398
-2.08167e-15
3.27398
-2.1233e-15
3.27398
-2.20657e-15
3.27398
-2.13718e-15
3.27398
-1.88738e-15
3.27398
-1.73472e-15
3.27398
-1.65146e-15
3.27398
-1.63758e-15
3.27398
-1.76248e-15
3.27398
-1.81799e-15
3.27398
-1.81799e-15
3.27398
-1.9984e-15
3.27398
-2.28983e-15
3.27398
-2.33147e-15
3.27398
-2.3731e-15
3.27398
-2.40086e-15
3.27398
-2.28983e-15
3.27398
-2.17881e-15
3.27398
-2.16493e-15
3.27398
-2.06779e-15
3.27398
-1.94289e-15
3.27398
-1.72085e-15
3.27398
-1.45717e-15
3.27398
-1.20737e-15
3.27398
-1.1241e-15
3.27398
-1.23512e-15
3.27398
-1.52656e-15
3.27398
-1.88738e-15
3.27398
-1.92901e-15
3.27398
-1.83187e-15
3.27398
-1.69309e-15
3.27398
-1.66533e-15
3.27398
-1.55431e-15
3.27398
-1.56819e-15
3.27398
-1.7486e-15
3.27398
-1.94289e-15
3.27398
-2.13718e-15
3.27398
-2.2482e-15
3.27398
-2.44249e-15
3.27398
-2.73392e-15
3.27398
-2.98372e-15
3.27398
-2.96985e-15
3.27398
-2.69229e-15
3.27398
-2.34535e-15
3.27398
-2.04003e-15
3.27398
-1.84575e-15
3.27398
-1.72085e-15
3.27398
-1.59595e-15
3.27398
-1.30451e-15
3.27398
-9.85323e-16
3.27398
-7.21645e-16
3.27398
-6.10623e-16
3.27398
-5.41234e-16
3.27398
-5.27356e-16
3.27398
-6.245e-16
3.27398
-7.07767e-16
3.27398
-6.66134e-16
3.27398
-6.80012e-16
3.27398
-8.32667e-16
3.27398
-1.15186e-15
3.27398
-1.36002e-15
3.27398
-1.34615e-15
3.27398
-1.31839e-15
3.27398
-1.23512e-15
3.27398
-1.26288e-15
3.27398
-1.13798e-15
3.27398
-7.77156e-16
3.27398
-4.996e-16
3.27398
-3.88578e-16
3.27398
-3.747e-16
3.27398
-4.44089e-16
3.27398
-5.27356e-16
3.27398
-5.41234e-16
3.27398
-5.82867e-16
3.27398
-8.46545e-16
3.27398
-1.13798e-15
3.27398
-1.34615e-15
3.27398
-1.58207e-15
3.27398
-1.92901e-15
3.27398
-2.17881e-15
3.27398
-2.2482e-15
3.27398
-1.9984e-15
3.27398
-1.66533e-15
3.27398
-1.45717e-15
3.27398
-1.3739e-15
3.27398
-1.33227e-15
3.27398
-1.30451e-15
3.27398
-1.17961e-15
3.27398
-1.11022e-15
3.27398
-1.11022e-15
3.27398
-1.06859e-15
3.27398
-9.85323e-16
3.27398
-1.05471e-15
3.27398
-1.11022e-15
3.27398
-1.1241e-15
3.27398
-1.1241e-15
3.27398
-9.57567e-16
3.27398
-7.91034e-16
3.27398
-7.07767e-16
3.27398
-6.52256e-16
3.27398
-5.13478e-16
3.27398
-5.55112e-16
3.27398
-7.35523e-16
3.27398
-8.88178e-16
3.27398
-9.71445e-16
3.27398
-9.15934e-16
3.27398
-9.85323e-16
3.27398
-1.05471e-15
3.27398
-9.57567e-16
3.27398
-9.15934e-16
3.27398
-9.15934e-16
3.27398
-9.02056e-16
3.27398
-6.66134e-16
3.27398
-2.22045e-16
3.27398
3.05311e-16
3.27398
5.96745e-16
3.27398
6.93889e-16
3.27398
8.04912e-16
3.27398
9.57567e-16
3.27398
1.23512e-15
3.27398
1.60982e-15
3.27398
1.65146e-15
3.27398
1.249e-15
3.27398
8.32667e-16
3.27398
4.85723e-16
3.27398
4.16334e-16
3.27398
5.27356e-16
3.27398
7.35523e-16
3.27398
6.38378e-16
3.27398
3.33067e-16
3.27398
2.77556e-17
3.27398
-2.498e-16
3.27398
-5.68989e-16
3.27398
-8.32667e-16
3.27398
-8.32667e-16
3.27398
-6.93889e-16
3.27398
-6.66134e-16
3.27398
-7.07767e-16
3.27398
-5.96745e-16
3.27398
-4.30211e-16
3.27398
-3.46945e-16
3.27398
-4.44089e-16
3.27398
-4.16334e-16
3.27398
-3.60822e-16
3.27398
-5.55112e-17
3.27398
3.88578e-16
3.27398
7.21645e-16
3.27398
1.06859e-15
3.27398
1.22125e-15
3.27398
1.13798e-15
3.27398
8.46545e-16
3.27398
4.16334e-16
3.27398
1.38778e-16
3.27398
8.32667e-17
3.27398
-1.14162e-30
3.27398
-6.93889e-17
3.27398
-1.11022e-16
3.27398
-9.71445e-17
3.27398
1.11022e-16
3.27398
3.747e-16
3.27398
6.93889e-16
3.27398
8.18789e-16
3.27398
7.77156e-16
3.27398
7.35523e-16
3.27398
6.52256e-16
3.27398
6.10623e-16
3.27398
5.55112e-16
3.27398
2.63678e-16
3.27398
-1.38778e-17
3.27398
-8.32667e-17
3.27398
-2.77556e-17
3.27398
2.498e-16
3.27398
6.38378e-16
3.27398
1.06859e-15
3.27398
1.13798e-15
3.27398
9.02056e-16
3.27398
6.245e-16
3.27398
4.57967e-16
3.27398
4.71845e-16
3.27398
7.63278e-16
3.27398
1.33227e-15
3.27398
2.06779e-15
3.27398
3.28904e-15
3.27398
5.17641e-15
3.27398
8.11851e-15
3.27398
1.33088e-14
3.27398
2.23987e-14
3.27398
3.78031e-14
3.27398
6.39072e-14
3.27398
1.07775e-13
3.27398
1.81147e-13
3.27398
3.03563e-13
3.27398
5.08205e-13
3.27398
8.50597e-13
3.27398
1.42339e-12
3.27398
2.38137e-12
3.27398
3.9843e-12
3.27398
6.66714e-12
3.27398
1.11592e-11
3.27398
1.8683e-11
3.27398
3.1289e-11
3.27398
5.24181e-11
3.27398
8.78499e-11
3.27398
1.47294e-10
3.27398
2.4708e-10
3.27398
4.14681e-10
3.27398
6.96365e-10
3.27398
1.17011e-09
3.27398
1.96745e-09
3.27398
3.31047e-09
3.27398
5.57452e-09
3.27398
9.3946e-09
3.27398
1.58462e-08
3.27398
2.67529e-08
3.27398
4.52105e-08
3.27398
7.64807e-08
3.27398
1.29519e-07
3.27398
2.19588e-07
3.27398
3.72735e-07
3.27398
6.33479e-07
3.27398
1.07803e-06
3.27398
1.83703e-06
3.27397
3.13486e-06
3.27397
5.35746e-06
3.27396
9.16994e-06
3.27394
1.57205e-05
3.27391
2.69958e-05
3.27387
4.64396e-05
3.27379
8.00382e-05
3.27365
0.000138224
3.27341
0.000239255
3.27299
0.000415199
3.27226
0.000722874
3.27099
0.00126347
3.26876
0.00222101
3.26481
0.0039319
3.25775
0.00704324
3.24493
0.0127813
3.22113
0.0237531
0.0447818
3.17627
3.27398
8.32667e-17
3.27398
1.11022e-16
3.27398
5.55112e-17
3.27398
6.93889e-17
3.27398
1.38778e-17
3.27398
-2.77556e-17
3.27398
-3.05792e-32
3.27398
-4.16334e-17
3.27398
4.16334e-17
3.27398
5.55112e-17
3.27398
-1.38778e-17
3.27398
-1.52656e-16
3.27398
-3.60822e-16
3.27398
-5.82867e-16
3.27398
-8.18789e-16
3.27398
-9.71445e-16
3.27398
-1.05471e-15
3.27398
-1.15186e-15
3.27398
-1.19349e-15
3.27398
-1.15186e-15
3.27398
-1.08247e-15
3.27398
-1.04083e-15
3.27398
-1.05471e-15
3.27398
-1.16573e-15
3.27398
-1.19349e-15
3.27398
-1.09635e-15
3.27398
-9.02056e-16
3.27398
-8.18789e-16
3.27398
-8.88178e-16
3.27398
-9.71445e-16
3.27398
-1.08247e-15
3.27398
-1.15186e-15
3.27398
-1.09635e-15
3.27398
-9.71445e-16
3.27398
-8.46545e-16
3.27398
-9.29812e-16
3.27398
-1.11022e-15
3.27398
-1.1241e-15
3.27398
-1.09635e-15
3.27398
-1.1241e-15
3.27398
-9.99201e-16
3.27398
-9.02056e-16
3.27398
-9.99201e-16
3.27398
-1.06859e-15
3.27398
-1.20737e-15
3.27398
-1.249e-15
3.27398
-1.27676e-15
3.27398
-1.38778e-15
3.27398
-1.47105e-15
3.27398
-1.36002e-15
3.27398
-1.29063e-15
3.27398
-1.38778e-15
3.27398
-1.47105e-15
3.27398
-1.47105e-15
3.27398
-1.4988e-15
3.27398
-1.54043e-15
3.27398
-1.54043e-15
3.27398
-1.44329e-15
3.27398
-1.34615e-15
3.27398
-1.42941e-15
3.27398
-1.4988e-15
3.27398
-1.54043e-15
3.27398
-1.54043e-15
3.27398
-1.4988e-15
3.27398
-1.41553e-15
3.27398
-1.44329e-15
3.27398
-1.60982e-15
3.27398
-1.81799e-15
3.27398
-1.97065e-15
3.27398
-2.13718e-15
3.27398
-2.22045e-15
3.27398
-2.31759e-15
3.27398
-2.33147e-15
3.27398
-2.30371e-15
3.27398
-2.16493e-15
3.27398
-1.98452e-15
3.27398
-1.67921e-15
3.27398
-1.38778e-15
3.27398
-1.30451e-15
3.27398
-1.41553e-15
3.27398
-1.55431e-15
3.27398
-1.51268e-15
3.27398
-1.27676e-15
3.27398
-1.06859e-15
3.27398
-1.04083e-15
3.27398
-1.29063e-15
3.27398
-1.77636e-15
3.27398
-2.2482e-15
3.27398
-2.498e-15
3.27398
-2.59515e-15
3.27398
-2.58127e-15
3.27398
-2.45637e-15
3.27398
-2.47025e-15
3.27398
-2.41474e-15
3.27398
-2.41474e-15
3.27398
-2.35922e-15
3.27398
-2.2482e-15
3.27398
-2.19269e-15
3.27398
-2.13718e-15
3.27398
-2.22045e-15
3.27398
-2.3731e-15
3.27398
-2.41474e-15
3.27398
-2.44249e-15
3.27398
-2.498e-15
3.27398
-2.51188e-15
3.27398
-2.42861e-15
3.27398
-2.22045e-15
3.27398
-1.90126e-15
3.27398
-1.58207e-15
3.27398
-1.42941e-15
3.27398
-1.13798e-15
3.27398
-8.46545e-16
3.27398
-8.74301e-16
3.27398
-1.06859e-15
3.27398
-1.16573e-15
3.27398
-1.23512e-15
3.27398
-1.16573e-15
3.27398
-1.06859e-15
3.27398
-9.99201e-16
3.27398
-1.04083e-15
3.27398
-1.11022e-15
3.27398
-1.1241e-15
3.27398
-1.1241e-15
3.27398
-1.30451e-15
3.27398
-1.47105e-15
3.27398
-1.52656e-15
3.27398
-1.36002e-15
3.27398
-1.01308e-15
3.27398
-7.35523e-16
3.27398
-6.52256e-16
3.27398
-8.04912e-16
3.27398
-9.4369e-16
3.27398
-9.15934e-16
3.27398
-9.71445e-16
3.27398
-1.11022e-15
3.27398
-1.42941e-15
3.27398
-1.70697e-15
3.27398
-1.79023e-15
3.27398
-1.72085e-15
3.27398
-1.67921e-15
3.27398
-1.66533e-15
3.27398
-1.76248e-15
3.27398
-1.7486e-15
3.27398
-1.72085e-15
3.27398
-1.4988e-15
3.27398
-1.27676e-15
3.27398
-1.09635e-15
3.27398
-9.29812e-16
3.27398
-7.07767e-16
3.27398
-6.80012e-16
3.27398
-6.66134e-16
3.27398
-4.30211e-16
3.27398
-2.498e-16
3.27398
-3.05311e-16
3.27398
-4.996e-16
3.27398
-6.10623e-16
3.27398
-6.66134e-16
3.27398
-8.04912e-16
3.27398
-7.91034e-16
3.27398
-3.747e-16
3.27398
-5.55112e-17
3.27398
-5.55112e-17
3.27398
-2.91434e-16
3.27398
-5.82867e-16
3.27398
-7.63278e-16
3.27398
-9.29812e-16
3.27398
-9.4369e-16
3.27398
-8.18789e-16
3.27398
-6.52256e-16
3.27398
-4.02456e-16
3.27398
-2.35922e-16
3.27398
-8.32667e-17
3.27398
-6.93889e-17
3.27398
-2.22045e-16
3.27398
-3.19189e-16
3.27398
-5.82867e-16
3.27398
-6.38378e-16
3.27398
-4.996e-16
3.27398
-3.05311e-16
3.27398
-1.249e-16
3.27398
-1.94289e-16
3.27398
-3.19189e-16
3.27398
-2.77556e-16
3.27398
-1.80411e-16
3.27398
-4.16334e-17
3.27398
4.16334e-17
3.27398
1.80411e-16
3.27398
2.498e-16
3.27398
3.19189e-16
3.27398
4.02456e-16
3.27398
2.77556e-16
3.27398
-8.32667e-17
3.27398
-5.13478e-16
3.27398
-7.21645e-16
3.27398
-8.04912e-16
3.27398
-9.02056e-16
3.27398
-9.02056e-16
3.27398
-8.46545e-16
3.27398
-8.18789e-16
3.27398
-6.80012e-16
3.27398
-5.41234e-16
3.27398
-4.30211e-16
3.27398
-2.91434e-16
3.27398
4.16334e-17
3.27398
4.71845e-16
3.27398
9.4369e-16
3.27398
1.33227e-15
3.27398
1.67921e-15
3.27398
1.81799e-15
3.27398
1.66533e-15
3.27398
1.51268e-15
3.27398
1.31839e-15
3.27398
1.16573e-15
3.27398
8.74301e-16
3.27398
4.85723e-16
3.27398
1.249e-16
3.27398
-9.71445e-17
3.27398
-1.249e-16
3.27398
-1.38778e-17
3.27398
2.91434e-16
3.27398
6.245e-16
3.27398
8.32667e-16
3.27398
9.71445e-16
3.27398
1.05471e-15
3.27398
1.17961e-15
3.27398
1.20737e-15
3.27398
1.13798e-15
3.27398
1.06859e-15
3.27398
8.74301e-16
3.27398
6.80012e-16
3.27398
4.57967e-16
3.27398
2.77556e-16
3.27398
1.66533e-16
3.27398
5.55112e-17
3.27398
-1.52656e-16
3.27398
-4.16334e-16
3.27398
-6.245e-16
3.27398
-6.245e-16
3.27398
-1.249e-16
3.27398
7.63278e-16
3.27398
1.79023e-15
3.27398
3.41394e-15
3.27398
5.80092e-15
3.27398
9.32587e-15
3.27398
1.50019e-14
3.27398
2.4647e-14
3.27398
4.10227e-14
3.27398
6.86395e-14
3.27398
1.1495e-13
3.27398
1.92138e-13
3.27398
3.20938e-13
3.27398
5.35877e-13
3.27398
8.94243e-13
3.27398
1.49165e-12
3.27398
2.48797e-12
3.27398
4.149e-12
3.27398
6.91795e-12
3.27398
1.15346e-11
3.27398
1.92319e-11
3.27398
3.20663e-11
3.27398
5.34687e-11
3.27398
8.9162e-11
3.27398
1.48697e-10
3.27398
2.48015e-10
3.27398
4.13728e-10
3.27398
6.90277e-10
3.27398
1.1519e-09
3.27398
1.92263e-09
3.27398
3.20981e-09
3.27398
5.36006e-09
3.27398
8.95317e-09
3.27398
1.49592e-08
3.27398
2.50018e-08
3.27398
4.17994e-08
3.27398
6.99057e-08
3.27398
1.1695e-07
3.27398
1.95724e-07
3.27398
3.27672e-07
3.27398
5.48775e-07
3.27398
9.19405e-07
3.27398
1.54092e-06
3.27398
2.58352e-06
3.27398
4.33313e-06
3.27397
7.27022e-06
3.27397
1.22025e-05
3.27397
2.0488e-05
3.27396
3.44114e-05
3.27395
5.78173e-05
3.27393
9.71795e-05
3.2739
0.000163407
3.27387
0.000274907
3.27382
0.000462794
3.27376
0.000779816
3.2737
0.00131585
3.27369
0.00222498
3.27383
0.00377474
3.27442
0.00643355
3.27612
0.0110459
3.28072
0.0191003
0.0334462
3.29199
3.27398
-1.11022e-16
3.27398
-1.80411e-16
3.27398
-1.94289e-16
3.27398
-1.249e-16
3.27398
-8.32667e-17
3.27398
-6.93889e-17
3.27398
-1.11022e-16
3.27398
-1.80411e-16
3.27398
-2.63678e-16
3.27398
-3.05311e-16
3.27398
-4.16334e-16
3.27398
-4.16334e-16
3.27398
-3.747e-16
3.27398
-3.60822e-16
3.27398
-3.46945e-16
3.27398
-4.16334e-16
3.27398
-6.10623e-16
3.27398
-7.21645e-16
3.27398
-7.21645e-16
3.27398
-8.04912e-16
3.27398
-7.63278e-16
3.27398
-5.27356e-16
3.27398
-4.44089e-16
3.27398
-6.10623e-16
3.27398
-8.60423e-16
3.27398
-1.02696e-15
3.27398
-1.04083e-15
3.27398
-1.09635e-15
3.27398
-1.16573e-15
3.27398
-1.17961e-15
3.27398
-1.15186e-15
3.27398
-1.22125e-15
3.27398
-1.249e-15
3.27398
-1.249e-15
3.27398
-1.06859e-15
3.27398
-9.4369e-16
3.27398
-9.4369e-16
3.27398
-1.22125e-15
3.27398
-1.34615e-15
3.27398
-1.27676e-15
3.27398
-1.249e-15
3.27398
-1.33227e-15
3.27398
-1.41553e-15
3.27398
-1.48492e-15
3.27398
-1.45717e-15
3.27398
-1.40166e-15
3.27398
-1.26288e-15
3.27398
-1.01308e-15
3.27398
-7.07767e-16
3.27398
-4.996e-16
3.27398
-4.71845e-16
3.27398
-5.13478e-16
3.27398
-6.93889e-16
3.27398
-9.29812e-16
3.27398
-1.08247e-15
3.27398
-1.06859e-15
3.27398
-9.57567e-16
3.27398
-9.02056e-16
3.27398
-9.02056e-16
3.27398
-9.02056e-16
3.27398
-9.02056e-16
3.27398
-8.88178e-16
3.27398
-9.02056e-16
3.27398
-1.13798e-15
3.27398
-1.47105e-15
3.27398
-1.63758e-15
3.27398
-1.7486e-15
3.27398
-1.95677e-15
3.27398
-2.23432e-15
3.27398
-2.38698e-15
3.27398
-2.45637e-15
3.27398
-2.498e-15
3.27398
-2.52576e-15
3.27398
-2.33147e-15
3.27398
-2.09555e-15
3.27398
-1.77636e-15
3.27398
-1.34615e-15
3.27398
-1.08247e-15
3.27398
-1.04083e-15
3.27398
-1.13798e-15
3.27398
-1.23512e-15
3.27398
-1.36002e-15
3.27398
-1.4988e-15
3.27398
-1.54043e-15
3.27398
-1.38778e-15
3.27398
-1.13798e-15
3.27398
-1.02696e-15
3.27398
-1.01308e-15
3.27398
-1.06859e-15
3.27398
-1.1241e-15
3.27398
-1.29063e-15
3.27398
-1.45717e-15
3.27398
-1.72085e-15
3.27398
-1.97065e-15
3.27398
-2.01228e-15
3.27398
-1.98452e-15
3.27398
-1.8735e-15
3.27398
-1.84575e-15
3.27398
-1.97065e-15
3.27398
-2.08167e-15
3.27398
-2.10942e-15
3.27398
-2.1233e-15
3.27398
-2.10942e-15
3.27398
-2.01228e-15
3.27398
-1.94289e-15
3.27398
-1.98452e-15
3.27398
-2.04003e-15
3.27398
-1.97065e-15
3.27398
-1.88738e-15
3.27398
-1.73472e-15
3.27398
-1.66533e-15
3.27398
-1.60982e-15
3.27398
-1.59595e-15
3.27398
-1.59595e-15
3.27398
-1.65146e-15
3.27398
-1.79023e-15
3.27398
-2.13718e-15
3.27398
-2.34535e-15
3.27398
-2.22045e-15
3.27398
-2.01228e-15
3.27398
-1.84575e-15
3.27398
-1.66533e-15
3.27398
-1.54043e-15
3.27398
-1.36002e-15
3.27398
-1.30451e-15
3.27398
-1.4988e-15
3.27398
-1.7486e-15
3.27398
-1.81799e-15
3.27398
-1.66533e-15
3.27398
-1.41553e-15
3.27398
-1.33227e-15
3.27398
-1.41553e-15
3.27398
-1.59595e-15
3.27398
-1.58207e-15
3.27398
-1.41553e-15
3.27398
-1.19349e-15
3.27398
-9.99201e-16
3.27398
-7.07767e-16
3.27398
-2.22045e-16
3.27398
1.63089e-31
3.27398
-1.11022e-16
3.27398
-3.747e-16
3.27398
-5.96745e-16
3.27398
-6.93889e-16
3.27398
-8.18789e-16
3.27398
-8.74301e-16
3.27398
-7.63278e-16
3.27398
-5.13478e-16
3.27398
-4.30211e-16
3.27398
-4.71845e-16
3.27398
-4.30211e-16
3.27398
-3.46945e-16
3.27398
-3.60822e-16
3.27398
-4.16334e-16
3.27398
-2.77556e-16
3.27398
-1.80411e-16
3.27398
-2.498e-16
3.27398
-3.46945e-16
3.27398
-2.63678e-16
3.27398
-1.66533e-16
3.27398
-1.94289e-16
3.27398
-4.996e-16
3.27398
-7.77156e-16
3.27398
-1.11022e-15
3.27398
-1.38778e-15
3.27398
-1.42941e-15
3.27398
-1.34615e-15
3.27398
-1.15186e-15
3.27398
-8.88178e-16
3.27398
-6.38378e-16
3.27398
-4.71845e-16
3.27398
-3.88578e-16
3.27398
-4.44089e-16
3.27398
-5.55112e-16
3.27398
-7.63278e-16
3.27398
-9.15934e-16
3.27398
-9.71445e-16
3.27398
-1.04083e-15
3.27398
-1.06859e-15
3.27398
-1.13798e-15
3.27398
-1.1241e-15
3.27398
-9.71445e-16
3.27398
-7.21645e-16
3.27398
-4.85723e-16
3.27398
-1.80411e-16
3.27398
2.35922e-16
3.27398
3.33067e-16
3.27398
3.33067e-16
3.27398
2.91434e-16
3.27398
1.52656e-16
3.27398
6.93889e-17
3.27398
-4.16334e-17
3.27398
-1.66533e-16
3.27398
-4.02456e-16
3.27398
-6.66134e-16
3.27398
-8.46545e-16
3.27398
-9.15934e-16
3.27398
-8.46545e-16
3.27398
-8.60423e-16
3.27398
-9.02056e-16
3.27398
-7.63278e-16
3.27398
-4.85723e-16
3.27398
-2.22045e-16
3.27398
8.32667e-17
3.27398
4.30211e-16
3.27398
6.80012e-16
3.27398
9.29812e-16
3.27398
1.08247e-15
3.27398
1.11022e-15
3.27398
9.15934e-16
3.27398
6.66134e-16
3.27398
5.68989e-16
3.27398
6.38378e-16
3.27398
8.60423e-16
3.27398
8.18789e-16
3.27398
6.80012e-16
3.27398
6.38378e-16
3.27398
6.10623e-16
3.27398
6.66134e-16
3.27398
7.21645e-16
3.27398
7.77156e-16
3.27398
8.74301e-16
3.27398
9.85323e-16
3.27398
9.02056e-16
3.27398
6.66134e-16
3.27398
4.30211e-16
3.27398
2.498e-16
3.27398
2.08167e-16
3.27398
3.88578e-16
3.27398
5.68989e-16
3.27398
5.27356e-16
3.27398
3.05311e-16
3.27398
1.38778e-17
3.27398
-1.52656e-16
3.27398
-1.249e-16
3.27398
-2.77556e-17
3.27398
2.35922e-16
3.27398
5.68989e-16
3.27398
8.74301e-16
3.27398
1.47105e-15
3.27398
2.59515e-15
3.27398
4.35763e-15
3.27398
7.07767e-15
3.27398
1.14214e-14
3.27398
1.86379e-14
3.27398
3.08642e-14
3.27398
5.13201e-14
3.27398
8.55427e-14
3.27398
1.42775e-13
3.27398
2.38226e-13
3.27398
3.97127e-13
3.27398
6.61152e-13
3.27398
1.09962e-12
3.27398
1.82791e-12
3.27398
3.03753e-12
3.27398
5.04553e-12
3.27398
8.37849e-12
3.27398
1.39094e-11
3.27398
2.30868e-11
3.27398
3.8312e-11
3.27398
6.3567e-11
3.27398
1.05452e-10
3.27398
1.74909e-10
3.27398
2.90074e-10
3.27398
4.81007e-10
3.27398
7.97521e-10
3.27398
1.32217e-09
3.27398
2.19174e-09
3.27398
3.63288e-09
3.27398
6.02106e-09
3.27398
9.97834e-09
3.27398
1.6535e-08
3.27398
2.73976e-08
3.27398
4.53921e-08
3.27398
7.51976e-08
3.27398
1.2456e-07
3.27398
2.06301e-07
3.27398
3.41635e-07
3.27398
5.65659e-07
3.27398
9.36416e-07
3.27398
1.54986e-06
3.27398
2.56456e-06
3.27398
4.24244e-06
3.27398
7.01587e-06
3.27398
1.15983e-05
3.27398
1.9166e-05
3.27398
3.16571e-05
3.27399
5.22628e-05
3.274
8.62331e-05
3.27402
0.0001422
3.27406
0.000234345
3.27413
0.00038597
3.27428
0.000635358
3.27454
0.00104553
3.27504
0.00172034
3.27597
0.00283233
3.27772
0.00466814
3.28102
0.0077162
3.28729
0.012784
0.0213468
3.29933
3.27398
1.38778e-17
3.27398
6.93889e-17
3.27398
2.77556e-17
3.27398
2.77556e-17
3.27398
9.71445e-17
3.27398
1.94289e-16
3.27398
2.91434e-16
3.27398
4.30211e-16
3.27398
5.41234e-16
3.27398
5.55112e-16
3.27398
4.16334e-16
3.27398
2.22045e-16
3.27398
2.91434e-16
3.27398
4.57967e-16
3.27398
5.96745e-16
3.27398
6.245e-16
3.27398
5.13478e-16
3.27398
3.46945e-16
3.27398
8.32667e-17
3.27398
-1.52656e-16
3.27398
-4.57967e-16
3.27398
-8.46545e-16
3.27398
-1.01308e-15
3.27398
-1.06859e-15
3.27398
-1.06859e-15
3.27398
-1.1241e-15
3.27398
-1.3739e-15
3.27398
-1.34615e-15
3.27398
-1.19349e-15
3.27398
-1.02696e-15
3.27398
-8.88178e-16
3.27398
-9.57567e-16
3.27398
-1.16573e-15
3.27398
-1.38778e-15
3.27398
-1.51268e-15
3.27398
-1.55431e-15
3.27398
-1.59595e-15
3.27398
-1.60982e-15
3.27398
-1.63758e-15
3.27398
-1.55431e-15
3.27398
-1.40166e-15
3.27398
-1.30451e-15
3.27398
-1.16573e-15
3.27398
-1.05471e-15
3.27398
-1.04083e-15
3.27398
-9.57567e-16
3.27398
-1.06859e-15
3.27398
-1.15186e-15
3.27398
-1.30451e-15
3.27398
-1.29063e-15
3.27398
-1.15186e-15
3.27398
-9.99201e-16
3.27398
-8.74301e-16
3.27398
-9.15934e-16
3.27398
-9.57567e-16
3.27398
-8.32667e-16
3.27398
-6.38378e-16
3.27398
-5.96745e-16
3.27398
-7.35523e-16
3.27398
-8.18789e-16
3.27398
-8.32667e-16
3.27398
-8.74301e-16
3.27398
-1.06859e-15
3.27398
-1.38778e-15
3.27398
-1.6237e-15
3.27398
-1.65146e-15
3.27398
-1.67921e-15
3.27398
-1.76248e-15
3.27398
-1.72085e-15
3.27398
-1.69309e-15
3.27398
-1.65146e-15
3.27398
-1.63758e-15
3.27398
-1.51268e-15
3.27398
-1.22125e-15
3.27398
-1.04083e-15
3.27398
-9.85323e-16
3.27398
-1.05471e-15
3.27398
-1.16573e-15
3.27398
-1.26288e-15
3.27398
-1.3739e-15
3.27398
-1.4988e-15
3.27398
-1.51268e-15
3.27398
-1.45717e-15
3.27398
-1.40166e-15
3.27398
-1.23512e-15
3.27398
-1.01308e-15
3.27398
-7.91034e-16
3.27398
-6.38378e-16
3.27398
-5.68989e-16
3.27398
-4.996e-16
3.27398
-5.68989e-16
3.27398
-8.04912e-16
3.27398
-1.05471e-15
3.27398
-1.22125e-15
3.27398
-1.38778e-15
3.27398
-1.56819e-15
3.27398
-1.7486e-15
3.27398
-1.73472e-15
3.27398
-1.80411e-15
3.27398
-1.80411e-15
3.27398
-1.6237e-15
3.27398
-1.40166e-15
3.27398
-1.3739e-15
3.27398
-1.40166e-15
3.27398
-1.47105e-15
3.27398
-1.44329e-15
3.27398
-1.54043e-15
3.27398
-1.85962e-15
3.27398
-2.06779e-15
3.27398
-2.16493e-15
3.27398
-2.33147e-15
3.27398
-2.38698e-15
3.27398
-2.35922e-15
3.27398
-2.40086e-15
3.27398
-2.44249e-15
3.27398
-2.53964e-15
3.27398
-2.56739e-15
3.27398
-2.498e-15
3.27398
-2.30371e-15
3.27398
-1.97065e-15
3.27398
-1.95677e-15
3.27398
-2.15106e-15
3.27398
-2.30371e-15
3.27398
-2.41474e-15
3.27398
-2.498e-15
3.27398
-2.55351e-15
3.27398
-2.55351e-15
3.27398
-2.51188e-15
3.27398
-2.42861e-15
3.27398
-2.31759e-15
3.27398
-2.10942e-15
3.27398
-1.8735e-15
3.27398
-1.67921e-15
3.27398
-1.54043e-15
3.27398
-1.41553e-15
3.27398
-1.33227e-15
3.27398
-1.20737e-15
3.27398
-9.85323e-16
3.27398
-7.35523e-16
3.27398
-4.44089e-16
3.27398
-1.249e-16
3.27398
2.498e-16
3.27398
5.96745e-16
3.27398
8.88178e-16
3.27398
1.1241e-15
3.27398
1.17961e-15
3.27398
1.20737e-15
3.27398
1.20737e-15
3.27398
1.33227e-15
3.27398
1.44329e-15
3.27398
1.249e-15
3.27398
8.18789e-16
3.27398
4.71845e-16
3.27398
3.05311e-16
3.27398
1.52656e-16
3.27398
1.80411e-16
3.27398
8.32667e-17
3.27398
-6.93889e-17
3.27398
-2.35922e-16
3.27398
-4.85723e-16
3.27398
-9.02056e-16
3.27398
-1.19349e-15
3.27398
-1.31839e-15
3.27398
-1.3739e-15
3.27398
-1.3739e-15
3.27398
-1.34615e-15
3.27398
-1.34615e-15
3.27398
-1.41553e-15
3.27398
-1.42941e-15
3.27398
-1.27676e-15
3.27398
-1.15186e-15
3.27398
-1.19349e-15
3.27398
-1.27676e-15
3.27398
-1.27676e-15
3.27398
-1.09635e-15
3.27398
-1.01308e-15
3.27398
-9.57567e-16
3.27398
-8.60423e-16
3.27398
-9.15934e-16
3.27398
-1.16573e-15
3.27398
-1.36002e-15
3.27398
-1.33227e-15
3.27398
-1.19349e-15
3.27398
-1.05471e-15
3.27398
-9.71445e-16
3.27398
-8.32667e-16
3.27398
-7.49401e-16
3.27398
-6.52256e-16
3.27398
-5.41234e-16
3.27398
-3.33067e-16
3.27398
-2.35922e-16
3.27398
-2.35922e-16
3.27398
-1.80411e-16
3.27398
-1.52656e-16
3.27398
-2.91434e-16
3.27398
-4.16334e-16
3.27398
-4.02456e-16
3.27398
-3.05311e-16
3.27398
-1.94289e-16
3.27398
-1.52656e-16
3.27398
-1.11022e-16
3.27398
1.11022e-16
3.27398
3.05311e-16
3.27398
4.30211e-16
3.27398
4.996e-16
3.27398
6.245e-16
3.27398
6.245e-16
3.27398
4.71845e-16
3.27398
3.33067e-16
3.27398
3.19189e-16
3.27398
3.60822e-16
3.27398
4.16334e-16
3.27398
5.13478e-16
3.27398
5.96745e-16
3.27398
8.60423e-16
3.27398
1.15186e-15
3.27398
1.1241e-15
3.27398
9.85323e-16
3.27398
8.18789e-16
3.27398
4.16334e-16
3.27398
-1.38778e-17
3.27398
-2.35922e-16
3.27398
-3.88578e-16
3.27398
-4.996e-16
3.27398
-5.41234e-16
3.27398
-4.16334e-16
3.27398
-2.22045e-16
3.27398
-1.38778e-16
3.27398
-9.71445e-17
3.27398
-2.77556e-17
3.27398
1.38778e-16
3.27398
3.19189e-16
3.27398
4.85723e-16
3.27398
6.10623e-16
3.27398
6.245e-16
3.27398
7.91034e-16
3.27398
9.29812e-16
3.27398
1.15186e-15
3.27398
1.31839e-15
3.27398
1.70697e-15
3.27398
2.58127e-15
3.27398
4.10783e-15
3.27398
6.84175e-15
3.27398
1.15463e-14
3.27398
1.94428e-14
3.27398
3.23769e-14
3.27398
5.38181e-14
3.27398
8.96228e-14
3.27398
1.49145e-13
3.27398
2.48038e-13
3.27398
4.11907e-13
3.27398
6.83301e-13
3.27398
1.13259e-12
3.27398
1.8754e-12
3.27398
3.10353e-12
3.27398
5.13345e-12
3.27398
8.48724e-12
3.27398
1.4026e-11
3.27398
2.317e-11
3.27398
3.82603e-11
3.27398
6.31553e-11
3.27398
1.0421e-10
3.27398
1.71889e-10
3.27398
2.83421e-10
3.27398
4.67159e-10
3.27398
7.69739e-10
3.27398
1.26787e-09
3.27398
2.08761e-09
3.27398
3.43618e-09
3.27398
5.65389e-09
3.27398
9.29956e-09
3.27398
1.52903e-08
3.27398
2.51308e-08
3.27398
4.1288e-08
3.27398
6.78056e-08
3.27398
1.11306e-07
3.27398
1.82633e-07
3.27398
2.99525e-07
3.27398
4.90986e-07
3.27398
8.04401e-07
3.27398
1.31714e-06
3.27398
2.15538e-06
3.27398
3.52481e-06
3.27398
5.7603e-06
3.27398
9.40657e-06
3.27399
1.53487e-05
3.27399
2.5023e-05
3.27401
4.07579e-05
3.27403
6.6323e-05
3.27406
0.000107814
3.27412
0.000175074
3.27422
0.000283989
3.27439
0.000460164
3.27469
0.000744901
3.2752
0.00120477
3.27607
0.00194763
3.27758
0.0031477
3.28018
0.00509267
3.28469
0.00824249
0.0134117
3.29257
3.27398
8.32667e-17
3.27398
1.11022e-16
3.27398
1.52656e-16
3.27398
9.71445e-17
3.27398
1.249e-16
3.27398
2.35922e-16
3.27398
3.33067e-16
3.27398
3.60822e-16
3.27398
2.77556e-16
3.27398
1.80411e-16
3.27398
2.22045e-16
3.27398
3.60822e-16
3.27398
4.85723e-16
3.27398
6.66134e-16
3.27398
7.77156e-16
3.27398
8.60423e-16
3.27398
9.4369e-16
3.27398
8.32667e-16
3.27398
6.52256e-16
3.27398
4.57967e-16
3.27398
3.46945e-16
3.27398
1.94289e-16
3.27398
2.77556e-17
3.27398
1.38778e-16
3.27398
3.19189e-16
3.27398
2.77556e-16
3.27398
1.52656e-16
3.27398
1.01931e-31
3.27398
-8.32667e-17
3.27398
-1.80411e-16
3.27398
-3.747e-16
3.27398
-5.55112e-16
3.27398
-7.49401e-16
3.27398
-9.71445e-16
3.27398
-1.16573e-15
3.27398
-1.22125e-15
3.27398
-1.11022e-15
3.27398
-1.06859e-15
3.27398
-1.17961e-15
3.27398
-1.29063e-15
3.27398
-1.29063e-15
3.27398
-1.26288e-15
3.27398
-1.16573e-15
3.27398
-1.05471e-15
3.27398
-9.57567e-16
3.27398
-9.99201e-16
3.27398
-9.15934e-16
3.27398
-8.60423e-16
3.27398
-8.74301e-16
3.27398
-1.06859e-15
3.27398
-1.26288e-15
3.27398
-1.31839e-15
3.27398
-1.17961e-15
3.27398
-9.4369e-16
3.27398
-7.63278e-16
3.27398
-6.52256e-16
3.27398
-7.21645e-16
3.27398
-7.91034e-16
3.27398
-8.46545e-16
3.27398
-9.4369e-16
3.27398
-1.1241e-15
3.27398
-1.31839e-15
3.27398
-1.44329e-15
3.27398
-1.45717e-15
3.27398
-1.45717e-15
3.27398
-1.47105e-15
3.27398
-1.55431e-15
3.27398
-1.54043e-15
3.27398
-1.41553e-15
3.27398
-1.41553e-15
3.27398
-1.67921e-15
3.27398
-1.92901e-15
3.27398
-1.90126e-15
3.27398
-1.85962e-15
3.27398
-1.73472e-15
3.27398
-1.51268e-15
3.27398
-1.33227e-15
3.27398
-1.33227e-15
3.27398
-1.51268e-15
3.27398
-1.65146e-15
3.27398
-1.6237e-15
3.27398
-1.47105e-15
3.27398
-1.33227e-15
3.27398
-1.40166e-15
3.27398
-1.58207e-15
3.27398
-1.70697e-15
3.27398
-1.66533e-15
3.27398
-1.59595e-15
3.27398
-1.54043e-15
3.27398
-1.65146e-15
3.27398
-1.90126e-15
3.27398
-2.06779e-15
3.27398
-2.02616e-15
3.27398
-1.97065e-15
3.27398
-1.92901e-15
3.27398
-1.90126e-15
3.27398
-1.83187e-15
3.27398
-1.63758e-15
3.27398
-1.44329e-15
3.27398
-1.29063e-15
3.27398
-1.11022e-15
3.27398
-9.99201e-16
3.27398
-9.99201e-16
3.27398
-9.4369e-16
3.27398
-8.46545e-16
3.27398
-8.60423e-16
3.27398
-8.88178e-16
3.27398
-1.01308e-15
3.27398
-1.33227e-15
3.27398
-1.56819e-15
3.27398
-1.59595e-15
3.27398
-1.67921e-15
3.27398
-1.80411e-15
3.27398
-2.10942e-15
3.27398
-2.42861e-15
3.27398
-2.47025e-15
3.27398
-2.3731e-15
3.27398
-2.17881e-15
3.27398
-1.94289e-15
3.27398
-1.8735e-15
3.27398
-1.81799e-15
3.27398
-1.90126e-15
3.27398
-1.90126e-15
3.27398
-1.83187e-15
3.27398
-1.88738e-15
3.27398
-1.76248e-15
3.27398
-1.70697e-15
3.27398
-1.70697e-15
3.27398
-1.77636e-15
3.27398
-1.8735e-15
3.27398
-1.66533e-15
3.27398
-1.41553e-15
3.27398
-1.26288e-15
3.27398
-1.17961e-15
3.27398
-1.15186e-15
3.27398
-1.40166e-15
3.27398
-1.76248e-15
3.27398
-2.02616e-15
3.27398
-2.01228e-15
3.27398
-1.83187e-15
3.27398
-1.44329e-15
3.27398
-8.46545e-16
3.27398
-2.35922e-16
3.27398
2.498e-16
3.27398
8.18789e-16
3.27398
1.33227e-15
3.27398
1.55431e-15
3.27398
1.54043e-15
3.27398
1.42941e-15
3.27398
1.38778e-15
3.27398
1.31839e-15
3.27398
1.09635e-15
3.27398
8.88178e-16
3.27398
6.38378e-16
3.27398
3.05311e-16
3.27398
-5.55112e-17
3.27398
-2.498e-16
3.27398
-5.55112e-16
3.27398
-8.88178e-16
3.27398
-1.05471e-15
3.27398
-1.08247e-15
3.27398
-1.02696e-15
3.27398
-9.85323e-16
3.27398
-8.88178e-16
3.27398
-7.49401e-16
3.27398
-7.21645e-16
3.27398
-9.29812e-16
3.27398
-1.22125e-15
3.27398
-1.47105e-15
3.27398
-1.60982e-15
3.27398
-1.66533e-15
3.27398
-1.81799e-15
3.27398
-1.84575e-15
3.27398
-1.76248e-15
3.27398
-1.65146e-15
3.27398
-1.42941e-15
3.27398
-1.26288e-15
3.27398
-1.05471e-15
3.27398
-8.32667e-16
3.27398
-6.38378e-16
3.27398
-5.41234e-16
3.27398
-5.55112e-16
3.27398
-5.13478e-16
3.27398
-4.30211e-16
3.27398
-2.91434e-16
3.27398
-4.02456e-16
3.27398
-6.38378e-16
3.27398
-7.07767e-16
3.27398
-5.55112e-16
3.27398
-3.46945e-16
3.27398
-2.35922e-16
3.27398
-9.71445e-17
3.27398
-1.38778e-17
3.27398
1.52656e-16
3.27398
3.05311e-16
3.27398
4.30211e-16
3.27398
2.77556e-16
3.27398
6.93889e-17
3.27398
-1.63089e-31
3.27398
2.77556e-17
3.27398
4.16334e-17
3.27398
6.93889e-17
3.27398
4.16334e-17
3.27398
-1.11022e-16
3.27398
-2.91434e-16
3.27398
-2.91434e-16
3.27398
-3.46945e-16
3.27398
-5.55112e-16
3.27398
-6.80012e-16
3.27398
-5.82867e-16
3.27398
-4.16334e-16
3.27398
-1.94289e-16
3.27398
-4.16334e-17
3.27398
1.249e-16
3.27398
3.46945e-16
3.27398
5.41234e-16
3.27398
5.82867e-16
3.27398
4.57967e-16
3.27398
1.52656e-16