/*--------------------------------*- C++ -*----------------------------------*\
| =========                 |                                                 |
| \\      /  F ield         | OpenFOAM: The Open Source CFD Toolbox           |
|  \\    /   O peration     | Version:  2412                                  |
|   \\  /    A nd           | Website:  www.openfoam.com                      |
|    \\/     M anipulation  |                                                 |
\*---------------------------------------------------------------------------*/
FoamFile
{
    version     2.0;
    format      ascii;
    arch        "LSB;label=32;scalar=64";
    class       volVectorField;
    location    "0.0015";
    object      U;
}
// * * * * * * * * * * * * * * * * * * * * * * * * * * * * * * * * * * * * * //

dimensions      [0 1 -1 0 0 0 0];

internalField   nonuniform List<vector> 
180000
(
(664 -8.98932e-15 0)
(664 -1.29172e-14 0)
(664 -2.55736e-14 0)
(664 -5.77894e-14 0)
(664 -8.9307e-14 0)
(664 -1.02606e-13 0)
(664 -1.22537e-13 0)
(664 -1.4956e-13 0)
(664 -1.53563e-13 0)
(664 -1.53333e-13 0)
(664 -1.67784e-13 0)
(664 -1.72443e-13 0)
(664 -1.78242e-13 0)
(664 -1.64373e-13 0)
(664 -1.38914e-13 0)
(664 -1.39989e-13 0)
(664 -1.38717e-13 0)
(664 -1.44119e-13 0)
(664 -1.61787e-13 0)
(664 -1.6573e-13 0)
(664 -1.45435e-13 0)
(664 -1.30202e-13 0)
(664 -1.30469e-13 0)
(664 -1.25755e-13 0)
(664 -1.41212e-13 0)
(664 -1.71153e-13 0)
(664 -2.12939e-13 0)
(664 -2.50802e-13 0)
(664 -2.69262e-13 0)
(664 -2.53427e-13 0)
(664 -2.49024e-13 0)
(664 -2.64558e-13 0)
(664 -2.56884e-13 0)
(664 -2.56258e-13 0)
(664 -2.65544e-13 0)
(664 -2.96565e-13 0)
(664 -3.23179e-13 0)
(664 -3.47252e-13 0)
(664 -3.69428e-13 0)
(664 -3.93836e-13 0)
(664 -4.18649e-13 0)
(664 -4.42117e-13 0)
(664 -4.46222e-13 0)
(664 -4.37791e-13 0)
(664 -4.46371e-13 0)
(664 -4.43632e-13 0)
(664 -4.41168e-13 0)
(664 -4.54076e-13 0)
(664 -4.6776e-13 0)
(664 -4.76171e-13 0)
(664 -4.77415e-13 0)
(664 -4.50618e-13 0)
(664 -4.38616e-13 0)
(664 -4.43033e-13 0)
(664 -4.41116e-13 0)
(664 -4.27897e-13 0)
(664 -4.09776e-13 0)
(664 -3.98668e-13 0)
(664 -3.81083e-13 0)
(664 -3.60944e-13 0)
(664 -3.53363e-13 0)
(664 -3.7157e-13 0)
(664 -4.15826e-13 0)
(664 -4.66536e-13 0)
(664 -5.25975e-13 0)
(664 -5.80488e-13 0)
(664 -6.08246e-13 0)
(664 -6.01556e-13 0)
(664 -5.85949e-13 0)
(664 -5.77109e-13 0)
(664 -5.62572e-13 0)
(664 -5.53872e-13 0)
(664 -5.49287e-13 0)
(664 -5.2168e-13 0)
(664 -5.20386e-13 0)
(664 -5.262e-13 0)
(664 -5.22442e-13 0)
(664 -5.34651e-13 0)
(664 -5.34208e-13 0)
(664 -5.36642e-13 0)
(664 -5.22501e-13 0)
(664 -4.74135e-13 0)
(664 -4.43118e-13 0)
(664 -4.43397e-13 0)
(664 -4.40771e-13 0)
(664 -4.26367e-13 0)
(664 -4.22861e-13 0)
(664 -4.07101e-13 0)
(664 -3.90383e-13 0)
(664 -3.76767e-13 0)
(664 -3.82877e-13 0)
(664 -4.10247e-13 0)
(664 -4.29076e-13 0)
(664 -4.42986e-13 0)
(664 -4.48824e-13 0)
(664 -4.56789e-13 0)
(664 -4.67799e-13 0)
(664 -4.61292e-13 0)
(664 -4.60805e-13 0)
(664 -4.47618e-13 0)
(664 -4.49429e-13 0)
(664 -4.86689e-13 0)
(664 -5.04579e-13 0)
(664 -5.01671e-13 0)
(664 -4.90856e-13 0)
(664 -4.80989e-13 0)
(664 -4.58116e-13 0)
(664 -4.29322e-13 0)
(664 -4.1667e-13 0)
(664 -4.03221e-13 0)
(664 -3.72375e-13 0)
(664 -3.38955e-13 0)
(664 -3.34526e-13 0)
(664 -3.57645e-13 0)
(664 -3.73151e-13 0)
(664 -3.70666e-13 0)
(664 -3.84416e-13 0)
(664 -4.19274e-13 0)
(664 -4.54674e-13 0)
(664 -4.92811e-13 0)
(664 -5.4154e-13 0)
(664 -5.90394e-13 0)
(664 -6.53336e-13 0)
(664 -6.9871e-13 0)
(664 -7.09331e-13 0)
(664 -7.21414e-13 0)
(664 -7.43275e-13 0)
(664 -7.79618e-13 0)
(664 -7.95558e-13 0)
(664 -7.82981e-13 0)
(664 -7.70939e-13 0)
(664 -7.47602e-13 0)
(664 -6.6283e-13 0)
(664 -5.67419e-13 0)
(664 -5.03454e-13 0)
(664 -4.50639e-13 0)
(664 -3.98735e-13 0)
(664 -3.68893e-13 0)
(664 -3.55146e-13 0)
(664 -3.46777e-13 0)
(664 -3.47743e-13 0)
(664 -3.51129e-13 0)
(664 -3.34136e-13 0)
(664 -3.40444e-13 0)
(664 -3.50946e-13 0)
(664 -3.80821e-13 0)
(664 -4.54867e-13 0)
(664 -4.93518e-13 0)
(664 -5.26797e-13 0)
(664 -5.77699e-13 0)
(664 -6.11603e-13 0)
(664 -6.25081e-13 0)
(664 -6.3543e-13 0)
(664 -6.29529e-13 0)
(664 -5.95985e-13 0)
(664 -5.70964e-13 0)
(664 -5.49647e-13 0)
(664 -5.20768e-13 0)
(664 -4.98156e-13 0)
(664 -5.01847e-13 0)
(664 -5.40571e-13 0)
(664 -5.91371e-13 0)
(664 -6.31292e-13 0)
(664 -6.51459e-13 0)
(664 -6.78285e-13 0)
(664 -7.12009e-13 0)
(664 -7.27933e-13 0)
(664 -7.39101e-13 0)
(664 -7.7225e-13 0)
(664 -7.96061e-13 0)
(664 -8.07769e-13 0)
(664 -8.15196e-13 0)
(664 -8.14118e-13 0)
(664 -7.91904e-13 0)
(664 -7.75163e-13 0)
(664 -7.47813e-13 0)
(664 -7.16395e-13 0)
(664 -6.9337e-13 0)
(664 -6.74886e-13 0)
(664 -6.52096e-13 0)
(664 -6.18673e-13 0)
(664 -5.68408e-13 0)
(664 -5.38525e-13 0)
(664 -5.04373e-13 0)
(664 -4.56503e-13 0)
(664 -4.17748e-13 0)
(664 -4.10152e-13 0)
(664 -4.06709e-13 0)
(664 -4.04876e-13 0)
(664 -3.8818e-13 0)
(664 -3.95329e-13 0)
(664 -4.29024e-13 0)
(664 -4.38448e-13 0)
(664 -4.41989e-13 0)
(664 -4.50767e-13 0)
(664 -4.77311e-13 0)
(664 -5.08241e-13 0)
(664 -5.27111e-13 0)
(664 -5.20384e-13 0)
(664 -5.03654e-13 0)
(664 -5.02114e-13 0)
(664 -5.05048e-13 0)
(664 -4.91918e-13 0)
(664 -4.86987e-13 0)
(664 -4.83892e-13 0)
(664 -4.97416e-13 0)
(664 -5.01644e-13 0)
(664 -4.94737e-13 0)
(664 -4.72809e-13 0)
(664 -4.63147e-13 0)
(664 -4.75868e-13 0)
(664 -4.98744e-13 0)
(664 -5.06842e-13 0)
(664 -5.00983e-13 0)
(664 -4.88015e-13 0)
(664 -4.85394e-13 0)
(664 -4.84469e-13 0)
(664 -4.88578e-13 0)
(664 -5.00011e-13 0)
(664 -5.20844e-13 0)
(664 -5.11399e-13 0)
(664 -4.92823e-13 0)
(664 -4.72981e-13 0)
(664 -4.42365e-13 0)
(664 -4.06674e-13 0)
(664 -3.80812e-13 0)
(664 -3.62066e-13 0)
(664 -3.62311e-13 0)
(664 -3.92244e-13 0)
(664 -4.18474e-13 0)
(664 -4.35519e-13 0)
(664 -4.56029e-13 0)
(664 -4.68763e-13 0)
(664 -4.59825e-13 0)
(664 -4.27734e-13 0)
(664 -4.02748e-13 0)
(664 -3.5122e-13 0)
(664 -3.0753e-13 0)
(664 -2.94941e-13 0)
(664 -2.62152e-13 0)
(664 -2.22036e-13 0)
(664 -2.03247e-13 0)
(664 -1.87001e-13 0)
(664 -1.40989e-13 0)
(664 -1.2885e-14 0)
(664 2.29368e-13 0)
(664 6.40241e-13 0)
(664 1.36214e-12 0)
(664 2.58221e-12 0)
(664 4.7198e-12 0)
(664 8.46246e-12 0)
(664 1.49061e-11 0)
(664 2.59972e-11 0)
(664 4.51135e-11 0)
(664 7.80662e-11 0)
(664 1.34952e-10 0)
(664 2.33298e-10 0)
(664 4.03418e-10 0)
(664 6.97861e-10 0)
(664 1.20781e-09 0)
(664 2.09168e-09 0)
(664 3.62475e-09 0)
(664 6.28623e-09 0)
(664 1.09104e-08 0)
(664 1.89523e-08 0)
(664 3.29504e-08 0)
(664 5.73418e-08 0)
(664 9.98838e-08 0)
(664 1.74168e-07 0)
(664 3.04011e-07 0)
(664 5.31247e-07 0)
(664 9.29371e-07 0)
(664 1.62782e-06 0)
(664 2.8546e-06 0)
(664 5.01242e-06 0)
(664 8.81277e-06 0)
(664 1.55159e-05 0)
(663.999 2.73555e-05 0)
(663.999 4.83005e-05 0)
(663.998 8.54076e-05 0)
(663.997 0.000151258 0)
(663.995 0.000268296 0)
(663.991 0.000476673 0)
(663.985 0.000848272 0)
(663.975 0.00151214 0)
(663.958 0.00270012 0)
(663.928 0.00482988 0)
(663.876 0.00865452 0)
(663.788 0.0155368 0)
(663.637 0.0279411 0)
(663.378 0.0503417 0)
(662.933 0.0908418 0)
(662.167 0.164267 0)
(660.848 0.297565 0)
(658.58 0.540529 0)
(654.684 0.981875 0)
(648.015 1.78713 0)
(636.499 3.24912 0)
(616.947 5.95437 0)
(585.549 10.8176 0)
(664 -1.3525e-15 0)
(664 -1.07028e-14 0)
(664 -2.06379e-14 0)
(664 -4.58415e-14 0)
(664 -8.14558e-14 0)
(664 -9.63287e-14 0)
(664 -1.02041e-13 0)
(664 -1.1792e-13 0)
(664 -1.3987e-13 0)
(664 -1.53102e-13 0)
(664 -1.7011e-13 0)
(664 -1.89716e-13 0)
(664 -2.10071e-13 0)
(664 -2.29428e-13 0)
(664 -2.36732e-13 0)
(664 -2.1989e-13 0)
(664 -2.01052e-13 0)
(664 -2.09538e-13 0)
(664 -2.10725e-13 0)
(664 -2.21663e-13 0)
(664 -2.55284e-13 0)
(664 -2.90863e-13 0)
(664 -3.08999e-13 0)
(664 -3.3879e-13 0)
(664 -3.46257e-13 0)
(664 -3.41947e-13 0)
(664 -3.48669e-13 0)
(664 -3.36656e-13 0)
(664 -3.15518e-13 0)
(664 -2.9575e-13 0)
(664 -2.59647e-13 0)
(664 -2.44281e-13 0)
(664 -2.40068e-13 0)
(664 -2.46613e-13 0)
(664 -2.67564e-13 0)
(664 -3.21469e-13 0)
(664 -3.99053e-13 0)
(664 -4.61125e-13 0)
(664 -5.01319e-13 0)
(664 -5.41412e-13 0)
(664 -5.87845e-13 0)
(664 -6.21623e-13 0)
(664 -6.18461e-13 0)
(664 -5.87355e-13 0)
(664 -5.44185e-13 0)
(664 -5.01861e-13 0)
(664 -4.42258e-13 0)
(664 -3.55939e-13 0)
(664 -2.58953e-13 0)
(664 -1.74153e-13 0)
(664 -1.33333e-13 0)
(664 -1.02339e-13 0)
(664 -8.21781e-14 0)
(664 -8.85219e-14 0)
(664 -8.73542e-14 0)
(664 -1.11239e-13 0)
(664 -1.60094e-13 0)
(664 -2.27234e-13 0)
(664 -2.65906e-13 0)
(664 -2.82442e-13 0)
(664 -3.07116e-13 0)
(664 -3.36372e-13 0)
(664 -3.75402e-13 0)
(664 -4.47252e-13 0)
(664 -5.00095e-13 0)
(664 -5.44382e-13 0)
(664 -5.85516e-13 0)
(664 -6.18778e-13 0)
(664 -6.18888e-13 0)
(664 -6.22687e-13 0)
(664 -6.26432e-13 0)
(664 -6.13655e-13 0)
(664 -5.89531e-13 0)
(664 -5.59261e-13 0)
(664 -5.65964e-13 0)
(664 -5.53638e-13 0)
(664 -5.57478e-13 0)
(664 -5.80589e-13 0)
(664 -5.87066e-13 0)
(664 -5.81818e-13 0)
(664 -5.99839e-13 0)
(664 -6.0698e-13 0)
(664 -6.11184e-13 0)
(664 -6.29622e-13 0)
(664 -6.51794e-13 0)
(664 -6.74604e-13 0)
(664 -6.93606e-13 0)
(664 -7.00689e-13 0)
(664 -7.21515e-13 0)
(664 -7.7505e-13 0)
(664 -8.29596e-13 0)
(664 -8.81163e-13 0)
(664 -9.1372e-13 0)
(664 -9.20402e-13 0)
(664 -9.16679e-13 0)
(664 -9.0951e-13 0)
(664 -8.97177e-13 0)
(664 -9.03971e-13 0)
(664 -9.19704e-13 0)
(664 -9.20946e-13 0)
(664 -9.05372e-13 0)
(664 -8.76681e-13 0)
(664 -8.55371e-13 0)
(664 -8.38239e-13 0)
(664 -7.96212e-13 0)
(664 -7.78638e-13 0)
(664 -7.79723e-13 0)
(664 -7.78853e-13 0)
(664 -7.55772e-13 0)
(664 -7.16226e-13 0)
(664 -6.6091e-13 0)
(664 -6.03752e-13 0)
(664 -5.39097e-13 0)
(664 -5.07691e-13 0)
(664 -4.9536e-13 0)
(664 -5.02697e-13 0)
(664 -5.24901e-13 0)
(664 -5.31307e-13 0)
(664 -5.04632e-13 0)
(664 -5.06433e-13 0)
(664 -5.17068e-13 0)
(664 -5.13458e-13 0)
(664 -5.17688e-13 0)
(664 -5.04069e-13 0)
(664 -4.87157e-13 0)
(664 -4.78723e-13 0)
(664 -4.9287e-13 0)
(664 -5.40684e-13 0)
(664 -5.95371e-13 0)
(664 -6.3901e-13 0)
(664 -6.66118e-13 0)
(664 -6.68931e-13 0)
(664 -6.47444e-13 0)
(664 -6.26372e-13 0)
(664 -6.0685e-13 0)
(664 -5.8425e-13 0)
(664 -5.7001e-13 0)
(664 -5.61742e-13 0)
(664 -5.83955e-13 0)
(664 -5.99223e-13 0)
(664 -5.94571e-13 0)
(664 -5.89459e-13 0)
(664 -5.80162e-13 0)
(664 -5.66397e-13 0)
(664 -5.54369e-13 0)
(664 -5.53413e-13 0)
(664 -5.6582e-13 0)
(664 -5.89753e-13 0)
(664 -6.0003e-13 0)
(664 -6.03258e-13 0)
(664 -5.76022e-13 0)
(664 -5.64933e-13 0)
(664 -5.96024e-13 0)
(664 -6.1719e-13 0)
(664 -6.19199e-13 0)
(664 -6.2801e-13 0)
(664 -6.45604e-13 0)
(664 -6.70944e-13 0)
(664 -6.76364e-13 0)
(664 -6.94377e-13 0)
(664 -7.00558e-13 0)
(664 -7.28791e-13 0)
(664 -7.6455e-13 0)
(664 -8.11108e-13 0)
(664 -8.68002e-13 0)
(664 -9.08896e-13 0)
(664 -9.27791e-13 0)
(664 -9.25741e-13 0)
(664 -8.97769e-13 0)
(664 -8.98916e-13 0)
(664 -9.26579e-13 0)
(664 -9.31036e-13 0)
(664 -8.92055e-13 0)
(664 -8.70484e-13 0)
(664 -8.6271e-13 0)
(664 -8.55098e-13 0)
(664 -8.52817e-13 0)
(664 -8.30806e-13 0)
(664 -8.03863e-13 0)
(664 -7.79977e-13 0)
(664 -7.70255e-13 0)
(664 -7.53943e-13 0)
(664 -7.32329e-13 0)
(664 -7.19792e-13 0)
(664 -7.13433e-13 0)
(664 -7.35039e-13 0)
(664 -7.56498e-13 0)
(664 -7.7303e-13 0)
(664 -7.94216e-13 0)
(664 -8.09893e-13 0)
(664 -8.18155e-13 0)
(664 -8.22872e-13 0)
(664 -8.16711e-13 0)
(664 -8.11355e-13 0)
(664 -8.25543e-13 0)
(664 -8.39227e-13 0)
(664 -8.61771e-13 0)
(664 -8.57989e-13 0)
(664 -8.21281e-13 0)
(664 -7.90207e-13 0)
(664 -7.82687e-13 0)
(664 -7.81252e-13 0)
(664 -7.965e-13 0)
(664 -8.03972e-13 0)
(664 -8.1354e-13 0)
(664 -8.32013e-13 0)
(664 -8.6125e-13 0)
(664 -8.71921e-13 0)
(664 -8.66342e-13 0)
(664 -8.77515e-13 0)
(664 -8.70019e-13 0)
(664 -8.53799e-13 0)
(664 -8.3574e-13 0)
(664 -8.13618e-13 0)
(664 -7.76488e-13 0)
(664 -7.57893e-13 0)
(664 -7.42364e-13 0)
(664 -7.05676e-13 0)
(664 -6.73958e-13 0)
(664 -6.45355e-13 0)
(664 -6.28164e-13 0)
(664 -6.22151e-13 0)
(664 -6.10641e-13 0)
(664 -6.06777e-13 0)
(664 -6.3285e-13 0)
(664 -6.22603e-13 0)
(664 -6.05576e-13 0)
(664 -6.28286e-13 0)
(664 -6.31278e-13 0)
(664 -6.18836e-13 0)
(664 -6.28539e-13 0)
(664 -6.55142e-13 0)
(664 -6.70382e-13 0)
(664 -6.64905e-13 0)
(664 -6.43872e-13 0)
(664 -6.27326e-13 0)
(664 -6.31336e-13 0)
(664 -6.47965e-13 0)
(664 -6.60977e-13 0)
(664 -6.52978e-13 0)
(664 -6.325e-13 0)
(664 -5.87772e-13 0)
(664 -5.0607e-13 0)
(664 -3.34851e-13 0)
(664 3.29253e-14 0)
(664 7.29484e-13 0)
(664 1.91028e-12 0)
(664 3.94117e-12 0)
(664 7.41695e-12 0)
(664 1.33737e-11 0)
(664 2.36208e-11 0)
(664 4.12298e-11 0)
(664 7.14689e-11 0)
(664 1.23435e-10 0)
(664 2.1286e-10 0)
(664 3.66758e-10 0)
(664 6.31767e-10 0)
(664 1.08839e-09 0)
(664 1.87568e-09 0)
(664 3.23357e-09 0)
(664 5.57713e-09 0)
(664 9.6237e-09 0)
(664 1.66155e-08 0)
(664 2.87018e-08 0)
(664 4.96098e-08 0)
(664 8.57969e-08 0)
(664 1.48476e-07 0)
(664 2.57102e-07 0)
(664 4.45505e-07 0)
(664 7.72473e-07 0)
(664 1.34039e-06 0)
(664 2.32744e-06 0)
(664 4.04447e-06 0)
(664 7.0334e-06 0)
(664 1.22412e-05 0)
(664 2.13217e-05 0)
(664 3.71702e-05 0)
(663.999 6.48524e-05 0)
(663.999 0.000113254 0)
(663.999 0.000197952 0)
(663.998 0.000346323 0)
(663.996 0.00060646 0)
(663.993 0.00106306 0)
(663.988 0.00186523 0)
(663.98 0.00327616 0)
(663.966 0.00576012 0)
(663.943 0.0101384 0)
(663.903 0.0178631 0)
(663.837 0.0315096 0)
(663.725 0.0556409 0)
(663.536 0.0983662 0)
(663.22 0.174058 0)
(662.688 0.308366 0)
(661.796 0.546866 0)
(660.304 0.971372 0)
(657.823 1.72478 0)
(653.717 3.06287 0)
(646.96 5.42571 0)
(635.875 9.6337 0)
(619.098 16.9371 0)
(664 -7.75268e-16 0)
(664 -1.11842e-14 0)
(664 -2.66354e-14 0)
(664 -2.43663e-14 0)
(664 -1.01142e-14 0)
(664 -9.79757e-15 0)
(664 4.6964e-19 0)
(664 2.24705e-14 0)
(664 3.49992e-14 0)
(664 7.72695e-15 0)
(664 -2.66501e-14 0)
(664 -5.82981e-14 0)
(664 -9.40278e-14 0)
(664 -1.47276e-13 0)
(664 -2.21049e-13 0)
(664 -2.90974e-13 0)
(664 -3.57973e-13 0)
(664 -4.10573e-13 0)
(664 -4.75299e-13 0)
(664 -5.2258e-13 0)
(664 -5.66806e-13 0)
(664 -5.72946e-13 0)
(664 -5.64383e-13 0)
(664 -5.53677e-13 0)
(664 -5.21702e-13 0)
(664 -4.66413e-13 0)
(664 -4.0722e-13 0)
(664 -3.62077e-13 0)
(664 -3.32039e-13 0)
(664 -3.23666e-13 0)
(664 -3.1786e-13 0)
(664 -3.17539e-13 0)
(664 -3.11123e-13 0)
(664 -3.08554e-13 0)
(664 -3.3144e-13 0)
(664 -3.64592e-13 0)
(664 -3.92999e-13 0)
(664 -4.192e-13 0)
(664 -4.44209e-13 0)
(664 -4.58536e-13 0)
(664 -4.72179e-13 0)
(664 -4.73265e-13 0)
(664 -4.78899e-13 0)
(664 -4.91116e-13 0)
(664 -4.75535e-13 0)
(664 -4.52777e-13 0)
(664 -4.44586e-13 0)
(664 -4.36515e-13 0)
(664 -4.03418e-13 0)
(664 -3.77167e-13 0)
(664 -3.6575e-13 0)
(664 -3.6866e-13 0)
(664 -3.85627e-13 0)
(664 -3.90371e-13 0)
(664 -4.16054e-13 0)
(664 -4.67472e-13 0)
(664 -5.2177e-13 0)
(664 -5.76223e-13 0)
(664 -6.16672e-13 0)
(664 -6.44317e-13 0)
(664 -6.44249e-13 0)
(664 -6.17766e-13 0)
(664 -5.76864e-13 0)
(664 -5.29136e-13 0)
(664 -4.78108e-13 0)
(664 -4.54605e-13 0)
(664 -4.58112e-13 0)
(664 -4.56674e-13 0)
(664 -4.35385e-13 0)
(664 -3.99804e-13 0)
(664 -3.91674e-13 0)
(664 -3.96753e-13 0)
(664 -4.05732e-13 0)
(664 -4.23104e-13 0)
(664 -4.23185e-13 0)
(664 -4.30996e-13 0)
(664 -4.44918e-13 0)
(664 -4.40054e-13 0)
(664 -4.30229e-13 0)
(664 -4.36975e-13 0)
(664 -4.62727e-13 0)
(664 -4.91508e-13 0)
(664 -5.038e-13 0)
(664 -5.01556e-13 0)
(664 -5.02316e-13 0)
(664 -5.12296e-13 0)
(664 -5.1867e-13 0)
(664 -5.17394e-13 0)
(664 -5.17398e-13 0)
(664 -5.32733e-13 0)
(664 -5.35252e-13 0)
(664 -5.14674e-13 0)
(664 -4.92855e-13 0)
(664 -4.57219e-13 0)
(664 -4.29769e-13 0)
(664 -4.3498e-13 0)
(664 -4.285e-13 0)
(664 -4.40939e-13 0)
(664 -4.79502e-13 0)
(664 -5.2499e-13 0)
(664 -5.58438e-13 0)
(664 -5.81343e-13 0)
(664 -5.97621e-13 0)
(664 -6.20578e-13 0)
(664 -6.39227e-13 0)
(664 -6.70989e-13 0)
(664 -7.12369e-13 0)
(664 -7.44109e-13 0)
(664 -7.49763e-13 0)
(664 -7.30438e-13 0)
(664 -6.99256e-13 0)
(664 -6.70931e-13 0)
(664 -6.4894e-13 0)
(664 -6.08881e-13 0)
(664 -5.9755e-13 0)
(664 -6.23141e-13 0)
(664 -6.50871e-13 0)
(664 -6.43805e-13 0)
(664 -6.29586e-13 0)
(664 -6.21707e-13 0)
(664 -6.31351e-13 0)
(664 -6.27218e-13 0)
(664 -5.97275e-13 0)
(664 -5.45031e-13 0)
(664 -4.94445e-13 0)
(664 -4.47003e-13 0)
(664 -4.26277e-13 0)
(664 -4.20147e-13 0)
(664 -3.9247e-13 0)
(664 -3.73252e-13 0)
(664 -3.6658e-13 0)
(664 -3.62326e-13 0)
(664 -3.77232e-13 0)
(664 -3.84734e-13 0)
(664 -4.00254e-13 0)
(664 -4.30731e-13 0)
(664 -4.68232e-13 0)
(664 -5.03227e-13 0)
(664 -5.17873e-13 0)
(664 -5.37283e-13 0)
(664 -5.35764e-13 0)
(664 -5.02106e-13 0)
(664 -4.68834e-13 0)
(664 -4.36589e-13 0)
(664 -4.06742e-13 0)
(664 -3.69321e-13 0)
(664 -3.07895e-13 0)
(664 -2.49988e-13 0)
(664 -2.02979e-13 0)
(664 -1.56497e-13 0)
(664 -1.38693e-13 0)
(664 -1.59297e-13 0)
(664 -1.84319e-13 0)
(664 -1.98453e-13 0)
(664 -2.14286e-13 0)
(664 -2.27381e-13 0)
(664 -2.42175e-13 0)
(664 -2.53802e-13 0)
(664 -2.92471e-13 0)
(664 -3.39148e-13 0)
(664 -3.76486e-13 0)
(664 -3.88161e-13 0)
(664 -4.14934e-13 0)
(664 -4.71718e-13 0)
(664 -5.13949e-13 0)
(664 -5.43671e-13 0)
(664 -5.80467e-13 0)
(664 -6.32196e-13 0)
(664 -6.84902e-13 0)
(664 -7.12837e-13 0)
(664 -7.38163e-13 0)
(664 -7.52234e-13 0)
(664 -7.57966e-13 0)
(664 -7.75058e-13 0)
(664 -8.21602e-13 0)
(664 -8.7004e-13 0)
(664 -8.926e-13 0)
(664 -9.12686e-13 0)
(664 -9.32648e-13 0)
(664 -9.52848e-13 0)
(664 -9.63797e-13 0)
(664 -9.75181e-13 0)
(664 -9.97315e-13 0)
(664 -1.03429e-12 0)
(664 -1.05538e-12 0)
(664 -1.05358e-12 0)
(664 -1.06322e-12 0)
(664 -1.07583e-12 0)
(664 -1.07518e-12 0)
(664 -1.07843e-12 0)
(664 -1.08344e-12 0)
(664 -1.09084e-12 0)
(664 -1.10255e-12 0)
(664 -1.11129e-12 0)
(664 -1.11933e-12 0)
(664 -1.10489e-12 0)
(664 -1.09138e-12 0)
(664 -1.05072e-12 0)
(664 -9.89571e-13 0)
(664 -9.4481e-13 0)
(664 -9.34335e-13 0)
(664 -9.27047e-13 0)
(664 -9.04854e-13 0)
(664 -8.95347e-13 0)
(664 -8.68619e-13 0)
(664 -8.24183e-13 0)
(664 -8.01845e-13 0)
(664 -7.98576e-13 0)
(664 -7.50588e-13 0)
(664 -6.88235e-13 0)
(664 -6.2186e-13 0)
(664 -5.39492e-13 0)
(664 -4.80647e-13 0)
(664 -4.09967e-13 0)
(664 -3.37342e-13 0)
(664 -2.73373e-13 0)
(664 -2.16168e-13 0)
(664 -1.63057e-13 0)
(664 -1.35351e-13 0)
(664 -1.06721e-13 0)
(664 -1.0016e-13 0)
(664 -1.30735e-13 0)
(664 -1.88099e-13 0)
(664 -2.46296e-13 0)
(664 -3.1795e-13 0)
(664 -3.84231e-13 0)
(664 -4.26292e-13 0)
(664 -4.61804e-13 0)
(664 -4.67509e-13 0)
(664 -4.53762e-13 0)
(664 -4.32012e-13 0)
(664 -3.90618e-13 0)
(664 -3.50564e-13 0)
(664 -3.20578e-13 0)
(664 -3.03858e-13 0)
(664 -3.1347e-13 0)
(664 -3.38237e-13 0)
(664 -3.62143e-13 0)
(664 -3.96358e-13 0)
(664 -4.26141e-13 0)
(664 -4.02051e-13 0)
(664 -3.23718e-13 0)
(664 -1.65033e-13 0)
(664 1.45252e-13 0)
(664 6.98684e-13 0)
(664 1.66837e-12 0)
(664 3.32555e-12 0)
(664 6.17793e-12 0)
(664 1.10782e-11 0)
(664 1.9488e-11 0)
(664 3.38808e-11 0)
(664 5.85298e-11 0)
(664 1.00769e-10 0)
(664 1.73125e-10 0)
(664 2.97091e-10 0)
(664 5.09498e-10 0)
(664 8.73547e-10 0)
(664 1.49759e-09 0)
(664 2.56767e-09 0)
(664 4.40284e-09 0)
(664 7.5513e-09 0)
(664 1.29537e-08 0)
(664 2.22271e-08 0)
(664 3.81474e-08 0)
(664 6.54891e-08 0)
(664 1.12453e-07 0)
(664 1.93149e-07 0)
(664 3.31825e-07 0)
(664 5.70224e-07 0)
(664 9.80109e-07 0)
(664 1.68507e-06 0)
(664 2.89766e-06 0)
(664 4.98406e-06 0)
(664 8.57428e-06 0)
(664 1.4754e-05 0)
(664 2.53914e-05 0)
(664 4.37067e-05 0)
(664 7.52417e-05 0)
(663.999 0.00012955 0)
(663.999 0.000223071 0)
(663.998 0.000384144 0)
(663.997 0.000661526 0)
(663.995 0.00113924 0)
(663.991 0.00196177 0)
(663.985 0.00337799 0)
(663.975 0.00581558 0)
(663.958 0.0100104 0)
(663.93 0.0172257 0)
(663.883 0.0296321 0)
(663.806 0.0509497 0)
(663.676 0.0875576 0)
(663.462 0.150352 0)
(663.107 0.257951 0)
(662.52 0.442082 0)
(661.552 0.756744 0)
(659.967 1.29289 0)
(657.38 2.20185 0)
(653.188 3.73464 0)
(646.395 6.30421 0)
(636.147 10.5791 0)
(664 -8.39172e-15 0)
(664 -8.10296e-15 0)
(664 -7.70637e-15 0)
(664 -1.09927e-14 0)
(664 -9.93163e-15 0)
(664 1.51735e-14 0)
(664 4.86012e-14 0)
(664 9.29879e-14 0)
(664 1.30971e-13 0)
(664 1.47042e-13 0)
(664 1.6324e-13 0)
(664 1.88886e-13 0)
(664 2.12428e-13 0)
(664 2.26463e-13 0)
(664 1.99242e-13 0)
(664 1.65029e-13 0)
(664 1.3657e-13 0)
(664 8.43463e-14 0)
(664 2.70253e-14 0)
(664 -5.2902e-16 0)
(664 -4.24897e-15 0)
(664 -2.9378e-14 0)
(664 -4.79084e-14 0)
(664 -9.22925e-14 0)
(664 -1.66808e-13 0)
(664 -2.4469e-13 0)
(664 -3.18134e-13 0)
(664 -3.70804e-13 0)
(664 -4.3724e-13 0)
(664 -4.95397e-13 0)
(664 -5.37052e-13 0)
(664 -5.54491e-13 0)
(664 -5.69894e-13 0)
(664 -5.6975e-13 0)
(664 -5.57576e-13 0)
(664 -5.09003e-13 0)
(664 -4.62023e-13 0)
(664 -4.22464e-13 0)
(664 -4.02696e-13 0)
(664 -3.84345e-13 0)
(664 -3.50166e-13 0)
(664 -3.297e-13 0)
(664 -3.06984e-13 0)
(664 -3.00934e-13 0)
(664 -3.05046e-13 0)
(664 -3.15148e-13 0)
(664 -3.56886e-13 0)
(664 -4.19002e-13 0)
(664 -5.01202e-13 0)
(664 -5.6093e-13 0)
(664 -5.89806e-13 0)
(664 -5.96937e-13 0)
(664 -6.06367e-13 0)
(664 -6.44655e-13 0)
(664 -6.81511e-13 0)
(664 -6.67187e-13 0)
(664 -6.36959e-13 0)
(664 -6.00285e-13 0)
(664 -5.90371e-13 0)
(664 -5.79173e-13 0)
(664 -5.46409e-13 0)
(664 -5.20486e-13 0)
(664 -5.10207e-13 0)
(664 -4.99298e-13 0)
(664 -5.11601e-13 0)
(664 -5.25579e-13 0)
(664 -5.30688e-13 0)
(664 -5.21992e-13 0)
(664 -5.22231e-13 0)
(664 -5.50618e-13 0)
(664 -5.90369e-13 0)
(664 -6.16524e-13 0)
(664 -6.31156e-13 0)
(664 -6.48864e-13 0)
(664 -6.79832e-13 0)
(664 -6.98017e-13 0)
(664 -7.20128e-13 0)
(664 -7.43346e-13 0)
(664 -7.31961e-13 0)
(664 -7.18703e-13 0)
(664 -7.09702e-13 0)
(664 -7.19196e-13 0)
(664 -7.7323e-13 0)
(664 -8.27985e-13 0)
(664 -8.54135e-13 0)
(664 -8.8005e-13 0)
(664 -9.2184e-13 0)
(664 -9.47999e-13 0)
(664 -9.53916e-13 0)
(664 -9.1282e-13 0)
(664 -8.62294e-13 0)
(664 -8.03201e-13 0)
(664 -7.49127e-13 0)
(664 -7.12671e-13 0)
(664 -6.98468e-13 0)
(664 -6.68172e-13 0)
(664 -6.63196e-13 0)
(664 -6.49019e-13 0)
(664 -6.26897e-13 0)
(664 -6.21985e-13 0)
(664 -6.20355e-13 0)
(664 -6.31094e-13 0)
(664 -6.52405e-13 0)
(664 -6.71886e-13 0)
(664 -6.70972e-13 0)
(664 -6.71918e-13 0)
(664 -6.58251e-13 0)
(664 -6.42965e-13 0)
(664 -6.41881e-13 0)
(664 -6.4468e-13 0)
(664 -6.42568e-13 0)
(664 -6.4243e-13 0)
(664 -6.56636e-13 0)
(664 -6.82604e-13 0)
(664 -6.93572e-13 0)
(664 -6.90689e-13 0)
(664 -6.75206e-13 0)
(664 -6.6618e-13 0)
(664 -6.86679e-13 0)
(664 -6.95847e-13 0)
(664 -6.79187e-13 0)
(664 -6.92399e-13 0)
(664 -7.0049e-13 0)
(664 -7.21537e-13 0)
(664 -7.27787e-13 0)
(664 -7.24078e-13 0)
(664 -7.24047e-13 0)
(664 -7.26367e-13 0)
(664 -7.58776e-13 0)
(664 -7.73636e-13 0)
(664 -7.79648e-13 0)
(664 -8.02326e-13 0)
(664 -7.95694e-13 0)
(664 -7.80557e-13 0)
(664 -8.0795e-13 0)
(664 -8.32494e-13 0)
(664 -8.08613e-13 0)
(664 -7.79712e-13 0)
(664 -7.41139e-13 0)
(664 -7.10675e-13 0)
(664 -7.06853e-13 0)
(664 -6.71403e-13 0)
(664 -6.06723e-13 0)
(664 -5.69902e-13 0)
(664 -5.51137e-13 0)
(664 -5.18265e-13 0)
(664 -4.82747e-13 0)
(664 -4.71075e-13 0)
(664 -4.5789e-13 0)
(664 -4.6303e-13 0)
(664 -4.79779e-13 0)
(664 -4.76549e-13 0)
(664 -4.73329e-13 0)
(664 -4.83478e-13 0)
(664 -4.81076e-13 0)
(664 -4.84698e-13 0)
(664 -4.82942e-13 0)
(664 -4.92651e-13 0)
(664 -5.21034e-13 0)
(664 -5.60049e-13 0)
(664 -6.003e-13 0)
(664 -6.41456e-13 0)
(664 -6.83141e-13 0)
(664 -7.09326e-13 0)
(664 -7.36989e-13 0)
(664 -7.76488e-13 0)
(664 -8.33268e-13 0)
(664 -9.02486e-13 0)
(664 -9.80387e-13 0)
(664 -1.0466e-12 0)
(664 -1.063e-12 0)
(664 -1.09185e-12 0)
(664 -1.12556e-12 0)
(664 -1.15542e-12 0)
(664 -1.1758e-12 0)
(664 -1.19369e-12 0)
(664 -1.21759e-12 0)
(664 -1.26679e-12 0)
(664 -1.32552e-12 0)
(664 -1.36889e-12 0)
(664 -1.37891e-12 0)
(664 -1.39156e-12 0)
(664 -1.39767e-12 0)
(664 -1.40782e-12 0)
(664 -1.4198e-12 0)
(664 -1.41502e-12 0)
(664 -1.39511e-12 0)
(664 -1.36446e-12 0)
(664 -1.33569e-12 0)
(664 -1.30707e-12 0)
(664 -1.26925e-12 0)
(664 -1.23331e-12 0)
(664 -1.24071e-12 0)
(664 -1.24119e-12 0)
(664 -1.2151e-12 0)
(664 -1.20156e-12 0)
(664 -1.18573e-12 0)
(664 -1.19111e-12 0)
(664 -1.2005e-12 0)
(664 -1.17729e-12 0)
(664 -1.13571e-12 0)
(664 -1.08269e-12 0)
(664 -1.03564e-12 0)
(664 -9.97069e-13 0)
(664 -9.71688e-13 0)
(664 -9.15427e-13 0)
(664 -8.41287e-13 0)
(664 -7.91129e-13 0)
(664 -7.5044e-13 0)
(664 -6.97959e-13 0)
(664 -6.34468e-13 0)
(664 -5.70515e-13 0)
(664 -5.00294e-13 0)
(664 -4.71474e-13 0)
(664 -4.6001e-13 0)
(664 -4.29542e-13 0)
(664 -4.19501e-13 0)
(664 -4.16626e-13 0)
(664 -4.21541e-13 0)
(664 -4.24114e-13 0)
(664 -4.11681e-13 0)
(664 -4.38117e-13 0)
(664 -4.83347e-13 0)
(664 -5.12207e-13 0)
(664 -5.22087e-13 0)
(664 -5.28841e-13 0)
(664 -5.29148e-13 0)
(664 -5.15979e-13 0)
(664 -4.96953e-13 0)
(664 -4.8542e-13 0)
(664 -4.74747e-13 0)
(664 -4.65154e-13 0)
(664 -4.65823e-13 0)
(664 -4.76877e-13 0)
(664 -5.03008e-13 0)
(664 -5.27734e-13 0)
(664 -5.6141e-13 0)
(664 -5.8346e-13 0)
(664 -5.81224e-13 0)
(664 -5.61819e-13 0)
(664 -4.88642e-13 0)
(664 -3.59262e-13 0)
(664 -1.44171e-13 0)
(664 2.4977e-13 0)
(664 9.22655e-13 0)
(664 2.0645e-12 0)
(664 3.98645e-12 0)
(664 7.21512e-12 0)
(664 1.27414e-11 0)
(664 2.21624e-11 0)
(664 3.82088e-11 0)
(664 6.55453e-11 0)
(664 1.12113e-10 0)
(664 1.91513e-10 0)
(664 3.26879e-10 0)
(664 5.57614e-10 0)
(664 9.50959e-10 0)
(664 1.6215e-09 0)
(664 2.7647e-09 0)
(664 4.71366e-09 0)
(664 8.03677e-09 0)
(664 1.37025e-08 0)
(664 2.33635e-08 0)
(664 3.9836e-08 0)
(664 6.79252e-08 0)
(664 1.15819e-07 0)
(664 1.97485e-07 0)
(664 3.36724e-07 0)
(664 5.74131e-07 0)
(664 9.78855e-07 0)
(664 1.66882e-06 0)
(664 2.84483e-06 0)
(664 4.8492e-06 0)
(664 8.26455e-06 0)
(664 1.40837e-05 0)
(664 2.39953e-05 0)
(664 4.08752e-05 0)
(664 6.96111e-05 0)
(664 0.00011852 0)
(663.999 0.000201724 0)
(663.999 0.000343228 0)
(663.998 0.000583744 0)
(663.996 0.000992378 0)
(663.994 0.00168616 0)
(663.99 0.00286341 0)
(663.983 0.00485935 0)
(663.971 0.0082408 0)
(663.953 0.0139636 0)
(663.922 0.0236396 0)
(663.871 0.0399789 0)
(663.787 0.0675348 0)
(663.649 0.11393 0)
(663.423 0.191904 0)
(663.053 0.322693 0)
(662.448 0.541537 0)
(661.465 0.906568 0)
(659.871 1.51207 0)
(657.297 2.51166 0)
(653.12 4.14853 0)
(646.757 6.81471 0)
(664 8.71836e-15 0)
(664 3.1683e-14 0)
(664 2.2329e-14 0)
(664 1.03187e-15 0)
(664 -2.70857e-14 0)
(664 -4.18143e-14 0)
(664 -3.48561e-14 0)
(664 -1.69059e-14 0)
(664 -3.73029e-15 0)
(664 2.01444e-14 0)
(664 6.22118e-14 0)
(664 1.13093e-13 0)
(664 1.40938e-13 0)
(664 1.6493e-13 0)
(664 2.02349e-13 0)
(664 2.32778e-13 0)
(664 2.52648e-13 0)
(664 2.72514e-13 0)
(664 3.0021e-13 0)
(664 2.93889e-13 0)
(664 2.62736e-13 0)
(664 2.18364e-13 0)
(664 1.3073e-13 0)
(664 5.04169e-14 0)
(664 -3.56124e-14 0)
(664 -1.20479e-13 0)
(664 -1.74443e-13 0)
(664 -2.42676e-13 0)
(664 -2.91934e-13 0)
(664 -3.41129e-13 0)
(664 -3.9363e-13 0)
(664 -4.38831e-13 0)
(664 -4.9749e-13 0)
(664 -5.58364e-13 0)
(664 -5.89919e-13 0)
(664 -6.13837e-13 0)
(664 -6.43048e-13 0)
(664 -6.87838e-13 0)
(664 -7.23106e-13 0)
(664 -7.50037e-13 0)
(664 -7.64809e-13 0)
(664 -7.63226e-13 0)
(664 -7.81606e-13 0)
(664 -7.95128e-13 0)
(664 -8.23312e-13 0)
(664 -8.36673e-13 0)
(664 -8.10025e-13 0)
(664 -7.924e-13 0)
(664 -7.57872e-13 0)
(664 -7.33443e-13 0)
(664 -7.10326e-13 0)
(664 -7.08275e-13 0)
(664 -6.98818e-13 0)
(664 -6.83328e-13 0)
(664 -6.5708e-13 0)
(664 -6.25403e-13 0)
(664 -6.1767e-13 0)
(664 -5.92088e-13 0)
(664 -5.76846e-13 0)
(664 -5.79396e-13 0)
(664 -5.98224e-13 0)
(664 -6.3974e-13 0)
(664 -6.76108e-13 0)
(664 -7.01893e-13 0)
(664 -7.43518e-13 0)
(664 -7.79356e-13 0)
(664 -7.89561e-13 0)
(664 -8.0678e-13 0)
(664 -8.36737e-13 0)
(664 -8.69265e-13 0)
(664 -8.82608e-13 0)
(664 -8.77449e-13 0)
(664 -8.6419e-13 0)
(664 -8.44601e-13 0)
(664 -8.14693e-13 0)
(664 -7.97504e-13 0)
(664 -7.74868e-13 0)
(664 -7.60068e-13 0)
(664 -7.53761e-13 0)
(664 -7.4952e-13 0)
(664 -7.52158e-13 0)
(664 -7.58395e-13 0)
(664 -7.6413e-13 0)
(664 -7.92021e-13 0)
(664 -8.06242e-13 0)
(664 -8.2784e-13 0)
(664 -8.55178e-13 0)
(664 -8.73139e-13 0)
(664 -8.61783e-13 0)
(664 -8.39758e-13 0)
(664 -8.52416e-13 0)
(664 -8.71523e-13 0)
(664 -8.83474e-13 0)
(664 -8.8946e-13 0)
(664 -8.82187e-13 0)
(664 -8.79723e-13 0)
(664 -8.84497e-13 0)
(664 -8.63779e-13 0)
(664 -8.29574e-13 0)
(664 -7.83449e-13 0)
(664 -7.38881e-13 0)
(664 -7.12203e-13 0)
(664 -6.91057e-13 0)
(664 -6.71245e-13 0)
(664 -6.51382e-13 0)
(664 -6.00191e-13 0)
(664 -5.63783e-13 0)
(664 -5.43715e-13 0)
(664 -5.44521e-13 0)
(664 -5.54946e-13 0)
(664 -5.75569e-13 0)
(664 -5.99312e-13 0)
(664 -6.30452e-13 0)
(664 -6.74999e-13 0)
(664 -7.17757e-13 0)
(664 -7.37183e-13 0)
(664 -7.53328e-13 0)
(664 -7.7092e-13 0)
(664 -7.78971e-13 0)
(664 -7.93209e-13 0)
(664 -8.0678e-13 0)
(664 -7.9705e-13 0)
(664 -8.01461e-13 0)
(664 -8.10651e-13 0)
(664 -8.35076e-13 0)
(664 -8.53625e-13 0)
(664 -8.51414e-13 0)
(664 -8.78305e-13 0)
(664 -9.03851e-13 0)
(664 -9.06797e-13 0)
(664 -9.09218e-13 0)
(664 -9.06072e-13 0)
(664 -8.99606e-13 0)
(664 -8.84181e-13 0)
(664 -8.68795e-13 0)
(664 -8.42088e-13 0)
(664 -8.06829e-13 0)
(664 -7.52721e-13 0)
(664 -6.98252e-13 0)
(664 -6.4563e-13 0)
(664 -5.85691e-13 0)
(664 -5.68062e-13 0)
(664 -5.96801e-13 0)
(664 -6.00394e-13 0)
(664 -6.0287e-13 0)
(664 -6.04808e-13 0)
(664 -5.95754e-13 0)
(664 -5.93889e-13 0)
(664 -6.15765e-13 0)
(664 -6.18916e-13 0)
(664 -5.97654e-13 0)
(664 -5.71502e-13 0)
(664 -5.31848e-13 0)
(664 -5.06823e-13 0)
(664 -5.06869e-13 0)
(664 -5.29117e-13 0)
(664 -5.30278e-13 0)
(664 -5.16829e-13 0)
(664 -5.08177e-13 0)
(664 -4.90313e-13 0)
(664 -4.81318e-13 0)
(664 -5.08968e-13 0)
(664 -5.12154e-13 0)
(664 -5.0311e-13 0)
(664 -5.0347e-13 0)
(664 -5.2518e-13 0)
(664 -5.41312e-13 0)
(664 -5.62318e-13 0)
(664 -5.97087e-13 0)
(664 -6.49875e-13 0)
(664 -7.30435e-13 0)
(664 -7.86517e-13 0)
(664 -8.52964e-13 0)
(664 -8.95863e-13 0)
(664 -9.06065e-13 0)
(664 -9.45708e-13 0)
(664 -9.92326e-13 0)
(664 -1.02982e-12 0)
(664 -1.03147e-12 0)
(664 -1.0352e-12 0)
(664 -1.06711e-12 0)
(664 -1.10686e-12 0)
(664 -1.13923e-12 0)
(664 -1.15575e-12 0)
(664 -1.21253e-12 0)
(664 -1.27531e-12 0)
(664 -1.30175e-12 0)
(664 -1.29728e-12 0)
(664 -1.28252e-12 0)
(664 -1.2556e-12 0)
(664 -1.23807e-12 0)
(664 -1.23102e-12 0)
(664 -1.21071e-12 0)
(664 -1.16818e-12 0)
(664 -1.13556e-12 0)
(664 -1.11477e-12 0)
(664 -1.08325e-12 0)