/*--------------------------------*- C++ -*----------------------------------*\
| =========                 |                                                 |
| \\      /  F ield         | OpenFOAM: The Open Source CFD Toolbox           |
|  \\    /   O peration     | Version:  2412                                  |
|   \\  /    A nd           | Website:  www.openfoam.com                      |
|    \\/     M anipulation  |                                                 |
\*---------------------------------------------------------------------------*/
FoamFile
{
    version     2.0;
    format      ascii;
    arch        "LSB;label=32;scalar=64";
    class       volVectorField;
    location    "0.0015";
    object      U;
}
// * * * * * * * * * * * * * * * * * * * * * * * * * * * * * * * * * * * * * //

dimensions      [0 1 -1 0 0 0 0];

internalField   nonuniform List<vector> 
180000
(
(664 2.84054e-15 0)
(664 -1.10874e-14 0)
(664 8.82185e-15 0)
(664 2.4933e-14 0)
(664 9.82479e-16 0)
(664 -3.74763e-14 0)
(664 -1.03857e-13 0)
(664 -1.79542e-13 0)
(664 -2.56874e-13 0)
(664 -3.21684e-13 0)
(664 -3.72067e-13 0)
(664 -4.49066e-13 0)
(664 -4.99108e-13 0)
(664 -5.02998e-13 0)
(664 -5.12001e-13 0)
(664 -5.58055e-13 0)
(664 -5.64567e-13 0)
(664 -6.07957e-13 0)
(664 -7.01933e-13 0)
(664 -7.79064e-13 0)
(664 -8.05798e-13 0)
(664 -8.20074e-13 0)
(664 -7.82815e-13 0)
(664 -7.35039e-13 0)
(664 -6.8906e-13 0)
(664 -6.74527e-13 0)
(664 -6.03677e-13 0)
(664 -5.16235e-13 0)
(664 -4.29258e-13 0)
(664 -3.50937e-13 0)
(664 -3.28766e-13 0)
(664 -3.16425e-13 0)
(664 -2.50712e-13 0)
(664 -2.08404e-13 0)
(664 -1.94154e-13 0)
(664 -2.64359e-13 0)
(664 -3.85687e-13 0)
(664 -4.85497e-13 0)
(664 -4.84172e-13 0)
(664 -3.93812e-13 0)
(664 -3.4365e-13 0)
(664 -3.63833e-13 0)
(664 -3.70229e-13 0)
(664 -3.46134e-13 0)
(664 -2.66438e-13 0)
(664 -2.09981e-13 0)
(664 -2.96731e-13 0)
(664 -4.34635e-13 0)
(664 -5.78084e-13 0)
(664 -7.21248e-13 0)
(664 -8.57645e-13 0)
(664 -8.9886e-13 0)
(664 -8.8684e-13 0)
(664 -9.00454e-13 0)
(664 -9.15384e-13 0)
(664 -9.98874e-13 0)
(664 -1.12279e-12 0)
(664 -1.17531e-12 0)
(664 -1.19648e-12 0)
(664 -1.18813e-12 0)
(664 -1.18217e-12 0)
(664 -1.16186e-12 0)
(664 -1.17911e-12 0)
(664 -1.1878e-12 0)
(664 -1.14959e-12 0)
(664 -1.08151e-12 0)
(664 -1.03605e-12 0)
(664 -9.74808e-13 0)
(664 -9.0827e-13 0)
(664 -9.13601e-13 0)
(664 -9.19785e-13 0)
(664 -9.37134e-13 0)
(664 -1.04919e-12 0)
(664 -1.16547e-12 0)
(664 -1.22383e-12 0)
(664 -1.27169e-12 0)
(664 -1.2876e-12 0)
(664 -1.28424e-12 0)
(664 -1.28397e-12 0)
(664 -1.25413e-12 0)
(664 -1.20598e-12 0)
(664 -1.13368e-12 0)
(664 -1.06487e-12 0)
(664 -1.00472e-12 0)
(664 -9.3004e-13 0)
(664 -8.17404e-13 0)
(664 -7.17642e-13 0)
(664 -6.93166e-13 0)
(664 -6.92958e-13 0)
(664 -6.25758e-13 0)
(664 -5.5181e-13 0)
(664 -5.12312e-13 0)
(664 -4.98009e-13 0)
(664 -4.52225e-13 0)
(664 -5.01824e-13 0)
(664 -6.57093e-13 0)
(664 -7.91022e-13 0)
(664 -9.24037e-13 0)
(664 -1.0263e-12 0)
(664 -1.15924e-12 0)
(664 -1.3283e-12 0)
(664 -1.4434e-12 0)
(664 -1.39332e-12 0)
(664 -1.20429e-12 0)
(664 -9.61631e-13 0)
(664 -7.78811e-13 0)
(664 -6.85332e-13 0)
(664 -6.12933e-13 0)
(664 -5.30041e-13 0)
(664 -3.99224e-13 0)
(664 -2.46179e-13 0)
(664 -1.75595e-13 0)
(664 -1.80731e-13 0)
(664 -1.4116e-13 0)
(664 -7.32921e-14 0)
(664 -6.33362e-14 0)
(664 -8.76248e-14 0)
(664 -1.12311e-13 0)
(664 -1.77034e-13 0)
(664 -3.28694e-13 0)
(664 -4.93272e-13 0)
(664 -5.37658e-13 0)
(664 -4.10495e-13 0)
(664 -2.38319e-13 0)
(664 -1.03716e-13 0)
(664 -6.13214e-14 0)
(664 -1.67758e-14 0)
(664 2.13478e-14 0)
(664 -3.15329e-14 0)
(664 -1.10895e-13 0)
(664 -1.60675e-13 0)
(664 -1.89548e-13 0)
(664 -1.47434e-13 0)
(664 -1.06668e-13 0)
(664 -1.42922e-13 0)
(664 -2.60078e-13 0)
(664 -4.12861e-13 0)
(664 -5.3873e-13 0)
(664 -7.02846e-13 0)
(664 -9.10449e-13 0)
(664 -1.04352e-12 0)
(664 -1.07135e-12 0)
(664 -9.82588e-13 0)
(664 -8.01852e-13 0)
(664 -7.10587e-13 0)
(664 -7.60115e-13 0)
(664 -8.70571e-13 0)
(664 -9.25933e-13 0)
(664 -9.47462e-13 0)
(664 -9.35712e-13 0)
(664 -8.7503e-13 0)
(664 -7.51091e-13 0)
(664 -7.12975e-13 0)
(664 -7.69661e-13 0)
(664 -7.90664e-13 0)
(664 -7.39056e-13 0)
(664 -6.2969e-13 0)
(664 -4.51078e-13 0)
(664 -2.97293e-13 0)
(664 -2.71332e-13 0)
(664 -3.07215e-13 0)
(664 -3.02523e-13 0)
(664 -3.2793e-13 0)
(664 -4.03689e-13 0)
(664 -4.307e-13 0)
(664 -3.95517e-13 0)
(664 -3.80943e-13 0)
(664 -4.2221e-13 0)
(664 -4.38586e-13 0)
(664 -4.16436e-13 0)
(664 -4.47942e-13 0)
(664 -4.73001e-13 0)
(664 -4.4794e-13 0)
(664 -2.76797e-13 0)
(664 6.59314e-14 0)
(664 3.88202e-13 0)
(664 6.09971e-13 0)
(664 6.77045e-13 0)
(664 6.99318e-13 0)
(664 7.25514e-13 0)
(664 8.51752e-13 0)
(664 1.06382e-12 0)
(664 1.03173e-12 0)
(664 7.6067e-13 0)
(664 4.57856e-13 0)
(664 2.256e-13 0)
(664 1.33498e-13 0)
(664 1.65416e-13 0)
(664 2.02891e-13 0)
(664 4.43171e-14 0)
(664 -2.00951e-13 0)
(664 -3.58051e-13 0)
(664 -3.87387e-13 0)
(664 -4.09358e-13 0)
(664 -4.3192e-13 0)
(664 -3.64783e-13 0)
(664 -2.51611e-13 0)
(664 -2.0741e-13 0)
(664 -1.72858e-13 0)
(664 -1.46292e-13 0)
(664 -1.45246e-13 0)
(664 -1.92552e-13 0)
(664 -2.69603e-13 0)
(664 -3.48715e-13 0)
(664 -4.47942e-13 0)
(664 -4.26733e-13 0)
(664 -2.99002e-13 0)
(664 -1.41316e-13 0)
(664 4.04656e-14 0)
(664 1.35837e-13 0)
(664 5.20269e-14 0)
(664 -1.57301e-13 0)
(664 -3.06787e-13 0)
(664 -2.70047e-13 0)
(664 -9.90207e-14 0)
(664 4.40984e-14 0)
(664 1.60347e-13 0)
(664 2.20946e-13 0)
(664 2.9162e-13 0)
(664 4.00756e-13 0)
(664 5.1842e-13 0)
(664 6.11373e-13 0)
(664 5.65062e-13 0)
(664 4.19054e-13 0)
(664 2.42744e-13 0)
(664 5.99597e-14 0)
(664 -4.47507e-14 0)
(664 -1.21425e-13 0)
(664 -2.46629e-13 0)
(664 -3.18446e-13 0)
(664 -2.44846e-13 0)
(664 -8.96081e-14 0)
(664 1.38185e-13 0)
(664 4.03075e-13 0)
(664 6.39919e-13 0)
(664 7.22669e-13 0)
(664 6.93591e-13 0)
(664 6.74375e-13 0)
(664 6.46341e-13 0)
(664 6.34725e-13 0)
(664 7.25684e-13 0)
(664 8.97737e-13 0)
(664 1.14039e-12 0)
(664 1.60858e-12 0)
(664 2.38914e-12 0)
(664 3.65591e-12 0)
(664 5.92653e-12 0)
(664 9.97092e-12 0)
(664 1.68189e-11 0)
(664 2.84343e-11 0)
(664 4.79593e-11 0)
(664 8.06324e-11 0)
(664 1.35237e-10 0)
(664 2.2657e-10 0)
(664 3.79553e-10 0)
(664 6.3573e-10 0)
(664 1.06464e-09 0)
(664 1.78316e-09 0)
(664 2.98745e-09 0)
(664 5.00683e-09 0)
(664 8.39462e-09 0)
(664 1.40808e-08 0)
(664 2.36299e-08 0)
(664 3.96757e-08 0)
(664 6.66558e-08 0)
(664 1.12053e-07 0)
(664 1.88497e-07 0)
(664 3.17326e-07 0)
(664 5.34626e-07 0)
(664 9.0149e-07 0)
(664 1.52147e-06 0)
(664 2.57031e-06 0)
(664 4.34662e-06 0)
(664 7.35845e-06 0)
(664 1.24715e-05 0)
(664 2.11627e-05 0)
(663.999 3.59563e-05 0)
(663.999 6.11724e-05 0)
(663.998 0.000104217 0)
(663.996 0.000177809 0)
(663.994 0.000303826 0)
(663.99 0.00051997 0)
(663.984 0.000891334 0)
(663.973 0.00153051 0)
(663.956 0.00263262 0)
(663.928 0.00453647 0)
(663.88 0.00783161 0)
(663.803 0.0135458 0)
(663.674 0.0234746 0)
(663.461 0.0407612 0)
(663.108 0.0709217 0)
(662.522 0.123649 0)
(661.55 0.216045 0)
(659.936 0.378259 0)
(657.254 0.663897 0)
(652.794 1.16748 0)
(645.394 2.05955 0)
(633.136 3.6362 0)
(613.146 6.44888 0)
(581.647 11.3682 0)
(664 1.97133e-14 0)
(664 4.50066e-14 0)
(664 6.69372e-14 0)
(664 8.41057e-14 0)
(664 5.24169e-14 0)
(664 4.28645e-15 0)
(664 -5.03412e-14 0)
(664 -7.93206e-14 0)
(664 -1.11521e-13 0)
(664 -1.21668e-13 0)
(664 -1.15824e-13 0)
(664 -1.01946e-13 0)
(664 -1.90854e-13 0)
(664 -3.20068e-13 0)
(664 -4.76083e-13 0)
(664 -6.3646e-13 0)
(664 -6.86957e-13 0)
(664 -6.67762e-13 0)
(664 -6.99041e-13 0)
(664 -7.11829e-13 0)
(664 -6.79335e-13 0)
(664 -6.90314e-13 0)
(664 -7.36793e-13 0)
(664 -8.04652e-13 0)
(664 -8.22282e-13 0)
(664 -7.6429e-13 0)
(664 -6.1921e-13 0)
(664 -4.53178e-13 0)
(664 -3.97236e-13 0)
(664 -4.06792e-13 0)
(664 -4.75823e-13 0)
(664 -5.56456e-13 0)
(664 -5.83899e-13 0)
(664 -5.5885e-13 0)
(664 -5.75708e-13 0)
(664 -6.11408e-13 0)
(664 -7.34005e-13 0)
(664 -8.49077e-13 0)
(664 -8.40592e-13 0)
(664 -7.5498e-13 0)
(664 -7.08079e-13 0)
(664 -6.37395e-13 0)
(664 -5.12392e-13 0)
(664 -4.3506e-13 0)
(664 -3.76331e-13 0)
(664 -3.64214e-13 0)
(664 -4.30381e-13 0)
(664 -5.94138e-13 0)
(664 -8.06539e-13 0)
(664 -9.90432e-13 0)
(664 -1.06556e-12 0)
(664 -1.09325e-12 0)
(664 -1.09993e-12 0)
(664 -1.03e-12 0)
(664 -9.6168e-13 0)
(664 -9.80223e-13 0)
(664 -1.03871e-12 0)
(664 -1.0349e-12 0)
(664 -9.5426e-13 0)
(664 -8.93578e-13 0)
(664 -8.92591e-13 0)
(664 -9.24001e-13 0)
(664 -9.78357e-13 0)
(664 -9.86509e-13 0)
(664 -9.10068e-13 0)
(664 -7.70329e-13 0)
(664 -7.02013e-13 0)
(664 -7.40702e-13 0)
(664 -8.27231e-13 0)
(664 -8.93734e-13 0)
(664 -9.44083e-13 0)
(664 -9.78936e-13 0)
(664 -1.06635e-12 0)
(664 -1.11141e-12 0)
(664 -1.13642e-12 0)
(664 -1.15191e-12 0)
(664 -1.11339e-12 0)
(664 -1.0147e-12 0)
(664 -9.21662e-13 0)
(664 -8.96887e-13 0)
(664 -8.92127e-13 0)
(664 -8.15958e-13 0)
(664 -6.47507e-13 0)
(664 -4.00036e-13 0)
(664 -2.25087e-13 0)
(664 -3.01529e-13 0)
(664 -5.87004e-13 0)
(664 -9.90377e-13 0)
(664 -1.30268e-12 0)
(664 -1.39506e-12 0)
(664 -1.34603e-12 0)
(664 -1.2535e-12 0)
(664 -1.14689e-12 0)
(664 -1.06695e-12 0)
(664 -1.03045e-12 0)
(664 -1.08639e-12 0)
(664 -1.15194e-12 0)
(664 -1.21208e-12 0)
(664 -1.26579e-12 0)
(664 -1.33069e-12 0)
(664 -1.44912e-12 0)
(664 -1.55349e-12 0)
(664 -1.54131e-12 0)
(664 -1.47205e-12 0)
(664 -1.44359e-12 0)
(664 -1.38898e-12 0)
(664 -1.33452e-12 0)
(664 -1.27596e-12 0)
(664 -1.15863e-12 0)
(664 -1.00263e-12 0)
(664 -8.71712e-13 0)
(664 -6.5709e-13 0)
(664 -4.85265e-13 0)
(664 -4.65427e-13 0)
(664 -5.63749e-13 0)
(664 -6.7306e-13 0)
(664 -6.83614e-13 0)
(664 -5.46604e-13 0)
(664 -4.44178e-13 0)
(664 -5.0749e-13 0)
(664 -6.78995e-13 0)
(664 -8.23306e-13 0)
(664 -9.05095e-13 0)
(664 -9.98035e-13 0)
(664 -1.11716e-12 0)
(664 -1.19774e-12 0)
(664 -1.08088e-12 0)
(664 -8.20612e-13 0)
(664 -5.31128e-13 0)
(664 -3.56545e-13 0)
(664 -3.13996e-13 0)
(664 -4.02099e-13 0)
(664 -4.59446e-13 0)
(664 -4.49247e-13 0)
(664 -5.39143e-13 0)
(664 -7.13804e-13 0)
(664 -9.3176e-13 0)
(664 -1.08549e-12 0)
(664 -1.18675e-12 0)
(664 -1.30781e-12 0)
(664 -1.34309e-12 0)
(664 -1.26498e-12 0)
(664 -1.06852e-12 0)
(664 -9.06907e-13 0)
(664 -7.79321e-13 0)
(664 -6.41623e-13 0)
(664 -5.1942e-13 0)
(664 -4.30854e-13 0)
(664 -3.44578e-13 0)
(664 -3.12571e-13 0)
(664 -3.53366e-13 0)
(664 -3.55327e-13 0)
(664 -3.04316e-13 0)
(664 -2.87024e-13 0)
(664 -3.4e-13 0)
(664 -4.20622e-13 0)
(664 -4.59464e-13 0)
(664 -4.5035e-13 0)
(664 -4.71369e-13 0)
(664 -4.22538e-13 0)
(664 -2.74397e-13 0)
(664 -1.78636e-13 0)
(664 -2.547e-13 0)
(664 -3.83208e-13 0)
(664 -5.10662e-13 0)
(664 -5.74595e-13 0)
(664 -6.05028e-13 0)
(664 -6.18699e-13 0)
(664 -6.05494e-13 0)
(664 -5.46986e-13 0)
(664 -4.75298e-13 0)
(664 -4.22438e-13 0)
(664 -3.65699e-13 0)
(664 -2.79912e-13 0)
(664 -1.26788e-13 0)
(664 2.25443e-14 0)
(664 3.28426e-14 0)
(664 8.31595e-14 0)
(664 2.22052e-13 0)
(664 3.95551e-13 0)
(664 5.49893e-13 0)
(664 6.08917e-13 0)
(664 5.50894e-13 0)
(664 4.3756e-13 0)
(664 2.95207e-13 0)
(664 1.77336e-13 0)
(664 1.6339e-13 0)
(664 2.83997e-13 0)
(664 4.18481e-13 0)
(664 4.66709e-13 0)
(664 4.32157e-13 0)
(664 2.77076e-13 0)
(664 5.5946e-14 0)
(664 -2.16452e-13 0)
(664 -3.95111e-13 0)
(664 -4.14525e-13 0)
(664 -4.24277e-13 0)
(664 -4.51679e-13 0)
(664 -4.55954e-13 0)
(664 -3.95525e-13 0)
(664 -2.53163e-13 0)
(664 -1.70263e-13 0)
(664 -1.12622e-13 0)
(664 1.49184e-14 0)
(664 2.14733e-13 0)
(664 5.00367e-13 0)
(664 8.0282e-13 0)
(664 1.00193e-12 0)
(664 1.13859e-12 0)
(664 1.14225e-12 0)
(664 1.01767e-12 0)
(664 8.65546e-13 0)
(664 6.1909e-13 0)
(664 4.17081e-13 0)
(664 2.03726e-13 0)
(664 -9.88406e-15 0)
(664 -1.73898e-13 0)
(664 -2.37444e-13 0)
(664 -2.4289e-13 0)
(664 -1.62513e-13 0)
(664 1.43822e-14 0)
(664 2.04335e-13 0)
(664 2.9886e-13 0)
(664 3.34013e-13 0)
(664 4.45766e-13 0)
(664 5.69032e-13 0)
(664 6.50462e-13 0)
(664 6.29311e-13 0)
(664 4.94177e-13 0)
(664 2.90759e-13 0)
(664 1.01101e-13 0)
(664 1.17812e-14 0)
(664 6.58513e-14 0)
(664 1.8564e-13 0)
(664 3.10859e-13 0)
(664 2.54855e-13 0)
(664 4.30566e-14 0)
(664 -1.73629e-13 0)
(664 -1.88858e-13 0)
(664 6.89561e-14 0)
(664 5.44534e-13 0)
(664 1.17428e-12 0)
(664 2.16656e-12 0)
(664 3.71266e-12 0)
(664 6.08409e-12 0)
(664 1.00004e-11 0)
(664 1.67155e-11 0)
(664 2.81131e-11 0)
(664 4.72654e-11 0)
(664 7.93693e-11 0)
(664 1.33014e-10 0)
(664 2.2255e-10 0)
(664 3.72055e-10 0)
(664 6.2162e-10 0)
(664 1.03841e-09 0)
(664 1.73453e-09 0)
(664 2.89719e-09 0)
(664 4.83942e-09 0)
(664 8.0848e-09 0)
(664 1.35088e-08 0)
(664 2.2576e-08 0)
(664 3.77375e-08 0)
(664 6.30975e-08 0)
(664 1.0553e-07 0)
(664 1.76555e-07 0)
(664 2.95487e-07 0)
(664 4.94728e-07 0)
(664 8.28665e-07 0)
(664 1.38865e-06 0)
(664 2.32819e-06 0)
(664 3.9055e-06 0)
(664 6.55508e-06 0)
(664 1.10088e-05 0)
(664 1.85002e-05 0)
(664 3.11103e-05 0)
(664 5.23524e-05 0)
(663.999 8.81635e-05 0)
(663.999 0.000148585 0)
(663.998 0.000250618 0)
(663.997 0.000423071 0)
(663.995 0.000714816 0)
(663.992 0.00120884 0)
(663.986 0.0020462 0)
(663.978 0.00346698 0)
(663.964 0.00588016 0)
(663.941 0.00998332 0)
(663.903 0.0169677 0)
(663.842 0.0288696 0)
(663.742 0.049175 0)
(663.58 0.083857 0)
(663.316 0.143166 0)
(662.888 0.244701 0)
(662.192 0.418746 0)
(661.064 0.717358 0)
(659.242 1.23036 0)
(656.307 2.11172 0)
(651.601 3.6278 0)
(644.144 6.22534 0)
(632.442 10.6741 0)
(615.37 18.1216 0)
(664 -2.62607e-15 0)
(664 -1.63635e-14 0)
(664 -4.04087e-14 0)
(664 -5.92098e-14 0)
(664 -3.61257e-14 0)
(664 -2.5254e-14 0)
(664 -2.8876e-14 0)
(664 -4.21982e-14 0)
(664 -8.98131e-14 0)
(664 -9.75622e-14 0)
(664 -1.07502e-13 0)
(664 -1.59467e-13 0)
(664 -1.92684e-13 0)
(664 -2.68163e-13 0)
(664 -3.55422e-13 0)
(664 -3.9884e-13 0)
(664 -4.61828e-13 0)
(664 -5.40865e-13 0)
(664 -5.45949e-13 0)
(664 -5.32761e-13 0)
(664 -5.08236e-13 0)
(664 -3.98799e-13 0)
(664 -2.50087e-13 0)
(664 -2.44743e-13 0)
(664 -3.44961e-13 0)
(664 -4.4872e-13 0)
(664 -4.57971e-13 0)
(664 -4.1972e-13 0)
(664 -4.49741e-13 0)
(664 -5.39596e-13 0)
(664 -5.73482e-13 0)
(664 -5.87916e-13 0)
(664 -6.15711e-13 0)
(664 -5.73023e-13 0)
(664 -4.29816e-13 0)
(664 -3.10291e-13 0)
(664 -2.84475e-13 0)
(664 -3.48807e-13 0)
(664 -4.37868e-13 0)
(664 -4.86391e-13 0)
(664 -4.91112e-13 0)
(664 -4.62386e-13 0)
(664 -4.99654e-13 0)
(664 -6.1942e-13 0)
(664 -7.54251e-13 0)
(664 -8.60655e-13 0)
(664 -8.80583e-13 0)
(664 -7.9491e-13 0)
(664 -6.5295e-13 0)
(664 -4.45098e-13 0)
(664 -2.75033e-13 0)
(664 -2.46356e-13 0)
(664 -3.01259e-13 0)
(664 -4.07318e-13 0)
(664 -4.83892e-13 0)
(664 -4.97972e-13 0)
(664 -4.81898e-13 0)
(664 -4.66546e-13 0)
(664 -4.8215e-13 0)
(664 -5.0757e-13 0)
(664 -6.12067e-13 0)
(664 -6.91255e-13 0)
(664 -6.87108e-13 0)
(664 -6.77105e-13 0)
(664 -6.91415e-13 0)
(664 -7.37666e-13 0)
(664 -8.10515e-13 0)
(664 -9.02682e-13 0)
(664 -1.05626e-12 0)
(664 -1.18683e-12 0)
(664 -1.28668e-12 0)
(664 -1.36966e-12 0)
(664 -1.4008e-12 0)
(664 -1.40685e-12 0)
(664 -1.32903e-12 0)
(664 -1.14361e-12 0)
(664 -9.01276e-13 0)
(664 -6.27365e-13 0)
(664 -4.48543e-13 0)
(664 -4.56509e-13 0)
(664 -5.72484e-13 0)
(664 -7.03496e-13 0)
(664 -7.64071e-13 0)
(664 -7.94452e-13 0)
(664 -8.03092e-13 0)
(664 -7.97264e-13 0)
(664 -8.52086e-13 0)
(664 -9.67606e-13 0)
(664 -1.07852e-12 0)
(664 -1.1908e-12 0)
(664 -1.30242e-12 0)
(664 -1.36217e-12 0)
(664 -1.38918e-12 0)
(664 -1.45889e-12 0)
(664 -1.47267e-12 0)
(664 -1.3911e-12 0)
(664 -1.25204e-12 0)
(664 -1.09219e-12 0)
(664 -1.0113e-12 0)
(664 -9.62118e-13 0)
(664 -9.50584e-13 0)
(664 -9.82747e-13 0)
(664 -1.02288e-12 0)
(664 -1.07675e-12 0)
(664 -1.09231e-12 0)
(664 -1.07311e-12 0)
(664 -1.01343e-12 0)
(664 -8.85176e-13 0)
(664 -6.85849e-13 0)
(664 -5.44003e-13 0)
(664 -4.55839e-13 0)
(664 -3.60277e-13 0)
(664 -2.85019e-13 0)
(664 -3.22915e-13 0)
(664 -4.0868e-13 0)
(664 -4.7237e-13 0)
(664 -5.56065e-13 0)
(664 -7.0674e-13 0)
(664 -7.51797e-13 0)
(664 -6.58741e-13 0)
(664 -5.27177e-13 0)
(664 -4.2372e-13 0)
(664 -3.27364e-13 0)
(664 -2.76751e-13 0)
(664 -2.71296e-13 0)
(664 -3.19699e-13 0)
(664 -4.24678e-13 0)
(664 -4.39876e-13 0)
(664 -3.83586e-13 0)
(664 -2.76544e-13 0)
(664 -2.53581e-13 0)
(664 -3.51787e-13 0)
(664 -4.95399e-13 0)
(664 -5.82207e-13 0)
(664 -5.82527e-13 0)
(664 -5.69937e-13 0)
(664 -5.97528e-13 0)
(664 -6.85144e-13 0)
(664 -6.1851e-13 0)
(664 -4.53465e-13 0)
(664 -4.03342e-13 0)
(664 -5.25817e-13 0)
(664 -7.53872e-13 0)
(664 -8.98956e-13 0)
(664 -9.42536e-13 0)
(664 -8.58164e-13 0)
(664 -7.37035e-13 0)
(664 -5.90956e-13 0)
(664 -4.23685e-13 0)
(664 -3.34548e-13 0)
(664 -3.13028e-13 0)
(664 -2.18459e-13 0)
(664 -2.43258e-14 0)
(664 8.43049e-14 0)
(664 4.29299e-14 0)
(664 -2.0992e-14 0)
(664 -1.05143e-13 0)
(664 -2.57112e-13 0)
(664 -3.87071e-13 0)
(664 -3.22665e-13 0)
(664 -9.32372e-14 0)
(664 5.03498e-14 0)
(664 3.1744e-14 0)
(664 -8.4083e-14 0)
(664 -2.25012e-13 0)
(664 -3.45207e-13 0)
(664 -4.28593e-13 0)
(664 -4.08781e-13 0)
(664 -3.05121e-13 0)
(664 -1.51625e-13 0)
(664 -1.01018e-16 0)
(664 9.5004e-14 0)
(664 1.41741e-13 0)
(664 5.22511e-14 0)
(664 -1.82649e-13 0)
(664 -4.37307e-13 0)
(664 -6.32703e-13 0)
(664 -7.09798e-13 0)
(664 -7.39027e-13 0)
(664 -7.13341e-13 0)
(664 -7.18091e-13 0)
(664 -7.92257e-13 0)
(664 -7.83818e-13 0)
(664 -6.37966e-13 0)
(664 -4.20851e-13 0)
(664 -1.55193e-13 0)
(664 5.22333e-15 0)
(664 6.17355e-14 0)
(664 3.32546e-14 0)
(664 4.71427e-14 0)
(664 6.56669e-14 0)
(664 2.61003e-14 0)
(664 -1.18321e-13 0)
(664 -2.36666e-13 0)
(664 -2.83122e-13 0)
(664 -3.47324e-13 0)
(664 -4.42122e-13 0)
(664 -4.72127e-13 0)
(664 -4.92443e-13 0)
(664 -5.14709e-13 0)
(664 -5.30985e-13 0)
(664 -4.84914e-13 0)
(664 -4.37709e-13 0)
(664 -3.3478e-13 0)
(664 -1.33608e-13 0)
(664 8.46448e-14 0)
(664 2.7801e-13 0)
(664 4.88983e-13 0)
(664 6.50467e-13 0)
(664 7.2704e-13 0)
(664 7.03571e-13 0)
(664 6.78256e-13 0)
(664 6.52366e-13 0)
(664 6.54802e-13 0)
(664 5.91129e-13 0)
(664 4.08728e-13 0)
(664 2.26035e-13 0)
(664 1.26968e-13 0)
(664 1.36377e-13 0)
(664 2.10675e-13 0)
(664 3.40099e-13 0)
(664 4.64208e-13 0)
(664 5.82148e-13 0)
(664 6.83484e-13 0)
(664 6.86786e-13 0)
(664 6.1902e-13 0)
(664 5.04484e-13 0)
(664 3.81825e-13 0)
(664 3.66714e-13 0)
(664 4.05199e-13 0)
(664 4.11347e-13 0)
(664 3.32469e-13 0)
(664 1.53831e-13 0)
(664 -4.21086e-14 0)
(664 -2.02117e-13 0)
(664 -3.28927e-13 0)
(664 -3.68486e-13 0)
(664 -3.15075e-13 0)
(664 -1.0037e-13 0)
(664 3.16939e-13 0)
(664 1.00086e-12 0)
(664 2.01972e-12 0)
(664 3.56877e-12 0)
(664 5.81774e-12 0)
(664 9.30927e-12 0)
(664 1.50664e-11 0)
(664 2.47947e-11 0)
(664 4.10671e-11 0)
(664 6.83294e-11 0)
(664 1.13812e-10 0)
(664 1.89564e-10 0)
(664 3.15746e-10 0)
(664 5.25817e-10 0)
(664 8.75331e-10 0)
(664 1.45695e-09 0)
(664 2.42466e-09 0)
(664 4.03442e-09 0)
(664 6.71182e-09 0)
(664 1.11649e-08 0)
(664 1.85707e-08 0)
(664 3.08871e-08 0)
(664 5.13696e-08 0)
(664 8.54332e-08 0)
(664 1.42083e-07 0)
(664 2.36301e-07 0)
(664 3.93006e-07 0)
(664 6.53657e-07 0)
(664 1.08723e-06 0)
(664 1.80853e-06 0)
(664 3.00856e-06 0)
(664 5.00529e-06 0)
(664 8.32792e-06 0)
(664 1.38575e-05 0)
(664 2.30608e-05 0)
(664 3.838e-05 0)
(664 6.38815e-05 0)
(663.999 0.000106337 0)
(663.999 0.000177021 0)
(663.998 0.00029471 0)
(663.998 0.000490668 0)
(663.996 0.000816947 0)
(663.994 0.0013602 0)
(663.99 0.00226467 0)
(663.983 0.00377035 0)
(663.972 0.00627651 0)
(663.955 0.010447 0)
(663.928 0.0173853 0)
(663.884 0.028924 0)
(663.812 0.0481046 0)
(663.698 0.0799704 0)
(663.513 0.132873 0)
(663.217 0.220625 0)
(662.742 0.366019 0)
(661.983 0.606594 0)
(660.774 1.0039 0)
(658.854 1.65854 0)
(655.817 2.73301 0)
(651.068 4.48825 0)
(643.672 7.32616 0)
(632.895 11.8595 0)
(664 -2.32001e-14 0)
(664 -3.26722e-14 0)
(664 -6.63202e-14 0)
(664 -7.25376e-14 0)
(664 -5.27451e-14 0)
(664 -1.37709e-14 0)
(664 8.89015e-15 0)
(664 2.35868e-15 0)
(664 -1.08633e-14 0)
(664 -1.23005e-14 0)
(664 -3.78337e-14 0)
(664 -1.1737e-13 0)
(664 -1.70326e-13 0)
(664 -6.96183e-14 0)
(664 2.78313e-14 0)
(664 9.49559e-14 0)
(664 2.76807e-14 0)
(664 -1.2345e-13 0)
(664 -2.1544e-13 0)
(664 -3.02937e-13 0)
(664 -4.12195e-13 0)
(664 -4.6665e-13 0)
(664 -4.53342e-13 0)
(664 -4.28424e-13 0)
(664 -5.11413e-13 0)
(664 -6.07994e-13 0)
(664 -7.14434e-13 0)
(664 -7.9499e-13 0)
(664 -7.83107e-13 0)
(664 -7.33768e-13 0)
(664 -6.41486e-13 0)
(664 -5.99561e-13 0)
(664 -6.26878e-13 0)
(664 -6.96176e-13 0)
(664 -7.2631e-13 0)
(664 -6.88899e-13 0)
(664 -6.42357e-13 0)
(664 -6.74544e-13 0)
(664 -7.82763e-13 0)
(664 -8.11231e-13 0)
(664 -7.4912e-13 0)
(664 -7.12267e-13 0)
(664 -7.63474e-13 0)
(664 -7.35922e-13 0)
(664 -6.99458e-13 0)
(664 -6.47352e-13 0)
(664 -5.73982e-13 0)
(664 -5.61525e-13 0)
(664 -4.87246e-13 0)
(664 -4.4738e-13 0)
(664 -3.83581e-13 0)
(664 -3.21855e-13 0)
(664 -2.93034e-13 0)
(664 -3.50291e-13 0)
(664 -5.15315e-13 0)
(664 -6.022e-13 0)
(664 -5.7171e-13 0)
(664 -4.96664e-13 0)
(664 -4.65311e-13 0)
(664 -4.48558e-13 0)
(664 -3.73024e-13 0)
(664 -2.91334e-13 0)
(664 -2.62028e-13 0)
(664 -3.47313e-13 0)
(664 -5.62369e-13 0)
(664 -7.94029e-13 0)
(664 -8.61846e-13 0)
(664 -9.00774e-13 0)
(664 -9.75876e-13 0)
(664 -1.06449e-12 0)
(664 -1.08618e-12 0)
(664 -1.07021e-12 0)
(664 -1.05663e-12 0)
(664 -1.00688e-12 0)
(664 -8.72262e-13 0)
(664 -8.10589e-13 0)
(664 -7.28071e-13 0)
(664 -6.37312e-13 0)
(664 -5.99281e-13 0)
(664 -5.72443e-13 0)
(664 -6.06108e-13 0)
(664 -6.42599e-13 0)
(664 -7.10152e-13 0)
(664 -7.78096e-13 0)
(664 -7.15592e-13 0)
(664 -4.744e-13 0)
(664 -1.84136e-13 0)
(664 3.54513e-14 0)
(664 1.51145e-13 0)
(664 1.97651e-13 0)
(664 2.16442e-13 0)
(664 9.28799e-14 0)
(664 -1.05841e-13 0)
(664 -3.21005e-13 0)
(664 -5.44978e-13 0)
(664 -7.24632e-13 0)
(664 -8.71777e-13 0)
(664 -9.25174e-13 0)
(664 -9.88955e-13 0)
(664 -1.13753e-12 0)
(664 -1.2162e-12 0)
(664 -1.19641e-12 0)
(664 -1.17834e-12 0)
(664 -1.12686e-12 0)
(664 -1.0739e-12 0)
(664 -1.07346e-12 0)
(664 -1.14169e-12 0)
(664 -1.2964e-12 0)
(664 -1.44816e-12 0)
(664 -1.46746e-12 0)
(664 -1.43463e-12 0)
(664 -1.46104e-12 0)
(664 -1.48799e-12 0)
(664 -1.44383e-12 0)
(664 -1.34217e-12 0)
(664 -1.29037e-12 0)
(664 -1.37898e-12 0)
(664 -1.54118e-12 0)
(664 -1.59277e-12 0)
(664 -1.49725e-12 0)
(664 -1.36389e-12 0)
(664 -1.29616e-12 0)
(664 -1.24606e-12 0)
(664 -1.18071e-12 0)
(664 -1.11846e-12 0)
(664 -1.13777e-12 0)
(664 -1.27545e-12 0)
(664 -1.43643e-12 0)
(664 -1.48893e-12 0)
(664 -1.42271e-12 0)
(664 -1.26787e-12 0)
(664 -1.12598e-12 0)
(664 -1.03673e-12 0)
(664 -1.00153e-12 0)
(664 -9.31646e-13 0)
(664 -7.87519e-13 0)
(664 -5.93014e-13 0)
(664 -3.57921e-13 0)
(664 -5.31589e-14 0)
(664 2.20687e-13 0)
(664 3.58971e-13 0)
(664 3.4126e-13 0)
(664 2.67592e-13 0)
(664 2.09958e-13 0)
(664 1.46058e-13 0)
(664 -2.98012e-14 0)
(664 -2.38936e-13 0)
(664 -3.06466e-13 0)
(664 -2.86727e-13 0)
(664 -2.40465e-13 0)
(664 -2.10028e-13 0)
(664 -2.46799e-13 0)
(664 -3.57179e-13 0)
(664 -4.20454e-13 0)
(664 -3.6912e-13 0)
(664 -1.99536e-13 0)
(664 -5.77257e-14 0)
(664 -2.38646e-14 0)
(664 3.20417e-14 0)
(664 5.49562e-14 0)
(664 -8.04104e-14 0)
(664 -3.33473e-13 0)
(664 -5.97907e-13 0)
(664 -7.51338e-13 0)
(664 -8.6375e-13 0)
(664 -9.44236e-13 0)
(664 -9.06291e-13 0)
(664 -8.26486e-13 0)
(664 -7.31348e-13 0)
(664 -5.92912e-13 0)
(664 -4.44588e-13 0)
(664 -3.48144e-13 0)
(664 -3.55974e-13 0)
(664 -3.78376e-13 0)
(664 -3.71749e-13 0)
(664 -3.55396e-13 0)
(664 -3.3148e-13 0)
(664 -2.76506e-13 0)
(664 -2.47699e-13 0)
(664 -3.13951e-13 0)
(664 -4.00303e-13 0)
(664 -3.71135e-13 0)
(664 -2.52042e-13 0)
(664 -1.43997e-13 0)
(664 -8.74612e-14 0)
(664 -4.56702e-15 0)
(664 1.10339e-13 0)
(664 1.43928e-13 0)
(664 1.4838e-13 0)
(664 9.42826e-14 0)
(664 2.6708e-14 0)
(664 -3.76712e-14 0)
(664 -6.91886e-14 0)
(664 -1.18053e-13 0)
(664 -2.42349e-13 0)
(664 -3.82647e-13 0)
(664 -4.3295e-13 0)
(664 -3.76985e-13 0)
(664 -2.66773e-13 0)
(664 -2.10376e-13 0)
(664 -2.11635e-13 0)
(664 -1.04853e-13 0)
(664 8.33859e-14 0)
(664 2.42926e-13 0)
(664 3.7246e-13 0)
(664 5.01128e-13 0)
(664 5.61476e-13 0)
(664 5.63873e-13 0)
(664 5.20409e-13 0)
(664 4.18097e-13 0)
(664 2.41867e-13 0)
(664 6.53527e-14 0)
(664 4.10372e-14 0)
(664 1.14176e-13 0)
(664 2.3392e-13 0)
(664 3.49894e-13 0)
(664 4.21602e-13 0)
(664 4.40357e-13 0)
(664 4.55605e-13 0)
(664 4.75849e-13 0)
(664 4.22652e-13 0)
(664 3.47394e-13 0)
(664 3.20598e-13 0)
(664 2.80293e-13 0)
(664 1.40344e-13 0)
(664 1.33565e-14 0)
(664 -3.66612e-14 0)
(664 -1.92292e-14 0)
(664 2.29502e-14 0)
(664 1.21815e-13 0)
(664 2.41171e-13 0)
(664 2.4555e-13 0)
(664 1.98468e-13 0)
(664 1.40547e-13 0)
(664 1.29442e-13 0)
(664 2.65654e-13 0)
(664 4.84427e-13 0)
(664 7.55197e-13 0)
(664 9.69129e-13 0)
(664 1.14005e-12 0)
(664 1.52838e-12 0)
(664 2.28736e-12 0)
(664 3.5775e-12 0)
(664 5.90756e-12 0)
(664 9.88201e-12 0)
(664 1.65209e-11 0)
(664 2.75076e-11 0)
(664 4.57962e-11 0)
(664 7.62723e-11 0)
(664 1.2709e-10 0)
(664 2.1166e-10 0)
(664 3.51991e-10 0)
(664 5.84576e-10 0)
(664 9.69938e-10 0)
(664 1.60831e-09 0)
(664 2.66558e-09 0)
(664 4.41605e-09 0)
(664 7.31339e-09 0)
(664 1.21078e-08 0)
(664 2.00396e-08 0)
(664 3.31589e-08 0)
(664 5.48528e-08 0)
(664 9.07172e-08 0)
(664 1.49994e-07 0)
(664 2.47944e-07 0)
(664 4.09763e-07 0)
(664 6.77041e-07 0)
(664 1.1184e-06 0)
(664 1.84708e-06 0)
(664 3.04983e-06 0)
(664 5.03462e-06 0)
(664 8.30912e-06 0)
(664 1.37101e-05 0)
(664 2.26159e-05 0)
(664 3.7297e-05 0)
(664 6.1491e-05 0)
(664 0.000101349 0)
(663.999 0.000166989 0)
(663.999 0.000275046 0)
(663.998 0.000452854 0)
(663.997 0.000745304 0)
(663.995 0.00122606 0)
(663.992 0.00201595 0)
(663.988 0.00331291 0)
(663.98 0.00544104 0)
(663.969 0.00893033 0)
(663.95 0.0146466 0)
(663.919 0.0240024 0)
(663.871 0.0392989 0)
(663.794 0.0642793 0)
(663.671 0.10502 0)
(663.475 0.171363 0)
(663.165 0.279208 0)
(662.672 0.454168 0)
(661.893 0.737271 0)
(660.665 1.19406 0)
(658.735 1.92775 0)
(655.725 3.1009 0)
(651.031 4.95736 0)
(644.133 7.87284 0)
(664 2.84008e-14 0)
(664 6.04073e-14 0)
(664 8.28687e-14 0)
(664 8.95147e-14 0)
(664 1.02087e-13 0)
(664 1.31426e-13 0)
(664 2.18625e-13 0)
(664 2.91001e-13 0)
(664 3.78778e-13 0)
(664 4.11686e-13 0)
(664 4.03105e-13 0)
(664 3.50262e-13 0)
(664 3.09128e-13 0)
(664 3.50397e-13 0)
(664 4.01728e-13 0)
(664 4.4014e-13 0)
(664 4.89485e-13 0)
(664 5.1265e-13 0)
(664 4.57786e-13 0)
(664 3.16086e-13 0)
(664 1.62164e-13 0)
(664 -5.17177e-14 0)
(664 -2.97028e-13 0)
(664 -4.66409e-13 0)
(664 -4.58515e-13 0)
(664 -3.79065e-13 0)
(664 -4.01323e-13 0)
(664 -4.87525e-13 0)
(664 -4.6437e-13 0)
(664 -3.69686e-13 0)
(664 -3.54558e-13 0)
(664 -3.77323e-13 0)
(664 -4.46751e-13 0)
(664 -6.22498e-13 0)
(664 -8.29809e-13 0)
(664 -9.62796e-13 0)
(664 -9.89715e-13 0)
(664 -9.25753e-13 0)
(664 -8.91391e-13 0)
(664 -9.02537e-13 0)
(664 -8.57441e-13 0)
(664 -8.03619e-13 0)
(664 -7.16069e-13 0)
(664 -6.07175e-13 0)
(664 -5.1492e-13 0)
(664 -4.74742e-13 0)
(664 -4.58963e-13 0)
(664 -4.8694e-13 0)
(664 -5.78017e-13 0)
(664 -6.94646e-13 0)
(664 -8.02641e-13 0)
(664 -7.98066e-13 0)
(664 -7.41983e-13 0)
(664 -6.45741e-13 0)
(664 -5.44172e-13 0)
(664 -4.40404e-13 0)
(664 -2.85042e-13 0)
(664 -1.96613e-13 0)
(664 -2.25519e-13 0)
(664 -3.07388e-13 0)
(664 -3.87161e-13 0)
(664 -4.91219e-13 0)
(664 -6.05236e-13 0)
(664 -7.47485e-13 0)
(664 -8.59479e-13 0)
(664 -8.78132e-13 0)
(664 -8.66182e-13 0)
(664 -9.03714e-13 0)
(664 -8.75871e-13 0)
(664 -7.425e-13 0)
(664 -6.63386e-13 0)
(664 -6.75409e-13 0)
(664 -6.7723e-13 0)
(664 -5.64623e-13 0)
(664 -4.2965e-13 0)
(664 -3.66255e-13 0)
(664 -4.14724e-13 0)
(664 -5.30032e-13 0)
(664 -6.58815e-13 0)
(664 -7.79191e-13 0)
(664 -8.30097e-13 0)
(664 -8.03517e-13 0)
(664 -6.79692e-13 0)
(664 -5.94217e-13 0)
(664 -6.73753e-13 0)
(664 -7.75114e-13 0)
(664 -8.63666e-13 0)
(664 -9.21021e-13 0)
(664 -9.4711e-13 0)
(664 -9.13796e-13 0)
(664 -8.7222e-13 0)
(664 -9.24593e-13 0)
(664 -9.94728e-13 0)
(664 -9.71168e-13 0)
(664 -8.62237e-13 0)
(664 -8.1324e-13 0)
(664 -8.52921e-13 0)
(664 -8.97394e-13 0)
(664 -8.43775e-13 0)
(664 -7.76674e-13 0)
(664 -6.6864e-13 0)
(664 -4.63263e-13 0)
(664 -2.62382e-13 0)
(664 -2.27119e-13 0)
(664 -2.6361e-13 0)
(664 -3.01326e-13 0)
(664 -2.6389e-13 0)
(664 -2.84747e-13 0)
(664 -4.31882e-13 0)
(664 -6.53616e-13 0)
(664 -8.01242e-13 0)
(664 -8.74277e-13 0)
(664 -8.72926e-13 0)
(664 -9.45968e-13 0)
(664 -1.13514e-12 0)
(664 -1.28144e-12 0)
(664 -1.25151e-12 0)
(664 -1.14329e-12 0)
(664 -9.89264e-13 0)
(664 -8.50436e-13 0)
(664 -7.64014e-13 0)
(664 -8.55323e-13 0)
(664 -1.09293e-12 0)
(664 -1.26295e-12 0)
(664 -1.37602e-12 0)
(664 -1.41603e-12 0)
(664 -1.27504e-12 0)
(664 -1.10745e-12 0)
(664 -9.99167e-13 0)
(664 -9.88134e-13 0)
(664 -1.00866e-12 0)
(664 -9.13887e-13 0)
(664 -7.66728e-13 0)
(664 -6.71877e-13 0)
(664 -5.69989e-13 0)
(664 -5.6021e-13 0)
(664 -6.75291e-13 0)
(664 -7.88571e-13 0)
(664 -8.71805e-13 0)
(664 -8.26765e-13 0)
(664 -6.77211e-13 0)
(664 -3.38789e-13 0)
(664 1.09899e-13 0)
(664 5.16559e-13 0)
(664 8.55874e-13 0)
(664 1.23192e-12 0)
(664 1.55621e-12 0)
(664 1.70633e-12 0)
(664 1.70901e-12 0)
(664 1.73953e-12 0)
(664 1.69834e-12 0)
(664 1.45188e-12 0)
(664 1.10119e-12 0)
(664 8.07602e-13 0)
(664 5.51243e-13 0)
(664 3.23557e-13 0)
(664 1.64485e-13 0)
(664 2.65536e-14 0)
(664 -1.96462e-13 0)
(664 -3.92751e-13 0)
(664 -5.28108e-13 0)
(664 -6.70541e-13 0)
(664 -7.35348e-13 0)
(664 -7.34616e-13 0)
(664 -6.95021e-13 0)
(664 -6.34347e-13 0)
(664 -6.26042e-13 0)
(664 -7.33174e-13 0)
(664 -9.1812e-13 0)
(664 -1.03157e-12 0)
(664 -1.03752e-12 0)
(664 -1.04835e-12 0)
(664 -1.10344e-12 0)
(664 -1.11979e-12 0)
(664 -1.0094e-12 0)
(664 -8.80513e-13 0)
(664 -8.31125e-13 0)
(664 -8.53416e-13 0)
(664 -8.22412e-13 0)
(664 -8.35925e-13 0)
(664 -9.2978e-13 0)
(664 -1.02929e-12 0)
(664 -1.03514e-12 0)
(664 -9.82879e-13 0)
(664 -8.70379e-13 0)
(664 -7.86271e-13 0)
(664 -7.2082e-13 0)
(664 -6.98832e-13 0)
(664 -6.18504e-13 0)
(664 -4.12768e-13 0)
(664 -2.25389e-13 0)
(664 -9.05349e-14 0)
(664 7.28084e-15 0)
(664 1.0556e-13 0)
(664 1.87447e-13 0)
(664 2.02456e-13 0)
(664 1.64712e-13 0)
(664 9.35587e-14 0)
(664 3.04491e-14 0)
(664 -2.1613e-14 0)
(664 2.25363e-14 0)
(664 8.75949e-14 0)
(664 1.88e-13 0)
(664 2.25362e-13 0)
(664 1.88293e-13 0)
(664 1.47637e-13 0)
(664 1.69125e-13 0)
(664 1.23062e-13 0)