/*--------------------------------*- C++ -*----------------------------------*\
| =========                 |                                                 |
| \\      /  F ield         | OpenFOAM: The Open Source CFD Toolbox           |
|  \\    /   O peration     | Version:  2412                                  |
|   \\  /    A nd           | Website:  www.openfoam.com                      |
|    \\/     M anipulation  |                                                 |
\*---------------------------------------------------------------------------*/
FoamFile
{
    version     2.0;
    format      ascii;
    arch        "LSB;label=32;scalar=64";
    class       volVectorField;
    location    "0.0015";
    object      U_0;
}
// * * * * * * * * * * * * * * * * * * * * * * * * * * * * * * * * * * * * * //

dimensions      [0 1 -1 0 0 0 0];

internalField   nonuniform List<vector> 
180000
(
(664 1.54105e-14 0)
(664 2.52263e-14 0)
(664 2.42447e-14 0)
(664 3.90809e-14 0)
(664 2.57892e-14 0)
(664 2.56481e-14 0)
(664 1.16023e-14 0)
(664 -3.08108e-14 0)
(664 -8.19565e-14 0)
(664 -1.25116e-13 0)
(664 -1.66276e-13 0)
(664 -2.16382e-13 0)
(664 -2.64036e-13 0)
(664 -2.97171e-13 0)
(664 -3.21373e-13 0)
(664 -3.1767e-13 0)
(664 -3.01131e-13 0)
(664 -2.88775e-13 0)
(664 -2.28414e-13 0)
(664 -1.82738e-13 0)
(664 -1.78171e-13 0)
(664 -1.72853e-13 0)
(664 -1.72299e-13 0)
(664 -1.78883e-13 0)
(664 -1.93651e-13 0)
(664 -1.95998e-13 0)
(664 -2.23664e-13 0)
(664 -2.43916e-13 0)
(664 -2.61837e-13 0)
(664 -2.51006e-13 0)
(664 -2.605e-13 0)
(664 -2.87014e-13 0)
(664 -3.1837e-13 0)
(664 -3.45106e-13 0)
(664 -3.55066e-13 0)
(664 -3.67046e-13 0)
(664 -3.68033e-13 0)
(664 -3.43114e-13 0)
(664 -3.15277e-13 0)
(664 -2.84622e-13 0)
(664 -2.59837e-13 0)
(664 -2.51168e-13 0)
(664 -2.25715e-13 0)
(664 -1.85241e-13 0)
(664 -1.40312e-13 0)
(664 -1.04e-13 0)
(664 -7.60044e-14 0)
(664 -7.16664e-14 0)
(664 -6.59326e-14 0)
(664 -7.13965e-14 0)
(664 -7.89496e-14 0)
(664 -8.19312e-14 0)
(664 -1.07299e-13 0)
(664 -1.30113e-13 0)
(664 -1.3672e-13 0)
(664 -1.14611e-13 0)
(664 -9.58479e-14 0)
(664 -6.75353e-14 0)
(664 -4.05551e-14 0)
(664 -2.16014e-14 0)
(664 -6.67752e-15 0)
(664 -7.49362e-15 0)
(664 -3.16967e-14 0)
(664 -7.44503e-14 0)
(664 -1.07936e-13 0)
(664 -1.4316e-13 0)
(664 -2.01956e-13 0)
(664 -2.71741e-13 0)
(664 -3.82612e-13 0)
(664 -5.00303e-13 0)
(664 -6.07999e-13 0)
(664 -6.82777e-13 0)
(664 -7.2371e-13 0)
(664 -7.50542e-13 0)
(664 -7.5805e-13 0)
(664 -7.45188e-13 0)
(664 -7.25544e-13 0)
(664 -6.99251e-13 0)
(664 -6.67907e-13 0)
(664 -6.46984e-13 0)
(664 -6.43365e-13 0)
(664 -6.3443e-13 0)
(664 -6.24984e-13 0)
(664 -6.00216e-13 0)
(664 -5.48382e-13 0)
(664 -5.00234e-13 0)
(664 -4.53668e-13 0)
(664 -4.21076e-13 0)
(664 -3.95951e-13 0)
(664 -4.04418e-13 0)
(664 -4.42419e-13 0)
(664 -4.94164e-13 0)
(664 -5.57898e-13 0)
(664 -6.12643e-13 0)
(664 -6.66173e-13 0)
(664 -6.85946e-13 0)
(664 -7.00637e-13 0)
(664 -6.9578e-13 0)
(664 -7.07532e-13 0)
(664 -7.13633e-13 0)
(664 -7.13129e-13 0)
(664 -7.01619e-13 0)
(664 -6.98496e-13 0)
(664 -7.0422e-13 0)
(664 -7.10058e-13 0)
(664 -6.93886e-13 0)
(664 -6.58652e-13 0)
(664 -6.09575e-13 0)
(664 -5.67292e-13 0)
(664 -5.26865e-13 0)
(664 -4.90538e-13 0)
(664 -4.92875e-13 0)
(664 -4.95623e-13 0)
(664 -5.00018e-13 0)
(664 -5.0202e-13 0)
(664 -5.11082e-13 0)
(664 -5.19376e-13 0)
(664 -5.45273e-13 0)
(664 -5.78576e-13 0)
(664 -6.57236e-13 0)
(664 -7.41056e-13 0)
(664 -7.95007e-13 0)
(664 -8.58397e-13 0)
(664 -9.11154e-13 0)
(664 -9.57644e-13 0)
(664 -9.99598e-13 0)
(664 -1.02857e-12 0)
(664 -1.02995e-12 0)
(664 -1.00637e-12 0)
(664 -9.93186e-13 0)
(664 -9.7306e-13 0)
(664 -9.34556e-13 0)
(664 -9.09521e-13 0)
(664 -8.69374e-13 0)
(664 -8.30423e-13 0)
(664 -8.16792e-13 0)
(664 -7.86071e-13 0)
(664 -7.69651e-13 0)
(664 -7.52937e-13 0)
(664 -7.46211e-13 0)
(664 -7.85186e-13 0)
(664 -8.24635e-13 0)
(664 -8.47766e-13 0)
(664 -8.68833e-13 0)
(664 -8.50125e-13 0)
(664 -8.18911e-13 0)
(664 -8.04755e-13 0)
(664 -8.10957e-13 0)
(664 -8.21995e-13 0)
(664 -8.36511e-13 0)
(664 -8.41511e-13 0)
(664 -8.21687e-13 0)
(664 -8.25721e-13 0)
(664 -8.16305e-13 0)
(664 -8.02641e-13 0)
(664 -7.93584e-13 0)
(664 -7.99637e-13 0)
(664 -7.91969e-13 0)
(664 -7.76395e-13 0)
(664 -7.50312e-13 0)
(664 -6.99683e-13 0)
(664 -6.83044e-13 0)
(664 -7.01402e-13 0)
(664 -7.05404e-13 0)
(664 -7.21657e-13 0)
(664 -7.19518e-13 0)
(664 -7.20439e-13 0)
(664 -7.46777e-13 0)
(664 -7.70871e-13 0)
(664 -7.90315e-13 0)
(664 -8.17177e-13 0)
(664 -8.238e-13 0)
(664 -8.20989e-13 0)
(664 -8.25598e-13 0)
(664 -8.15317e-13 0)
(664 -8.03862e-13 0)
(664 -7.90342e-13 0)
(664 -7.6411e-13 0)
(664 -7.49436e-13 0)
(664 -7.39543e-13 0)
(664 -7.16028e-13 0)
(664 -6.96467e-13 0)
(664 -6.91538e-13 0)
(664 -6.82311e-13 0)
(664 -6.74852e-13 0)
(664 -6.76042e-13 0)
(664 -6.88642e-13 0)
(664 -7.01592e-13 0)
(664 -7.25959e-13 0)
(664 -7.40085e-13 0)
(664 -7.61464e-13 0)
(664 -7.82743e-13 0)
(664 -7.89958e-13 0)
(664 -7.76772e-13 0)
(664 -7.41971e-13 0)
(664 -7.24404e-13 0)
(664 -7.01709e-13 0)
(664 -6.71595e-13 0)
(664 -6.50874e-13 0)
(664 -6.25408e-13 0)
(664 -6.01476e-13 0)
(664 -5.59246e-13 0)
(664 -5.3057e-13 0)
(664 -5.1957e-13 0)
(664 -5.09811e-13 0)
(664 -5.07875e-13 0)
(664 -5.2021e-13 0)
(664 -5.09931e-13 0)
(664 -4.96247e-13 0)
(664 -4.93585e-13 0)
(664 -4.60767e-13 0)
(664 -4.22654e-13 0)
(664 -3.94383e-13 0)
(664 -3.59785e-13 0)
(664 -3.44327e-13 0)
(664 -3.41642e-13 0)
(664 -3.25389e-13 0)
(664 -3.24754e-13 0)
(664 -3.16879e-13 0)
(664 -3.09363e-13 0)
(664 -3.16725e-13 0)
(664 -3.33073e-13 0)
(664 -3.51105e-13 0)
(664 -3.65322e-13 0)
(664 -3.71224e-13 0)
(664 -3.86165e-13 0)
(664 -4.07495e-13 0)
(664 -4.33362e-13 0)
(664 -4.50761e-13 0)
(664 -4.60588e-13 0)
(664 -4.71136e-13 0)
(664 -4.66149e-13 0)
(664 -4.71529e-13 0)
(664 -4.87469e-13 0)
(664 -5.07862e-13 0)
(664 -5.31736e-13 0)
(664 -5.71977e-13 0)
(664 -6.19694e-13 0)
(664 -6.5892e-13 0)
(664 -6.91787e-13 0)
(664 -6.79793e-13 0)
(664 -5.84933e-13 0)
(664 -4.00932e-13 0)
(664 -6.28179e-14 0)
(664 5.30525e-13 0)
(664 1.53215e-12 0)
(664 3.21791e-12 0)
(664 6.03693e-12 0)
(664 1.07542e-11 0)
(664 1.86665e-11 0)
(664 3.19166e-11 0)
(664 5.41421e-11 0)
(664 9.14791e-11 0)
(664 1.5423e-10 0)
(664 2.59747e-10 0)
(664 4.37301e-10 0)
(664 7.36249e-10 0)
(664 1.23989e-09 0)
(664 2.089e-09 0)
(664 3.5215e-09 0)
(664 5.94033e-09 0)
(664 1.00275e-08 0)
(664 1.69404e-08 0)
(664 2.86415e-08 0)
(664 4.84675e-08 0)
(664 8.20892e-08 0)
(664 1.39169e-07 0)
(664 2.36164e-07 0)
(664 4.01181e-07 0)
(664 6.82215e-07 0)
(664 1.16144e-06 0)
(664 1.97954e-06 0)
(664 3.37803e-06 0)
(664 5.7716e-06 0)
(664 9.87422e-06 0)
(664 1.69154e-05 0)
(663.999 2.90187e-05 0)
(663.999 4.98526e-05 0)
(663.998 8.57736e-05 0)
(663.997 0.0001478 0)
(663.995 0.000255088 0)
(663.992 0.00044096 0)
(663.986 0.000763557 0)
(663.977 0.00132437 0)
(663.962 0.00230116 0)
(663.937 0.00400534 0)
(663.894 0.00698439 0)
(663.824 0.012201 0)
(663.707 0.0213543 0)
(663.51 0.0374426 0)
(663.182 0.0657807 0)
(662.633 0.115772 0)
(661.713 0.204176 0)
(660.171 0.360706 0)
(657.585 0.638872 0)
(653.248 1.13277 0)
(646.005 2.01416 0)
(633.845 3.57814 0)
(613.724 6.39944 0)
(581.886 11.3684 0)
(664 -7.27831e-15 0)
(664 -1.69509e-14 0)
(664 -1.36507e-14 0)
(664 -1.21865e-14 0)
(664 2.2392e-15 0)
(664 3.96285e-15 0)
(664 -1.67363e-15 0)
(664 -3.18798e-14 0)
(664 -9.95796e-14 0)
(664 -1.70862e-13 0)
(664 -2.45366e-13 0)
(664 -3.27845e-13 0)
(664 -3.92423e-13 0)
(664 -4.44744e-13 0)
(664 -4.7883e-13 0)
(664 -5.16762e-13 0)
(664 -5.48077e-13 0)
(664 -5.59611e-13 0)
(664 -5.57968e-13 0)
(664 -5.39904e-13 0)
(664 -5.07211e-13 0)
(664 -4.54793e-13 0)
(664 -3.90938e-13 0)
(664 -3.41182e-13 0)
(664 -2.85491e-13 0)
(664 -2.33574e-13 0)
(664 -1.84342e-13 0)
(664 -1.45759e-13 0)
(664 -9.88605e-14 0)
(664 -7.28572e-14 0)
(664 -7.92317e-14 0)
(664 -9.53087e-14 0)
(664 -1.17926e-13 0)
(664 -1.49769e-13 0)
(664 -1.94854e-13 0)
(664 -2.27916e-13 0)
(664 -2.52947e-13 0)
(664 -2.50214e-13 0)
(664 -2.28982e-13 0)
(664 -1.90269e-13 0)
(664 -1.32685e-13 0)
(664 -9.41768e-14 0)
(664 -6.05361e-14 0)
(664 -5.52629e-14 0)
(664 -6.08157e-14 0)
(664 -8.04901e-14 0)
(664 -1.19322e-13 0)
(664 -1.66025e-13 0)
(664 -2.24669e-13 0)
(664 -2.99388e-13 0)
(664 -3.63248e-13 0)
(664 -4.40089e-13 0)
(664 -5.08237e-13 0)
(664 -5.71213e-13 0)
(664 -5.87036e-13 0)
(664 -5.68494e-13 0)
(664 -5.55026e-13 0)
(664 -5.2407e-13 0)
(664 -5.1073e-13 0)
(664 -5.03833e-13 0)
(664 -4.99879e-13 0)
(664 -5.16019e-13 0)
(664 -5.6196e-13 0)
(664 -5.71779e-13 0)
(664 -5.73713e-13 0)
(664 -6.05134e-13 0)
(664 -6.30341e-13 0)
(664 -6.83614e-13 0)
(664 -7.47984e-13 0)
(664 -8.06333e-13 0)
(664 -8.70155e-13 0)
(664 -9.33221e-13 0)
(664 -9.68301e-13 0)
(664 -9.898e-13 0)
(664 -9.97502e-13 0)
(664 -9.76828e-13 0)
(664 -9.28297e-13 0)
(664 -9.01548e-13 0)
(664 -8.65728e-13 0)
(664 -8.21307e-13 0)
(664 -7.83181e-13 0)
(664 -7.42967e-13 0)
(664 -7.02167e-13 0)
(664 -6.80712e-13 0)
(664 -6.69278e-13 0)
(664 -6.48138e-13 0)
(664 -6.39964e-13 0)
(664 -6.24123e-13 0)
(664 -6.33628e-13 0)
(664 -6.67849e-13 0)
(664 -7.21293e-13 0)
(664 -7.82434e-13 0)
(664 -8.32582e-13 0)
(664 -8.81934e-13 0)
(664 -9.15455e-13 0)
(664 -9.22894e-13 0)
(664 -9.05036e-13 0)
(664 -8.76972e-13 0)
(664 -8.41794e-13 0)
(664 -8.16682e-13 0)
(664 -7.96876e-13 0)
(664 -8.09586e-13 0)
(664 -8.16937e-13 0)
(664 -8.18744e-13 0)
(664 -8.25894e-13 0)
(664 -8.20789e-13 0)
(664 -8.04509e-13 0)
(664 -7.94619e-13 0)
(664 -7.94897e-13 0)
(664 -8.10637e-13 0)
(664 -8.26111e-13 0)
(664 -8.52831e-13 0)
(664 -8.75998e-13 0)
(664 -8.98553e-13 0)
(664 -8.89781e-13 0)
(664 -8.72959e-13 0)
(664 -8.63684e-13 0)
(664 -8.33611e-13 0)
(664 -8.15894e-13 0)
(664 -8.28931e-13 0)
(664 -8.38581e-13 0)
(664 -8.66759e-13 0)
(664 -9.04795e-13 0)
(664 -9.39314e-13 0)
(664 -9.73801e-13 0)
(664 -1.00673e-12 0)
(664 -1.03324e-12 0)
(664 -1.04052e-12 0)
(664 -1.03332e-12 0)
(664 -1.02873e-12 0)
(664 -1.03194e-12 0)
(664 -1.03737e-12 0)
(664 -1.03975e-12 0)
(664 -1.02718e-12 0)
(664 -1.00949e-12 0)
(664 -9.69706e-13 0)
(664 -9.30219e-13 0)
(664 -8.87238e-13 0)
(664 -8.59389e-13 0)
(664 -8.41958e-13 0)
(664 -8.62474e-13 0)
(664 -8.7971e-13 0)
(664 -8.94795e-13 0)
(664 -9.40496e-13 0)
(664 -9.63362e-13 0)
(664 -9.68668e-13 0)
(664 -9.88457e-13 0)
(664 -1.00212e-12 0)
(664 -1.04301e-12 0)
(664 -1.10363e-12 0)
(664 -1.13463e-12 0)
(664 -1.17291e-12 0)
(664 -1.18951e-12 0)
(664 -1.18945e-12 0)
(664 -1.1998e-12 0)
(664 -1.21428e-12 0)
(664 -1.21794e-12 0)
(664 -1.20227e-12 0)
(664 -1.18293e-12 0)
(664 -1.13644e-12 0)
(664 -1.07822e-12 0)
(664 -1.03649e-12 0)
(664 -1.02715e-12 0)
(664 -1.01543e-12 0)
(664 -1.01727e-12 0)
(664 -1.03377e-12 0)
(664 -1.0406e-12 0)
(664 -1.07638e-12 0)
(664 -1.11341e-12 0)
(664 -1.12173e-12 0)
(664 -1.12207e-12 0)
(664 -1.11747e-12 0)
(664 -1.11467e-12 0)
(664 -1.12967e-12 0)
(664 -1.1559e-12 0)
(664 -1.17183e-12 0)
(664 -1.19066e-12 0)
(664 -1.21822e-12 0)
(664 -1.24998e-12 0)
(664 -1.26239e-12 0)
(664 -1.27345e-12 0)
(664 -1.27182e-12 0)
(664 -1.27589e-12 0)
(664 -1.26997e-12 0)
(664 -1.25217e-12 0)
(664 -1.2213e-12 0)
(664 -1.18139e-12 0)
(664 -1.12976e-12 0)
(664 -1.07922e-12 0)
(664 -1.00278e-12 0)
(664 -9.37426e-13 0)
(664 -9.07844e-13 0)
(664 -8.71754e-13 0)
(664 -8.2734e-13 0)
(664 -7.87117e-13 0)
(664 -7.42276e-13 0)
(664 -6.72191e-13 0)
(664 -6.27891e-13 0)
(664 -5.88666e-13 0)
(664 -5.67925e-13 0)
(664 -5.46954e-13 0)
(664 -5.04692e-13 0)
(664 -4.51986e-13 0)
(664 -4.35758e-13 0)
(664 -4.23851e-13 0)
(664 -4.24235e-13 0)
(664 -4.26677e-13 0)
(664 -4.19557e-13 0)
(664 -4.05429e-13 0)
(664 -4.17887e-13 0)
(664 -4.23657e-13 0)
(664 -4.26511e-13 0)
(664 -4.2021e-13 0)
(664 -3.9125e-13 0)
(664 -3.70855e-13 0)
(664 -3.59982e-13 0)
(664 -3.47728e-13 0)
(664 -3.37113e-13 0)
(664 -3.39043e-13 0)
(664 -3.48202e-13 0)
(664 -3.64455e-13 0)
(664 -3.96111e-13 0)
(664 -4.38603e-13 0)
(664 -4.75679e-13 0)
(664 -4.74775e-13 0)
(664 -4.70705e-13 0)
(664 -4.35519e-13 0)
(664 -3.70929e-13 0)
(664 -2.85364e-13 0)
(664 -1.8062e-13 0)
(664 -8.00222e-14 0)
(664 8.77126e-15 0)
(664 6.38278e-14 0)
(664 9.03212e-14 0)
(664 9.59986e-14 0)
(664 6.61903e-14 0)
(664 3.63869e-14 0)
(664 2.00802e-15 0)
(664 -3.64095e-15 0)
(664 4.52299e-15 0)
(664 1.16314e-13 0)
(664 3.92101e-13 0)
(664 8.82301e-13 0)
(664 1.77802e-12 0)
(664 3.35026e-12 0)
(664 6.06717e-12 0)
(664 1.06652e-11 0)
(664 1.84024e-11 0)
(664 3.14075e-11 0)
(664 5.31884e-11 0)
(664 8.96685e-11 0)
(664 1.50786e-10 0)
(664 2.5318e-10 0)
(664 4.24757e-10 0)
(664 7.12441e-10 0)
(664 1.19496e-09 0)
(664 2.0047e-09 0)
(664 3.36411e-09 0)
(664 5.64771e-09 0)
(664 9.48542e-09 0)
(664 1.59391e-08 0)
(664 2.67969e-08 0)
(664 4.50768e-08 0)
(664 7.58676e-08 0)
(664 1.27769e-07 0)
(664 2.15302e-07 0)
(664 3.63039e-07 0)
(664 6.12534e-07 0)
(664 1.03421e-06 0)
(664 1.74734e-06 0)
(664 2.95439e-06 0)
(664 4.99881e-06 0)
(664 8.4646e-06 0)
(664 1.43441e-05 0)
(664 2.43279e-05 0)
(664 4.12936e-05 0)
(663.999 7.01529e-05 0)
(663.999 0.000119283 0)
(663.998 0.000203009 0)
(663.997 0.000345815 0)
(663.996 0.000589657 0)
(663.993 0.00100639 0)
(663.988 0.00171943 0)
(663.981 0.00294058 0)
(663.969 0.00503446 0)
(663.948 0.00862829 0)
(663.915 0.0148043 0)
(663.86 0.0254283 0)
(663.77 0.0437277 0)
(663.622 0.0752792 0)
(663.38 0.129754 0)
(662.982 0.223886 0)
(662.331 0.386785 0)
(661.266 0.668854 0)
(659.53 1.15822 0)
(656.711 2.00626 0)
(652.156 3.47808 0)
(644.853 6.01658 0)
(633.203 10.4205 0)
(615.984 17.884 0)
(664 -1.26281e-14 0)
(664 -1.59263e-14 0)
(664 -1.05153e-14 0)
(664 4.1358e-15 0)
(664 2.53722e-14 0)
(664 5.12286e-14 0)
(664 7.72496e-14 0)
(664 7.49482e-14 0)
(664 7.37941e-14 0)
(664 7.22429e-14 0)
(664 7.41757e-14 0)
(664 8.65057e-14 0)
(664 7.2792e-14 0)
(664 6.64535e-14 0)
(664 3.26805e-14 0)
(664 -2.95841e-14 0)
(664 -9.77045e-14 0)
(664 -1.72395e-13 0)
(664 -2.4536e-13 0)
(664 -2.94526e-13 0)
(664 -3.06151e-13 0)
(664 -3.01852e-13 0)
(664 -2.76159e-13 0)
(664 -2.63948e-13 0)
(664 -2.45945e-13 0)
(664 -2.31461e-13 0)
(664 -2.17309e-13 0)
(664 -2.02409e-13 0)
(664 -2.01687e-13 0)
(664 -2.31524e-13 0)
(664 -2.41579e-13 0)
(664 -2.58752e-13 0)
(664 -2.99878e-13 0)
(664 -3.48024e-13 0)
(664 -4.15037e-13 0)
(664 -4.71114e-13 0)
(664 -5.37053e-13 0)
(664 -5.93058e-13 0)
(664 -6.30273e-13 0)
(664 -6.41494e-13 0)
(664 -6.30801e-13 0)
(664 -5.93418e-13 0)
(664 -5.80477e-13 0)
(664 -5.80834e-13 0)
(664 -6.07081e-13 0)
(664 -6.52159e-13 0)
(664 -6.80597e-13 0)
(664 -6.81036e-13 0)
(664 -6.7571e-13 0)
(664 -6.75586e-13 0)
(664 -6.9194e-13 0)
(664 -6.98188e-13 0)
(664 -6.94368e-13 0)
(664 -6.87944e-13 0)
(664 -6.79409e-13 0)
(664 -6.79763e-13 0)
(664 -6.90732e-13 0)
(664 -7.10158e-13 0)
(664 -7.18097e-13 0)
(664 -7.33109e-13 0)
(664 -7.449e-13 0)
(664 -7.42756e-13 0)
(664 -7.31887e-13 0)
(664 -7.26262e-13 0)
(664 -7.14481e-13 0)
(664 -7.10572e-13 0)
(664 -7.10097e-13 0)
(664 -6.98946e-13 0)
(664 -6.68733e-13 0)
(664 -6.38741e-13 0)
(664 -6.06525e-13 0)
(664 -6.0136e-13 0)
(664 -6.36758e-13 0)
(664 -6.94518e-13 0)
(664 -7.72302e-13 0)
(664 -8.25774e-13 0)
(664 -8.4733e-13 0)
(664 -8.57389e-13 0)
(664 -8.53419e-13 0)
(664 -8.24295e-13 0)
(664 -7.69074e-13 0)
(664 -7.2035e-13 0)
(664 -6.59288e-13 0)
(664 -6.2364e-13 0)
(664 -6.07079e-13 0)
(664 -5.98203e-13 0)
(664 -5.9353e-13 0)
(664 -5.82562e-13 0)
(664 -5.63099e-13 0)
(664 -5.17743e-13 0)
(664 -4.99663e-13 0)
(664 -4.87257e-13 0)
(664 -4.86329e-13 0)
(664 -5.04715e-13 0)
(664 -5.01183e-13 0)
(664 -4.96284e-13 0)
(664 -4.88791e-13 0)
(664 -4.74429e-13 0)
(664 -4.59451e-13 0)
(664 -4.58526e-13 0)
(664 -4.87843e-13 0)
(664 -5.39179e-13 0)
(664 -5.76975e-13 0)
(664 -6.0191e-13 0)
(664 -6.40412e-13 0)
(664 -6.96066e-13 0)
(664 -7.5191e-13 0)
(664 -8.25433e-13 0)
(664 -8.95e-13 0)
(664 -9.46067e-13 0)
(664 -9.8303e-13 0)
(664 -9.92921e-13 0)
(664 -1.00663e-12 0)
(664 -1.00768e-12 0)
(664 -1.006e-12 0)
(664 -9.77407e-13 0)
(664 -9.40168e-13 0)
(664 -8.9921e-13 0)
(664 -8.34357e-13 0)
(664 -7.65073e-13 0)
(664 -7.12884e-13 0)
(664 -6.84209e-13 0)
(664 -6.67619e-13 0)
(664 -6.47291e-13 0)
(664 -6.33124e-13 0)
(664 -6.3053e-13 0)
(664 -6.4086e-13 0)
(664 -6.61922e-13 0)
(664 -6.79815e-13 0)
(664 -6.94668e-13 0)
(664 -7.07297e-13 0)
(664 -7.3342e-13 0)
(664 -7.623e-13 0)
(664 -8.03602e-13 0)
(664 -8.45947e-13 0)
(664 -8.68397e-13 0)
(664 -8.85472e-13 0)
(664 -9.0695e-13 0)
(664 -9.09726e-13 0)
(664 -9.10714e-13 0)
(664 -8.84908e-13 0)
(664 -8.4123e-13 0)
(664 -7.96931e-13 0)
(664 -7.50247e-13 0)
(664 -7.11839e-13 0)
(664 -6.84632e-13 0)
(664 -6.53658e-13 0)
(664 -6.16619e-13 0)
(664 -5.95635e-13 0)
(664 -5.86919e-13 0)
(664 -5.8576e-13 0)
(664 -6.04573e-13 0)
(664 -6.49253e-13 0)
(664 -6.99953e-13 0)
(664 -7.38888e-13 0)
(664 -7.73442e-13 0)
(664 -7.86957e-13 0)
(664 -7.87202e-13 0)
(664 -8.11678e-13 0)
(664 -8.35952e-13 0)
(664 -8.59915e-13 0)
(664 -8.7677e-13 0)
(664 -8.68377e-13 0)
(664 -8.72211e-13 0)
(664 -8.7202e-13 0)
(664 -8.66896e-13 0)
(664 -8.73372e-13 0)
(664 -8.86457e-13 0)
(664 -9.03343e-13 0)
(664 -9.11561e-13 0)
(664 -9.08191e-13 0)
(664 -9.19529e-13 0)
(664 -9.46129e-13 0)
(664 -9.68331e-13 0)
(664 -9.86679e-13 0)
(664 -1.01969e-12 0)
(664 -1.07939e-12 0)
(664 -1.14273e-12 0)
(664 -1.20616e-12 0)
(664 -1.25195e-12 0)
(664 -1.27276e-12 0)
(664 -1.29153e-12 0)
(664 -1.28243e-12 0)
(664 -1.25213e-12 0)
(664 -1.20448e-12 0)
(664 -1.14949e-12 0)
(664 -1.09163e-12 0)
(664 -1.03691e-12 0)
(664 -9.72621e-13 0)
(664 -9.26043e-13 0)
(664 -8.80198e-13 0)
(664 -8.56856e-13 0)
(664 -8.44455e-13 0)
(664 -8.18274e-13 0)
(664 -7.94868e-13 0)
(664 -7.61628e-13 0)
(664 -7.20202e-13 0)
(664 -6.80912e-13 0)
(664 -6.367e-13 0)
(664 -5.91476e-13 0)
(664 -5.62956e-13 0)
(664 -5.05462e-13 0)
(664 -4.43049e-13 0)
(664 -3.90829e-13 0)
(664 -3.5582e-13 0)
(664 -3.58181e-13 0)
(664 -3.93189e-13 0)
(664 -4.34656e-13 0)
(664 -4.80921e-13 0)
(664 -5.1047e-13 0)
(664 -5.49989e-13 0)
(664 -5.80958e-13 0)
(664 -6.06933e-13 0)
(664 -6.04484e-13 0)
(664 -5.80764e-13 0)
(664 -5.78476e-13 0)
(664 -5.77336e-13 0)
(664 -5.75652e-13 0)
(664 -5.79277e-13 0)
(664 -5.67291e-13 0)
(664 -5.44475e-13 0)
(664 -5.15606e-13 0)
(664 -4.83435e-13 0)
(664 -4.49209e-13 0)
(664 -4.18231e-13 0)
(664 -3.62789e-13 0)
(664 -3.06561e-13 0)
(664 -2.5966e-13 0)
(664 -2.10541e-13 0)
(664 -1.57858e-13 0)
(664 -1.21251e-13 0)
(664 -1.04575e-13 0)
(664 -1.01587e-13 0)
(664 -1.12108e-13 0)
(664 -1.328e-13 0)
(664 -1.26117e-13 0)
(664 -1.09266e-13 0)
(664 -7.70723e-14 0)
(664 -1.47238e-14 0)
(664 1.12289e-13 0)
(664 3.50478e-13 0)
(664 8.09555e-13 0)
(664 1.62022e-12 0)
(664 3.0087e-12 0)
(664 5.37497e-12 0)
(664 9.3297e-12 0)
(664 1.59874e-11 0)
(664 2.71298e-11 0)
(664 4.57473e-11 0)
(664 7.68495e-11 0)
(664 1.28782e-10 0)
(664 2.15436e-10 0)
(664 3.60055e-10 0)
(664 6.01425e-10 0)
(664 1.00441e-09 0)
(664 1.67725e-09 0)
(664 2.80108e-09 0)
(664 4.67846e-09 0)
(664 7.81586e-09 0)
(664 1.30598e-08 0)
(664 2.1828e-08 0)
(664 3.64915e-08 0)
(664 6.10231e-08 0)
(664 1.02071e-07 0)
(664 1.7078e-07 0)
(664 2.85809e-07 0)
(664 4.78459e-07 0)
(664 8.01156e-07 0)
(664 1.34189e-06 0)
(664 2.24811e-06 0)
(664 3.76738e-06 0)
(664 6.31479e-06 0)
(664 1.05875e-05 0)
(664 1.77549e-05 0)
(664 2.97817e-05 0)
(664 4.99641e-05 0)
(664 8.38422e-05 0)
(663.999 0.000140711 0)
(663.999 0.000236198 0)
(663.998 0.00039652 0)
(663.997 0.000665751 0)
(663.995 0.00111783 0)
(663.991 0.00187703 0)
(663.985 0.00315173 0)
(663.976 0.00529201 0)
(663.961 0.00888452 0)
(663.937 0.0149139 0)
(663.897 0.0250286 0)
(663.832 0.0419915 0)
(663.727 0.0704204 0)
(663.557 0.11804 0)
(663.281 0.197726 0)
(662.835 0.330942 0)
(662.117 0.55333 0)
(660.96 0.923987 0)
(659.11 1.54023 0)
(656.161 2.56067 0)
(651.498 4.24138 0)
(644.135 6.98941 0)
(633.288 11.4421 0)
(664 4.73061e-15 0)
(664 8.1061e-15 0)
(664 1.29308e-14 0)
(664 7.40017e-15 0)
(664 5.48603e-15 0)
(664 1.22414e-14 0)
(664 1.58046e-14 0)
(664 4.73798e-14 0)
(664 7.50683e-14 0)
(664 1.06115e-13 0)
(664 1.26922e-13 0)
(664 1.42426e-13 0)
(664 1.42476e-13 0)
(664 1.2858e-13 0)
(664 1.19668e-13 0)
(664 9.61129e-14 0)
(664 8.68236e-14 0)
(664 8.26449e-14 0)
(664 6.61137e-14 0)
(664 6.49067e-14 0)
(664 6.83562e-14 0)
(664 8.65128e-14 0)
(664 1.18212e-13 0)
(664 1.73235e-13 0)
(664 2.157e-13 0)
(664 2.37954e-13 0)
(664 2.43436e-13 0)
(664 2.15525e-13 0)
(664 1.7723e-13 0)
(664 1.15731e-13 0)
(664 2.70679e-14 0)
(664 -6.99046e-14 0)
(664 -1.68858e-13 0)
(664 -2.49834e-13 0)
(664 -3.23916e-13 0)
(664 -4.02563e-13 0)
(664 -4.71592e-13 0)
(664 -5.55339e-13 0)
(664 -6.35742e-13 0)
(664 -7.23001e-13 0)
(664 -7.97135e-13 0)
(664 -8.41141e-13 0)
(664 -8.93114e-13 0)
(664 -9.31953e-13 0)
(664 -9.54612e-13 0)
(664 -9.64692e-13 0)
(664 -9.65228e-13 0)
(664 -9.56837e-13 0)
(664 -9.37747e-13 0)
(664 -9.08696e-13 0)
(664 -8.66912e-13 0)
(664 -8.39646e-13 0)
(664 -8.21325e-13 0)
(664 -8.0609e-13 0)
(664 -8.02807e-13 0)
(664 -8.00719e-13 0)
(664 -8.09557e-13 0)
(664 -8.21401e-13 0)
(664 -8.15585e-13 0)
(664 -8.2109e-13 0)
(664 -8.01166e-13 0)
(664 -7.82848e-13 0)
(664 -7.60998e-13 0)
(664 -7.40904e-13 0)
(664 -7.34177e-13 0)
(664 -6.989e-13 0)
(664 -6.50391e-13 0)
(664 -5.87011e-13 0)
(664 -5.22377e-13 0)
(664 -4.82415e-13 0)
(664 -4.49931e-13 0)
(664 -4.24695e-13 0)
(664 -4.08038e-13 0)
(664 -3.93489e-13 0)
(664 -3.70204e-13 0)
(664 -3.52404e-13 0)
(664 -3.4969e-13 0)
(664 -3.33362e-13 0)
(664 -3.33265e-13 0)
(664 -3.31136e-13 0)
(664 -3.28041e-13 0)
(664 -3.18585e-13 0)
(664 -2.98359e-13 0)
(664 -2.97909e-13 0)
(664 -3.22339e-13 0)
(664 -3.58133e-13 0)
(664 -4.14218e-13 0)
(664 -4.58638e-13 0)
(664 -4.90769e-13 0)
(664 -5.16484e-13 0)
(664 -5.36571e-13 0)
(664 -5.5724e-13 0)
(664 -5.816e-13 0)
(664 -6.05357e-13 0)
(664 -6.29942e-13 0)
(664 -6.39773e-13 0)
(664 -6.66567e-13 0)
(664 -7.05931e-13 0)
(664 -7.36884e-13 0)
(664 -7.47602e-13 0)
(664 -7.4908e-13 0)
(664 -7.204e-13 0)
(664 -6.95759e-13 0)
(664 -6.827e-13 0)
(664 -6.7175e-13 0)
(664 -6.99027e-13 0)
(664 -7.49231e-13 0)
(664 -8.16362e-13 0)
(664 -8.81782e-13 0)
(664 -9.45911e-13 0)
(664 -1.00383e-12 0)
(664 -1.0278e-12 0)
(664 -1.06228e-12 0)
(664 -1.1011e-12 0)
(664 -1.14202e-12 0)
(664 -1.1843e-12 0)
(664 -1.21643e-12 0)
(664 -1.24809e-12 0)
(664 -1.29284e-12 0)
(664 -1.34253e-12 0)
(664 -1.39252e-12 0)
(664 -1.41822e-12 0)
(664 -1.43944e-12 0)
(664 -1.45544e-12 0)
(664 -1.47162e-12 0)
(664 -1.46966e-12 0)
(664 -1.48366e-12 0)
(664 -1.49568e-12 0)
(664 -1.5135e-12 0)
(664 -1.52651e-12 0)
(664 -1.51133e-12 0)
(664 -1.4926e-12 0)
(664 -1.46612e-12 0)
(664 -1.42401e-12 0)
(664 -1.37006e-12 0)
(664 -1.32887e-12 0)
(664 -1.29875e-12 0)
(664 -1.26795e-12 0)
(664 -1.23529e-12 0)
(664 -1.21621e-12 0)
(664 -1.16985e-12 0)
(664 -1.11199e-12 0)
(664 -1.02944e-12 0)
(664 -9.07857e-13 0)
(664 -8.12454e-13 0)
(664 -7.19111e-13 0)
(664 -6.44011e-13 0)
(664 -6.00697e-13 0)
(664 -5.47401e-13 0)
(664 -5.02708e-13 0)
(664 -4.99814e-13 0)
(664 -5.10205e-13 0)
(664 -5.45085e-13 0)
(664 -6.026e-13 0)
(664 -6.62761e-13 0)
(664 -7.31554e-13 0)
(664 -7.97942e-13 0)
(664 -8.75894e-13 0)
(664 -9.42898e-13 0)
(664 -9.93058e-13 0)
(664 -1.03289e-12 0)
(664 -1.0817e-12 0)
(664 -1.12838e-12 0)
(664 -1.16852e-12 0)
(664 -1.21155e-12 0)
(664 -1.25204e-12 0)
(664 -1.2889e-12 0)
(664 -1.3051e-12 0)
(664 -1.28358e-12 0)
(664 -1.25483e-12 0)
(664 -1.22146e-12 0)
(664 -1.18999e-12 0)
(664 -1.17907e-12 0)
(664 -1.17919e-12 0)
(664 -1.17665e-12 0)
(664 -1.16709e-12 0)
(664 -1.14611e-12 0)
(664 -1.11368e-12 0)
(664 -1.07208e-12 0)
(664 -1.03585e-12 0)
(664 -1.02207e-12 0)
(664 -1.00627e-12 0)
(664 -9.80834e-13 0)
(664 -9.61023e-13 0)
(664 -9.51342e-13 0)
(664 -9.32828e-13 0)
(664 -9.13733e-13 0)
(664 -9.13432e-13 0)
(664 -8.93282e-13 0)
(664 -8.73008e-13 0)
(664 -8.85651e-13 0)
(664 -8.78838e-13 0)
(664 -8.80989e-13 0)
(664 -8.77505e-13 0)
(664 -8.61512e-13 0)
(664 -8.50744e-13 0)
(664 -8.66308e-13 0)
(664 -8.65713e-13 0)
(664 -8.34901e-13 0)
(664 -7.97742e-13 0)
(664 -7.40513e-13 0)
(664 -6.88605e-13 0)
(664 -6.49403e-13 0)
(664 -6.10901e-13 0)
(664 -5.94287e-13 0)
(664 -5.82891e-13 0)
(664 -5.70392e-13 0)
(664 -5.76544e-13 0)
(664 -5.81584e-13 0)
(664 -5.59054e-13 0)
(664 -5.53825e-13 0)
(664 -5.35326e-13 0)
(664 -4.9995e-13 0)
(664 -4.71537e-13 0)
(664 -4.43434e-13 0)
(664 -4.12348e-13 0)
(664 -3.79404e-13 0)
(664 -3.38446e-13 0)
(664 -2.91071e-13 0)
(664 -2.52675e-13 0)
(664 -1.94139e-13 0)
(664 -1.35743e-13 0)
(664 -7.81858e-14 0)
(664 -3.02402e-14 0)
(664 -7.12919e-15 0)
(664 -2.76289e-16 0)
(664 -6.26879e-15 0)
(664 -3.68609e-14 0)
(664 -8.1818e-14 0)
(664 -1.19822e-13 0)
(664 -1.53366e-13 0)
(664 -1.91229e-13 0)
(664 -2.20626e-13 0)
(664 -2.48125e-13 0)
(664 -2.69691e-13 0)
(664 -2.92729e-13 0)
(664 -2.67905e-13 0)
(664 -2.07267e-13 0)
(664 -9.51548e-14 0)
(664 1.05545e-13 0)
(664 4.33737e-13 0)
(664 1.00459e-12 0)
(664 2.01368e-12 0)
(664 3.71264e-12 0)
(664 6.51757e-12 0)
(664 1.11707e-11 0)
(664 1.88647e-11 0)
(664 3.16466e-11 0)
(664 5.2844e-11 0)
(664 8.80461e-11 0)
(664 1.46524e-10 0)
(664 2.43683e-10 0)
(664 4.05123e-10 0)
(664 6.73376e-10 0)
(664 1.11912e-09 0)
(664 1.85974e-09 0)
(664 3.09048e-09 0)
(664 5.13557e-09 0)
(664 8.53442e-09 0)
(664 1.41829e-08 0)
(664 2.35716e-08 0)
(664 3.91763e-08 0)
(664 6.51165e-08 0)
(664 1.08235e-07 0)
(664 1.79917e-07 0)
(664 2.99073e-07 0)
(664 4.97168e-07 0)
(664 8.26459e-07 0)
(664 1.37388e-06 0)
(664 2.2838e-06 0)
(664 3.79632e-06 0)
(664 6.31007e-06 0)
(664 1.04878e-05 0)
(664 1.74296e-05 0)
(664 2.89634e-05 0)
(664 4.81215e-05 0)
(664 7.99406e-05 0)
(663.999 0.000132769 0)
(663.999 0.000220465 0)
(663.998 0.000365975 0)
(663.998 0.000607353 0)
(663.996 0.00100755 0)
(663.994 0.0016708 0)
(663.99 0.00276932 0)
(663.983 0.00458783 0)
(663.973 0.00759584 0)
(663.956 0.012568 0)
(663.928 0.0207789 0)
(663.885 0.034326 0)
(663.814 0.0566499 0)
(663.7 0.0933929 0)
(663.518 0.153774 0)
(663.227 0.252835 0)
(662.761 0.415022 0)
(662.017 0.679915 0)
(660.836 1.11126 0)
(658.964 1.8103 0)
(656.015 2.93742 0)
(651.35 4.73961 0)
(644.411 7.60244 0)
(664 7.74896e-15 0)
(664 2.49065e-15 0)
(664 -2.96892e-14 0)
(664 -6.76926e-14 0)
(664 -1.1552e-13 0)
(664 -1.60543e-13 0)
(664 -1.95892e-13 0)
(664 -1.76908e-13 0)
(664 -1.41608e-13 0)
(664 -1.02483e-13 0)
(664 -6.0982e-14 0)
(664 -2.18113e-14 0)
(664 3.80945e-14 0)
(664 9.39749e-14 0)
(664 1.47898e-13 0)
(664 2.05019e-13 0)
(664 2.46621e-13 0)
(664 2.79616e-13 0)
(664 2.93276e-13 0)
(664 2.96436e-13 0)
(664 2.91228e-13 0)
(664 2.54663e-13 0)
(664 2.28935e-13 0)
(664 2.23264e-13 0)
(664 2.01157e-13 0)
(664 1.87064e-13 0)
(664 1.6927e-13 0)
(664 1.47757e-13 0)
(664 9.49822e-14 0)
(664 3.73184e-14 0)
(664 -2.28467e-14 0)
(664 -9.04373e-14 0)
(664 -1.48101e-13 0)
(664 -1.9438e-13 0)
(664 -2.44918e-13 0)
(664 -2.89066e-13 0)
(664 -3.31885e-13 0)
(664 -3.86931e-13 0)
(664 -4.53971e-13 0)
(664 -5.24056e-13 0)
(664 -5.98582e-13 0)
(664 -6.59248e-13 0)
(664 -7.03011e-13 0)
(664 -7.35268e-13 0)
(664 -7.44999e-13 0)
(664 -7.51382e-13 0)
(664 -7.3562e-13 0)
(664 -7.02539e-13 0)
(664 -6.63511e-13 0)
(664 -6.22053e-13 0)
(664 -6.03498e-13 0)
(664 -6.06348e-13 0)
(664 -6.09174e-13 0)
(664 -6.18964e-13 0)
(664 -6.52262e-13 0)
(664 -6.86983e-13 0)
(664 -7.18488e-13 0)
(664 -7.46995e-13 0)
(664 -7.71686e-13 0)
(664 -7.80549e-13 0)
(664 -7.98532e-13 0)
(664 -8.20277e-13 0)
(664 -8.35038e-13 0)
(664 -8.26206e-13 0)
(664 -8.14439e-13 0)
(664 -7.92678e-13 0)
(664 -7.79685e-13 0)
(664 -7.73054e-13 0)
(664 -7.53943e-13 0)
(664 -7.37013e-13 0)
(664 -7.00703e-13 0)
(664 -6.50963e-13 0)
(664 -6.08265e-13 0)
(664 -5.48772e-13 0)
(664 -5.05894e-13 0)
(664 -4.69843e-13 0)
(664 -4.34819e-13 0)
(664 -4.20349e-13 0)
(664 -3.95652e-13 0)
(664 -3.81563e-13 0)
(664 -4.16287e-13 0)
(664 -4.60609e-13 0)
(664 -5.26105e-13 0)
(664 -5.7236e-13 0)
(664 -5.97645e-13 0)
(664 -6.3083e-13 0)
(664 -6.6036e-13 0)
(664 -6.88324e-13 0)
(664 -7.25737e-13 0)
(664 -7.59824e-13 0)
(664 -7.56201e-13 0)
(664 -7.57427e-13 0)
(664 -7.42239e-13 0)
(664 -7.05196e-13 0)
(664 -6.72017e-13 0)
(664 -6.4724e-13 0)
(664 -6.20806e-13 0)
(664 -5.96106e-13 0)
(664 -5.86747e-13 0)
(664 -5.88505e-13 0)
(664 -5.78014e-13 0)
(664 -5.83065e-13 0)
(664 -6.07737e-13 0)
(664 -6.35723e-13 0)
(664 -6.83906e-13 0)
(664 -7.19525e-13 0)
(664 -7.50233e-13 0)
(664 -7.73215e-13 0)
(664 -7.98756e-13 0)
(664 -8.43422e-13 0)
(664 -8.96393e-13 0)
(664 -9.60166e-13 0)
(664 -1.00523e-12 0)
(664 -1.02735e-12 0)
(664 -1.04712e-12 0)
(664 -1.05538e-12 0)
(664 -1.04348e-12 0)
(664 -1.02642e-12 0)
(664 -9.93612e-13 0)
(664 -9.63638e-13 0)
(664 -9.23808e-13 0)
(664 -8.85192e-13 0)
(664 -8.47493e-13 0)
(664 -8.17903e-13 0)
(664 -7.98501e-13 0)
(664 -7.98669e-13 0)
(664 -7.76376e-13 0)
(664 -7.58633e-13 0)
(664 -7.57298e-13 0)
(664 -7.51466e-13 0)
(664 -7.5912e-13 0)
(664 -7.67131e-13 0)
(664 -7.65423e-13 0)
(664 -7.56022e-13 0)
(664 -7.3813e-13 0)
(664 -7.20653e-13 0)
(664 -7.08607e-13 0)
(664 -7.00689e-13 0)
(664 -6.80217e-13 0)
(664 -6.77094e-13 0)
(664 -7.0011e-13 0)
(664 -7.28023e-13 0)
(664 -7.5982e-13 0)
(664 -7.97433e-13 0)
(664 -8.05906e-13 0)
(664 -8.26059e-13 0)
(664 -8.35601e-13 0)
(664 -8.37555e-13 0)
(664 -8.23757e-13 0)
(664 -8.09019e-13 0)
(664 -8.0324e-13 0)
(664 -7.87402e-13 0)
(664 -7.65603e-13 0)
(664 -7.50426e-13 0)
(664 -7.47036e-13 0)
(664 -7.65268e-13 0)
(664 -7.90291e-13 0)
(664 -8.37387e-13 0)
(664 -8.61136e-13 0)
(664 -8.6861e-13 0)
(664 -8.81295e-13 0)
(664 -8.80082e-13 0)
(664 -8.81416e-13 0)
(664 -8.79486e-13 0)
(664 -8.79586e-13 0)
(664 -8.74319e-13 0)
(664 -8.56428e-13 0)
(664 -8.39781e-13 0)
(664 -8.09641e-13 0)
(664 -8.06358e-13 0)
(664 -8.09992e-13 0)
(664 -8.16029e-13 0)
(664 -8.22732e-13 0)
(664 -8.23299e-13 0)
(664 -8.17781e-13 0)
(664 -7.90697e-13 0)
(664 -7.59311e-13 0)
(664 -7.34651e-13 0)
(664 -7.19643e-13 0)
(664 -7.14095e-13 0)
(664 -7.3446e-13 0)
(664 -7.58785e-13 0)
(664 -7.93231e-13 0)
(664 -8.38662e-13 0)
(664 -8.75416e-13 0)
(664 -8.99776e-13 0)
(664 -8.99932e-13 0)
(664 -8.96429e-13 0)
(664 -8.88857e-13 0)
(664 -8.76369e-13 0)
(664 -8.55529e-13 0)
(664 -8.36488e-13 0)
(664 -8.23792e-13 0)
(664 -8.30151e-13 0)
(664 -8.38622e-13 0)
(664 -8.57156e-13 0)
(664 -8.7709e-13 0)
(664 -8.94377e-13 0)
(664 -9.1649e-13 0)