/*--------------------------------*- C++ -*----------------------------------*\
| =========                 |                                                 |
| \\      /  F ield         | OpenFOAM: The Open Source CFD Toolbox           |
|  \\    /   O peration     | Version:  2412                                  |
|   \\  /    A nd           | Website:  www.openfoam.com                      |
|    \\/     M anipulation  |                                                 |
\*---------------------------------------------------------------------------*/
FoamFile
{
    version     2.0;
    format      ascii;
    arch        "LSB;label=32;scalar=64";
    class       volVectorField;
    location    "0.0015";
    object      U_0;
}
// * * * * * * * * * * * * * * * * * * * * * * * * * * * * * * * * * * * * * //

dimensions      [0 1 -1 0 0 0 0];

internalField   nonuniform List<vector> 
180000
(
(664 3.48559e-15 0)
(664 -3.76264e-15 0)
(664 1.81779e-14 0)
(664 7.0309e-15 0)
(664 -2.34005e-14 0)
(664 -6.7637e-14 0)
(664 -1.32999e-13 0)
(664 -1.93308e-13 0)
(664 -2.5715e-13 0)
(664 -3.0544e-13 0)
(664 -3.70011e-13 0)
(664 -4.41715e-13 0)
(664 -4.61312e-13 0)
(664 -4.63608e-13 0)
(664 -5.02391e-13 0)
(664 -5.18908e-13 0)
(664 -5.42261e-13 0)
(664 -6.35822e-13 0)
(664 -7.29377e-13 0)
(664 -7.87179e-13 0)
(664 -8.16844e-13 0)
(664 -7.97434e-13 0)
(664 -7.46128e-13 0)
(664 -7.02159e-13 0)
(664 -6.96083e-13 0)
(664 -6.37445e-13 0)
(664 -5.39701e-13 0)
(664 -4.44448e-13 0)
(664 -3.4102e-13 0)
(664 -3.10737e-13 0)
(664 -3.10895e-13 0)
(664 -2.3333e-13 0)
(664 -1.86297e-13 0)
(664 -1.60093e-13 0)
(664 -2.07697e-13 0)
(664 -3.37705e-13 0)
(664 -4.50991e-13 0)
(664 -4.54335e-13 0)
(664 -3.82192e-13 0)
(664 -3.07735e-13 0)
(664 -3.20296e-13 0)
(664 -3.42312e-13 0)
(664 -3.41051e-13 0)
(664 -2.77801e-13 0)
(664 -2.12157e-13 0)
(664 -2.8043e-13 0)
(664 -4.22861e-13 0)
(664 -5.65335e-13 0)
(664 -7.00037e-13 0)
(664 -8.45984e-13 0)
(664 -9.11622e-13 0)
(664 -8.97881e-13 0)
(664 -8.93883e-13 0)
(664 -9.38878e-13 0)
(664 -9.94185e-13 0)
(664 -1.12448e-12 0)
(664 -1.21403e-12 0)
(664 -1.24316e-12 0)
(664 -1.22388e-12 0)
(664 -1.18462e-12 0)
(664 -1.13392e-12 0)
(664 -1.12821e-12 0)
(664 -1.13788e-12 0)
(664 -1.12188e-12 0)
(664 -1.05292e-12 0)
(664 -9.98415e-13 0)
(664 -9.4592e-13 0)
(664 -8.71541e-13 0)
(664 -8.75745e-13 0)
(664 -9.03812e-13 0)
(664 -9.25792e-13 0)
(664 -1.00365e-12 0)
(664 -1.13254e-12 0)
(664 -1.1936e-12 0)
(664 -1.24489e-12 0)
(664 -1.28502e-12 0)
(664 -1.30355e-12 0)
(664 -1.30077e-12 0)
(664 -1.28088e-12 0)
(664 -1.2239e-12 0)
(664 -1.16144e-12 0)
(664 -1.08616e-12 0)
(664 -1.01993e-12 0)
(664 -9.34321e-13 0)
(664 -8.30182e-13 0)
(664 -7.15722e-13 0)
(664 -6.75988e-13 0)
(664 -6.85933e-13 0)
(664 -6.23866e-13 0)
(664 -5.60261e-13 0)
(664 -5.30252e-13 0)
(664 -5.01702e-13 0)
(664 -4.55353e-13 0)
(664 -4.88854e-13 0)
(664 -6.38387e-13 0)
(664 -7.58637e-13 0)
(664 -8.88871e-13 0)
(664 -9.80267e-13 0)
(664 -1.10146e-12 0)
(664 -1.27759e-12 0)
(664 -1.41826e-12 0)
(664 -1.41388e-12 0)
(664 -1.23649e-12 0)
(664 -9.94105e-13 0)
(664 -7.84871e-13 0)
(664 -6.743e-13 0)
(664 -5.96634e-13 0)
(664 -5.33101e-13 0)
(664 -4.08776e-13 0)
(664 -2.41864e-13 0)
(664 -1.61845e-13 0)
(664 -2.15433e-13 0)
(664 -1.99889e-13 0)
(664 -1.3012e-13 0)
(664 -1.04748e-13 0)
(664 -1.11054e-13 0)
(664 -1.38964e-13 0)
(664 -1.80809e-13 0)
(664 -2.94092e-13 0)
(664 -4.53589e-13 0)
(664 -5.28781e-13 0)
(664 -4.25844e-13 0)
(664 -2.63404e-13 0)
(664 -1.07507e-13 0)
(664 -5.18285e-14 0)
(664 -1.48601e-14 0)
(664 2.69418e-14 0)
(664 -1.58014e-15 0)
(664 -1.03162e-13 0)
(664 -1.72254e-13 0)
(664 -1.83614e-13 0)
(664 -1.62467e-13 0)
(664 -1.15079e-13 0)
(664 -1.19942e-13 0)
(664 -2.19322e-13 0)
(664 -3.64776e-13 0)
(664 -5.21174e-13 0)
(664 -6.83476e-13 0)
(664 -8.8266e-13 0)
(664 -1.02402e-12 0)
(664 -1.09482e-12 0)
(664 -1.03011e-12 0)
(664 -8.70613e-13 0)
(664 -7.51628e-13 0)
(664 -7.62761e-13 0)
(664 -8.38355e-13 0)
(664 -9.0379e-13 0)
(664 -9.26451e-13 0)
(664 -9.44471e-13 0)
(664 -8.97107e-13 0)
(664 -7.75589e-13 0)
(664 -7.27988e-13 0)
(664 -7.90101e-13 0)
(664 -8.51401e-13 0)
(664 -8.15273e-13 0)
(664 -7.11599e-13 0)
(664 -5.29499e-13 0)
(664 -3.54845e-13 0)
(664 -2.96205e-13 0)
(664 -3.26031e-13 0)
(664 -3.10848e-13 0)
(664 -3.132e-13 0)
(664 -3.71405e-13 0)
(664 -3.92049e-13 0)
(664 -3.74896e-13 0)
(664 -3.53042e-13 0)
(664 -4.11041e-13 0)
(664 -4.50604e-13 0)
(664 -4.28221e-13 0)
(664 -4.39473e-13 0)
(664 -4.75058e-13 0)
(664 -4.70102e-13 0)
(664 -3.20554e-13 0)
(664 -1.40886e-14 0)
(664 3.2666e-13 0)
(664 5.61694e-13 0)
(664 6.63045e-13 0)
(664 6.74864e-13 0)
(664 7.08397e-13 0)
(664 8.09629e-13 0)
(664 1.02714e-12 0)
(664 1.06798e-12 0)
(664 8.28262e-13 0)
(664 5.24693e-13 0)
(664 2.81026e-13 0)
(664 1.58225e-13 0)
(664 1.60112e-13 0)
(664 1.82386e-13 0)
(664 6.77636e-14 0)
(664 -1.75216e-13 0)
(664 -3.47865e-13 0)
(664 -4.02114e-13 0)
(664 -4.1855e-13 0)
(664 -4.28996e-13 0)
(664 -3.82328e-13 0)
(664 -2.55878e-13 0)
(664 -1.70207e-13 0)
(664 -1.42925e-13 0)
(664 -1.22749e-13 0)
(664 -1.09699e-13 0)
(664 -1.4272e-13 0)
(664 -2.45054e-13 0)
(664 -3.21204e-13 0)
(664 -3.9973e-13 0)
(664 -4.16442e-13 0)
(664 -3.20775e-13 0)
(664 -1.83492e-13 0)
(664 -9.30325e-15 0)
(664 1.02092e-13 0)
(664 6.2952e-14 0)
(664 -1.11637e-13 0)
(664 -2.76869e-13 0)
(664 -2.73172e-13 0)
(664 -1.2317e-13 0)
(664 3.46549e-14 0)
(664 1.40151e-13 0)
(664 1.8661e-13 0)
(664 2.42396e-13 0)
(664 3.53264e-13 0)
(664 5.05863e-13 0)
(664 6.202e-13 0)
(664 5.96982e-13 0)
(664 4.7173e-13 0)
(664 2.88921e-13 0)
(664 1.18201e-13 0)
(664 -1.27327e-15 0)
(664 -6.53172e-14 0)
(664 -1.95126e-13 0)
(664 -2.85659e-13 0)
(664 -2.50318e-13 0)
(664 -1.09656e-13 0)
(664 9.8335e-14 0)
(664 3.64179e-13 0)
(664 6.05025e-13 0)
(664 7.13791e-13 0)
(664 6.97356e-13 0)
(664 6.57144e-13 0)
(664 5.99699e-13 0)
(664 5.6724e-13 0)
(664 5.96359e-13 0)
(664 6.9511e-13 0)
(664 8.05905e-13 0)
(664 1.04534e-12 0)
(664 1.51679e-12 0)
(664 2.22017e-12 0)
(664 3.49051e-12 0)
(664 5.79732e-12 0)
(664 9.81761e-12 0)
(664 1.67041e-11 0)
(664 2.83465e-11 0)
(664 4.78231e-11 0)
(664 8.03479e-11 0)
(664 1.34726e-10 0)
(664 2.25844e-10 0)
(664 3.78457e-10 0)
(664 6.3388e-10 0)
(664 1.06163e-09 0)
(664 1.77836e-09 0)
(664 2.97989e-09 0)
(664 4.99498e-09 0)
(664 8.37603e-09 0)
(664 1.40516e-08 0)
(664 2.35841e-08 0)
(664 3.96038e-08 0)
(664 6.65429e-08 0)
(664 1.11876e-07 0)
(664 1.88218e-07 0)
(664 3.16887e-07 0)
(664 5.33934e-07 0)
(664 9.004e-07 0)
(664 1.51976e-06 0)
(664 2.5676e-06 0)
(664 4.34232e-06 0)
(664 7.35165e-06 0)
(664 1.24607e-05 0)
(664 2.11456e-05 0)
(663.999 3.59292e-05 0)
(663.999 6.11291e-05 0)
(663.998 0.000104148 0)
(663.996 0.000177699 0)
(663.994 0.00030365 0)
(663.99 0.000519688 0)
(663.984 0.000890882 0)
(663.973 0.00152978 0)
(663.956 0.00263145 0)
(663.928 0.00453459 0)
(663.881 0.00782856 0)
(663.803 0.0135408 0)
(663.674 0.0234666 0)
(663.461 0.0407481 0)
(663.108 0.0709003 0)
(662.523 0.123614 0)
(661.552 0.215988 0)
(659.939 0.378165 0)
(657.258 0.663742 0)
(652.8 1.16723 0)
(645.404 2.05913 0)
(633.151 3.63552 0)
(613.168 6.44777 0)
(581.679 11.3665 0)
(664 2.62957e-14 0)
(664 5.13369e-14 0)
(664 7.86515e-14 0)
(664 6.93488e-14 0)
(664 1.96288e-14 0)
(664 -2.03275e-14 0)
(664 -5.9293e-14 0)
(664 -8.86881e-14 0)
(664 -9.49396e-14 0)
(664 -6.83433e-14 0)
(664 -1.74642e-14 0)
(664 -8.13726e-14 0)
(664 -2.3129e-13 0)
(664 -3.73866e-13 0)
(664 -5.46067e-13 0)
(664 -6.10921e-13 0)
(664 -6.14741e-13 0)
(664 -6.45502e-13 0)
(664 -6.94874e-13 0)
(664 -6.7847e-13 0)
(664 -6.84721e-13 0)
(664 -7.37188e-13 0)
(664 -8.05329e-13 0)
(664 -8.44168e-13 0)
(664 -8.03807e-13 0)
(664 -6.67144e-13 0)
(664 -4.81605e-13 0)
(664 -4.00113e-13 0)
(664 -3.99564e-13 0)
(664 -4.50993e-13 0)
(664 -5.28888e-13 0)
(664 -5.67895e-13 0)
(664 -5.53884e-13 0)
(664 -5.54637e-13 0)
(664 -5.81413e-13 0)
(664 -6.62916e-13 0)
(664 -7.75439e-13 0)
(664 -7.87042e-13 0)
(664 -7.24793e-13 0)
(664 -6.81951e-13 0)
(664 -6.27628e-13 0)
(664 -5.20752e-13 0)
(664 -4.37253e-13 0)
(664 -3.57141e-13 0)
(664 -3.42614e-13 0)
(664 -3.99694e-13 0)
(664 -5.30435e-13 0)
(664 -7.31203e-13 0)
(664 -9.28772e-13 0)
(664 -1.0178e-12 0)
(664 -1.0644e-12 0)
(664 -1.09746e-12 0)
(664 -1.05418e-12 0)
(664 -9.73369e-13 0)
(664 -9.74241e-13 0)
(664 -1.03274e-12 0)
(664 -1.06369e-12 0)
(664 -1.00887e-12 0)
(664 -9.10911e-13 0)
(664 -8.89666e-13 0)
(664 -9.06117e-13 0)
(664 -9.43312e-13 0)
(664 -9.64414e-13 0)
(664 -9.11234e-13 0)
(664 -7.75533e-13 0)
(664 -6.99178e-13 0)
(664 -7.17335e-13 0)
(664 -7.90644e-13 0)
(664 -8.83996e-13 0)
(664 -9.42687e-13 0)
(664 -9.57548e-13 0)
(664 -1.03688e-12 0)
(664 -1.10938e-12 0)
(664 -1.12899e-12 0)
(664 -1.14593e-12 0)
(664 -1.15618e-12 0)
(664 -1.06063e-12 0)
(664 -9.45718e-13 0)
(664 -9.08385e-13 0)
(664 -9.12222e-13 0)
(664 -8.53305e-13 0)
(664 -7.0101e-13 0)
(664 -4.58191e-13 0)
(664 -2.63694e-13 0)
(664 -2.72585e-13 0)
(664 -5.07482e-13 0)
(664 -8.8257e-13 0)
(664 -1.24909e-12 0)
(664 -1.37751e-12 0)
(664 -1.35128e-12 0)
(664 -1.26368e-12 0)
(664 -1.18456e-12 0)
(664 -1.10161e-12 0)
(664 -1.05704e-12 0)
(664 -1.09657e-12 0)
(664 -1.15815e-12 0)
(664 -1.19335e-12 0)
(664 -1.21972e-12 0)
(664 -1.26629e-12 0)
(664 -1.3878e-12 0)
(664 -1.51617e-12 0)
(664 -1.52298e-12 0)
(664 -1.46194e-12 0)
(664 -1.40243e-12 0)
(664 -1.3534e-12 0)
(664 -1.29366e-12 0)
(664 -1.24661e-12 0)
(664 -1.14583e-12 0)
(664 -9.84207e-13 0)
(664 -8.69964e-13 0)
(664 -6.87892e-13 0)
(664 -5.07829e-13 0)
(664 -4.94963e-13 0)
(664 -5.74305e-13 0)
(664 -6.77283e-13 0)
(664 -7.08364e-13 0)
(664 -5.94567e-13 0)
(664 -4.82192e-13 0)
(664 -4.91615e-13 0)
(664 -6.43912e-13 0)
(664 -8.01554e-13 0)
(664 -9.02096e-13 0)
(664 -9.97674e-13 0)
(664 -1.11712e-12 0)
(664 -1.21567e-12 0)
(664 -1.1423e-12 0)
(664 -8.83378e-13 0)
(664 -5.86662e-13 0)
(664 -3.78559e-13 0)
(664 -3.0467e-13 0)
(664 -3.47315e-13 0)
(664 -4.15398e-13 0)
(664 -4.21771e-13 0)
(664 -4.69482e-13 0)
(664 -6.23396e-13 0)
(664 -8.51674e-13 0)
(664 -1.01214e-12 0)
(664 -1.11097e-12 0)
(664 -1.22501e-12 0)
(664 -1.28791e-12 0)
(664 -1.24815e-12 0)
(664 -1.09294e-12 0)
(664 -9.08497e-13 0)
(664 -8.06007e-13 0)
(664 -6.70495e-13 0)
(664 -5.32372e-13 0)
(664 -4.32459e-13 0)
(664 -3.54592e-13 0)
(664 -2.92273e-13 0)
(664 -3.32107e-13 0)
(664 -3.83601e-13 0)
(664 -3.59251e-13 0)
(664 -3.32503e-13 0)
(664 -3.72221e-13 0)
(664 -4.64018e-13 0)
(664 -5.11462e-13 0)
(664 -4.86254e-13 0)
(664 -4.97636e-13 0)
(664 -4.66197e-13 0)
(664 -3.25535e-13 0)
(664 -1.89477e-13 0)
(664 -2.21841e-13 0)
(664 -3.51333e-13 0)
(664 -4.74269e-13 0)
(664 -5.55845e-13 0)
(664 -5.80035e-13 0)
(664 -5.94408e-13 0)
(664 -6.06872e-13 0)
(664 -5.42798e-13 0)
(664 -4.81848e-13 0)
(664 -4.283e-13 0)
(664 -3.74285e-13 0)
(664 -3.0617e-13 0)
(664 -1.89471e-13 0)
(664 -2.50776e-14 0)
(664 -1.18172e-14 0)
(664 5.29727e-15 0)
(664 1.4371e-13 0)
(664 3.10746e-13 0)
(664 4.80483e-13 0)
(664 5.77144e-13 0)
(664 5.54381e-13 0)
(664 4.35173e-13 0)
(664 3.14185e-13 0)
(664 2.25391e-13 0)
(664 1.99041e-13 0)
(664 2.98556e-13 0)
(664 4.27523e-13 0)
(664 4.70545e-13 0)
(664 4.52593e-13 0)
(664 3.39014e-13 0)
(664 1.24645e-13 0)
(664 -1.68732e-13 0)
(664 -3.88902e-13 0)
(664 -4.38147e-13 0)
(664 -4.35638e-13 0)
(664 -4.32911e-13 0)
(664 -4.42858e-13 0)
(664 -3.94993e-13 0)
(664 -2.74194e-13 0)
(664 -1.55321e-13 0)
(664 -1.1118e-13 0)
(664 -2.27733e-14 0)
(664 1.34979e-13 0)
(664 4.03347e-13 0)
(664 7.01228e-13 0)
(664 9.04836e-13 0)
(664 1.05692e-12 0)
(664 1.1043e-12 0)
(664 1.03179e-12 0)
(664 9.16122e-13 0)
(664 7.02463e-13 0)
(664 4.86659e-13 0)
(664 2.77967e-13 0)
(664 4.50915e-14 0)
(664 -1.43159e-13 0)
(664 -2.43682e-13 0)
(664 -2.75353e-13 0)
(664 -2.08604e-13 0)
(664 -4.43368e-14 0)
(664 1.6835e-13 0)
(664 2.79463e-13 0)
(664 3.49026e-13 0)
(664 4.64679e-13 0)
(664 5.79293e-13 0)
(664 6.7553e-13 0)
(664 6.95607e-13 0)
(664 5.75443e-13 0)
(664 3.62059e-13 0)
(664 1.8574e-13 0)
(664 6.71386e-14 0)
(664 8.17775e-14 0)
(664 2.03185e-13 0)
(664 3.16458e-13 0)
(664 2.80824e-13 0)
(664 8.58023e-14 0)
(664 -1.54456e-13 0)
(664 -2.73033e-13 0)
(664 -1.45546e-13 0)
(664 1.86719e-13 0)
(664 5.94835e-13 0)
(664 1.2176e-12 0)
(664 2.1889e-12 0)
(664 3.60214e-12 0)
(664 5.86606e-12 0)
(664 9.79913e-12 0)
(664 1.65273e-11 0)
(664 2.79061e-11 0)
(664 4.70371e-11 0)
(664 7.90566e-11 0)
(664 1.32507e-10 0)
(664 2.21715e-10 0)
(664 3.70667e-10 0)
(664 6.19435e-10 0)
(664 1.035e-09 0)
(664 1.72905e-09 0)
(664 2.88844e-09 0)
(664 4.82565e-09 0)
(664 8.06323e-09 0)
(664 1.34749e-08 0)
(664 2.2523e-08 0)
(664 3.76544e-08 0)
(664 6.29672e-08 0)
(664 1.05326e-07 0)
(664 1.76234e-07 0)
(664 2.94984e-07 0)
(664 4.93939e-07 0)
(664 8.27425e-07 0)
(664 1.3867e-06 0)
(664 2.32513e-06 0)
(664 3.90067e-06 0)
(664 6.54747e-06 0)
(664 1.09968e-05 0)
(664 1.84813e-05 0)
(664 3.10804e-05 0)
(664 5.2305e-05 0)
(663.999 8.80885e-05 0)
(663.999 0.000148466 0)
(663.998 0.00025043 0)
(663.997 0.000422771 0)
(663.995 0.000714338 0)
(663.992 0.00120808 0)
(663.986 0.00204499 0)
(663.978 0.00346504 0)
(663.964 0.00587706 0)
(663.941 0.00997835 0)
(663.903 0.0169597 0)
(663.842 0.0288568 0)
(663.743 0.0491544 0)
(663.581 0.0838238 0)
(663.317 0.143112 0)
(662.889 0.244615 0)
(662.193 0.418606 0)
(661.067 0.717131 0)
(659.245 1.22999 0)
(656.312 2.11112 0)
(651.609 3.62684 0)
(644.157 6.22379 0)
(632.462 10.6717 0)
(615.399 18.1179 0)
(664 -5.88119e-15 0)
(664 -2.50519e-14 0)
(664 -5.66093e-14 0)
(664 -3.4296e-14 0)
(664 -1.45288e-14 0)
(664 -2.29252e-14 0)
(664 -1.99594e-14 0)
(664 -4.71061e-14 0)
(664 -5.5385e-14 0)
(664 -6.93914e-14 0)
(664 -1.11961e-13 0)
(664 -1.40543e-13 0)
(664 -1.98133e-13 0)
(664 -3.0417e-13 0)
(664 -3.66836e-13 0)
(664 -4.36846e-13 0)
(664 -5.18994e-13 0)
(664 -5.57842e-13 0)
(664 -5.19498e-13 0)
(664 -4.98356e-13 0)
(664 -4.18641e-13 0)
(664 -2.72507e-13 0)
(664 -2.35176e-13 0)
(664 -3.12002e-13 0)
(664 -3.99755e-13 0)
(664 -4.47106e-13 0)
(664 -4.26261e-13 0)
(664 -4.62086e-13 0)
(664 -5.54714e-13 0)
(664 -6.13677e-13 0)
(664 -6.23715e-13 0)
(664 -6.34565e-13 0)
(664 -5.99361e-13 0)
(664 -4.91325e-13 0)
(664 -3.47514e-13 0)
(664 -2.78978e-13 0)
(664 -3.01856e-13 0)
(664 -3.9189e-13 0)
(664 -4.44877e-13 0)
(664 -4.63214e-13 0)
(664 -4.3175e-13 0)
(664 -4.49032e-13 0)
(664 -5.33644e-13 0)
(664 -6.58164e-13 0)
(664 -7.76384e-13 0)
(664 -8.06522e-13 0)
(664 -7.2677e-13 0)
(664 -6.05952e-13 0)
(664 -4.30437e-13 0)
(664 -2.49637e-13 0)
(664 -2.12048e-13 0)
(664 -2.73807e-13 0)
(664 -3.78186e-13 0)
(664 -4.58054e-13 0)
(664 -4.83685e-13 0)
(664 -4.93604e-13 0)
(664 -4.62123e-13 0)
(664 -4.47499e-13 0)
(664 -4.76121e-13 0)
(664 -5.66005e-13 0)
(664 -6.71699e-13 0)
(664 -6.93796e-13 0)
(664 -6.91523e-13 0)
(664 -7.12764e-13 0)
(664 -7.52047e-13 0)
(664 -8.16971e-13 0)
(664 -9.15034e-13 0)
(664 -1.04691e-12 0)
(664 -1.16824e-12 0)
(664 -1.25918e-12 0)
(664 -1.32964e-12 0)
(664 -1.38234e-12 0)
(664 -1.40445e-12 0)
(664 -1.35357e-12 0)
(664 -1.17664e-12 0)
(664 -9.37107e-13 0)
(664 -6.62492e-13 0)
(664 -4.62982e-13 0)
(664 -4.31301e-13 0)
(664 -5.32198e-13 0)
(664 -6.62189e-13 0)
(664 -7.41703e-13 0)
(664 -7.99592e-13 0)
(664 -8.3729e-13 0)
(664 -8.34198e-13 0)
(664 -8.54946e-13 0)
(664 -9.51659e-13 0)
(664 -1.08023e-12 0)
(664 -1.1882e-12 0)
(664 -1.27698e-12 0)
(664 -1.34858e-12 0)
(664 -1.36113e-12 0)
(664 -1.45467e-12 0)
(664 -1.47847e-12 0)
(664 -1.40558e-12 0)
(664 -1.27086e-12 0)
(664 -1.0968e-12 0)
(664 -9.91763e-13 0)
(664 -9.35932e-13 0)
(664 -9.06958e-13 0)
(664 -9.26313e-13 0)
(664 -9.75923e-13 0)
(664 -1.02339e-12 0)
(664 -1.07245e-12 0)
(664 -1.06406e-12 0)
(664 -1.0255e-12 0)
(664 -9.18049e-13 0)
(664 -7.02029e-13 0)
(664 -5.46459e-13 0)
(664 -4.60672e-13 0)
(664 -3.71189e-13 0)
(664 -2.60422e-13 0)
(664 -2.56795e-13 0)
(664 -3.37587e-13 0)
(664 -4.07862e-13 0)
(664 -4.8382e-13 0)
(664 -6.25954e-13 0)
(664 -7.06164e-13 0)
(664 -6.60383e-13 0)
(664 -5.49089e-13 0)
(664 -4.44133e-13 0)
(664 -3.5575e-13 0)
(664 -2.98066e-13 0)
(664 -2.86046e-13 0)
(664 -3.03924e-13 0)
(664 -4.01097e-13 0)
(664 -4.47621e-13 0)
(664 -3.93139e-13 0)
(664 -2.8867e-13 0)
(664 -2.20857e-13 0)
(664 -3.14553e-13 0)
(664 -4.3962e-13 0)
(664 -5.22615e-13 0)
(664 -5.32917e-13 0)
(664 -5.23343e-13 0)
(664 -5.37791e-13 0)
(664 -5.84774e-13 0)
(664 -5.46677e-13 0)
(664 -3.84705e-13 0)
(664 -3.24886e-13 0)
(664 -4.13679e-13 0)
(664 -6.39454e-13 0)
(664 -8.29345e-13 0)
(664 -9.02197e-13 0)
(664 -8.6706e-13 0)
(664 -7.72151e-13 0)
(664 -6.43638e-13 0)
(664 -4.68696e-13 0)
(664 -3.43276e-13 0)
(664 -3.24996e-13 0)
(664 -2.74013e-13 0)
(664 -7.98992e-14 0)
(664 6.46765e-14 0)
(664 5.9285e-14 0)
(664 1.76606e-14 0)
(664 -5.06851e-14 0)
(664 -1.84796e-13 0)
(664 -3.26781e-13 0)
(664 -3.15138e-13 0)
(664 -1.06409e-13 0)
(664 7.76638e-14 0)
(664 7.89693e-14 0)
(664 -3.07112e-14 0)
(664 -2.01112e-13 0)
(664 -3.4634e-13 0)
(664 -4.36852e-13 0)
(664 -4.1757e-13 0)
(664 -3.18049e-13 0)
(664 -1.72695e-13 0)
(664 -6.06063e-15 0)
(664 8.79775e-14 0)
(664 1.45885e-13 0)
(664 9.04571e-14 0)
(664 -1.12118e-13 0)
(664 -3.62938e-13 0)
(664 -5.77954e-13 0)
(664 -6.79757e-13 0)
(664 -7.20344e-13 0)
(664 -7.07481e-13 0)
(664 -6.98951e-13 0)
(664 -7.7352e-13 0)
(664 -8.02577e-13 0)
(664 -6.77583e-13 0)
(664 -4.91883e-13 0)
(664 -2.26896e-13 0)
(664 -2.59675e-14 0)
(664 6.54462e-14 0)
(664 4.11906e-14 0)
(664 4.03176e-14 0)
(664 4.76793e-14 0)
(664 2.72781e-14 0)
(664 -1.01856e-13 0)
(664 -2.40927e-13 0)
(664 -3.15951e-13 0)
(664 -3.91013e-13 0)
(664 -5.03721e-13 0)
(664 -5.42543e-13 0)
(664 -5.27829e-13 0)
(664 -5.42844e-13 0)
(664 -5.41243e-13 0)
(664 -5.0668e-13 0)
(664 -4.5187e-13 0)
(664 -3.84004e-13 0)
(664 -2.18506e-13 0)
(664 -1.28586e-14 0)
(664 1.93633e-13 0)
(664 3.99887e-13 0)
(664 5.89292e-13 0)
(664 7.09552e-13 0)
(664 6.91222e-13 0)
(664 6.57266e-13 0)
(664 6.26819e-13 0)
(664 6.34822e-13 0)
(664 6.18275e-13 0)
(664 4.63831e-13 0)
(664 2.6777e-13 0)
(664 1.68062e-13 0)
(664 1.45676e-13 0)
(664 1.99881e-13 0)
(664 3.17496e-13 0)
(664 4.32303e-13 0)
(664 5.56589e-13 0)
(664 6.63911e-13 0)
(664 6.87605e-13 0)
(664 6.2143e-13 0)
(664 5.2226e-13 0)
(664 3.96354e-13 0)
(664 3.72759e-13 0)
(664 4.23944e-13 0)
(664 4.53035e-13 0)
(664 3.97152e-13 0)
(664 2.33041e-13 0)
(664 1.19601e-14 0)
(664 -1.70936e-13 0)
(664 -3.20195e-13 0)
(664 -4.18713e-13 0)
(664 -3.99916e-13 0)
(664 -2.51755e-13 0)
(664 2.70938e-14 0)
(664 4.99332e-13 0)
(664 1.19464e-12 0)
(664 2.22748e-12 0)
(664 3.6613e-12 0)
(664 5.73632e-12 0)
(664 9.1134e-12 0)
(664 1.4847e-11 0)
(664 2.45232e-11 0)
(664 4.07642e-11 0)
(664 6.79388e-11 0)
(664 1.13192e-10 0)
(664 1.88646e-10 0)
(664 3.14353e-10 0)
(664 5.23579e-10 0)
(664 8.71833e-10 0)
(664 1.45156e-09 0)
(664 2.41622e-09 0)
(664 4.02112e-09 0)
(664 6.69098e-09 0)
(664 1.11322e-08 0)
(664 1.85196e-08 0)
(664 3.08071e-08 0)
(664 5.12444e-08 0)
(664 8.52371e-08 0)
(664 1.41777e-07 0)
(664 2.35821e-07 0)
(664 3.92254e-07 0)
(664 6.52479e-07 0)
(664 1.08539e-06 0)
(664 1.80564e-06 0)
(664 3.00402e-06 0)
(664 4.99816e-06 0)
(664 8.31674e-06 0)
(664 1.38399e-05 0)
(664 2.30332e-05 0)
(664 3.83365e-05 0)
(664 6.3813e-05 0)
(663.999 0.000106229 0)
(663.999 0.000176851 0)
(663.998 0.000294442 0)
(663.998 0.000490244 0)
(663.996 0.000816277 0)
(663.994 0.00135914 0)
(663.99 0.00226299 0)
(663.983 0.00376769 0)
(663.973 0.00627229 0)
(663.956 0.0104403 0)
(663.928 0.0173747 0)
(663.884 0.028907 0)
(663.813 0.0480777 0)
(663.698 0.0799274 0)
(663.513 0.132805 0)
(663.217 0.220516 0)
(662.743 0.365845 0)
(661.985 0.606316 0)
(660.777 1.00346 0)
(658.858 1.65783 0)
(655.824 2.73189 0)
(651.079 4.48649 0)
(643.689 7.32341 0)
(632.92 11.8553 0)
(664 -2.25747e-14 0)
(664 -4.37085e-14 0)
(664 -7.32318e-14 0)
(664 -6.6427e-14 0)
(664 -3.70813e-14 0)
(664 2.54564e-15 0)
(664 -1.70971e-15 0)
(664 -1.24155e-14 0)
(664 -6.72548e-15 0)
(664 -2.66529e-14 0)
(664 -1.34112e-13 0)
(664 -2.09726e-13 0)
(664 -1.28899e-13 0)
(664 -8.63968e-15 0)
(664 7.33945e-14 0)
(664 5.62039e-14 0)
(664 -7.7346e-14 0)
(664 -1.6464e-13 0)
(664 -2.338e-13 0)
(664 -3.17673e-13 0)
(664 -4.06695e-13 0)
(664 -4.09232e-13 0)
(664 -3.66006e-13 0)
(664 -4.13635e-13 0)
(664 -5.30786e-13 0)
(664 -6.51359e-13 0)
(664 -7.63446e-13 0)
(664 -7.71319e-13 0)
(664 -7.30825e-13 0)
(664 -6.42743e-13 0)
(664 -5.92692e-13 0)
(664 -6.0891e-13 0)
(664 -6.65749e-13 0)
(664 -7.12427e-13 0)
(664 -6.82059e-13 0)
(664 -6.54306e-13 0)
(664 -6.7152e-13 0)
(664 -7.76613e-13 0)
(664 -8.24295e-13 0)
(664 -7.48249e-13 0)
(664 -6.97646e-13 0)
(664 -7.33102e-13 0)
(664 -7.38365e-13 0)
(664 -6.92036e-13 0)
(664 -6.32108e-13 0)
(664 -5.5066e-13 0)
(664 -5.32034e-13 0)
(664 -4.92477e-13 0)
(664 -4.45125e-13 0)
(664 -3.95915e-13 0)
(664 -3.31185e-13 0)
(664 -2.88417e-13 0)
(664 -3.1121e-13 0)
(664 -4.59102e-13 0)
(664 -5.9767e-13 0)
(664 -6.03164e-13 0)
(664 -5.24567e-13 0)
(664 -4.83523e-13 0)
(664 -4.6737e-13 0)
(664 -4.11037e-13 0)
(664 -3.2472e-13 0)
(664 -2.7181e-13 0)
(664 -3.20058e-13 0)
(664 -5.06457e-13 0)
(664 -7.43544e-13 0)
(664 -8.35692e-13 0)
(664 -8.70278e-13 0)
(664 -9.41549e-13 0)
(664 -1.05019e-12 0)
(664 -1.09379e-12 0)
(664 -1.08e-12 0)
(664 -1.05793e-12 0)
(664 -1.00713e-12 0)
(664 -8.67742e-13 0)
(664 -7.78645e-13 0)
(664 -6.99484e-13 0)
(664 -6.25726e-13 0)
(664 -6.09158e-13 0)
(664 -5.94904e-13 0)
(664 -6.10813e-13 0)
(664 -6.65465e-13 0)
(664 -7.40989e-13 0)
(664 -8.13423e-13 0)
(664 -7.71225e-13 0)
(664 -5.6133e-13 0)
(664 -2.76478e-13 0)
(664 -4.12082e-14 0)
(664 1.25269e-13 0)
(664 1.70751e-13 0)
(664 1.97541e-13 0)
(664 1.23145e-13 0)
(664 -4.36038e-14 0)
(664 -2.54397e-13 0)
(664 -4.97455e-13 0)
(664 -6.73012e-13 0)
(664 -8.03098e-13 0)
(664 -8.87276e-13 0)
(664 -9.6426e-13 0)
(664 -1.10959e-12 0)
(664 -1.2072e-12 0)
(664 -1.20152e-12 0)
(664 -1.17254e-12 0)
(664 -1.15344e-12 0)
(664 -1.07493e-12 0)
(664 -1.07277e-12 0)
(664 -1.12179e-12 0)
(664 -1.24491e-12 0)
(664 -1.39164e-12 0)
(664 -1.43363e-12 0)
(664 -1.39262e-12 0)
(664 -1.40153e-12 0)
(664 -1.4475e-12 0)
(664 -1.4186e-12 0)
(664 -1.3474e-12 0)
(664 -1.27656e-12 0)
(664 -1.33283e-12 0)
(664 -1.47608e-12 0)
(664 -1.55469e-12 0)
(664 -1.48865e-12 0)
(664 -1.35515e-12 0)
(664 -1.29029e-12 0)
(664 -1.24115e-12 0)
(664 -1.16143e-12 0)
(664 -1.07186e-12 0)
(664 -1.05036e-12 0)
(664 -1.17224e-12 0)
(664 -1.36144e-12 0)
(664 -1.47138e-12 0)
(664 -1.43698e-12 0)
(664 -1.30582e-12 0)
(664 -1.15495e-12 0)
(664 -1.07375e-12 0)
(664 -1.03605e-12 0)
(664 -9.82188e-13 0)
(664 -8.5278e-13 0)
(664 -6.58731e-13 0)
(664 -4.27356e-13 0)
(664 -1.47609e-13 0)
(664 1.46227e-13 0)
(664 3.20298e-13 0)
(664 3.27091e-13 0)
(664 2.63942e-13 0)
(664 2.04667e-13 0)
(664 1.70092e-13 0)
(664 3.25641e-14 0)
(664 -1.77344e-13 0)
(664 -2.64129e-13 0)
(664 -2.59988e-13 0)
(664 -2.26098e-13 0)
(664 -1.889e-13 0)
(664 -1.86699e-13 0)
(664 -2.87738e-13 0)
(664 -3.97878e-13 0)
(664 -4.00555e-13 0)
(664 -2.59318e-13 0)
(664 -8.14987e-14 0)
(664 -1.22338e-14 0)
(664 2.94303e-14 0)
(664 7.65036e-14 0)
(664 -1.11965e-14 0)
(664 -2.46522e-13 0)
(664 -5.1756e-13 0)
(664 -6.93561e-13 0)
(664 -8.17243e-13 0)
(664 -9.1955e-13 0)
(664 -9.10879e-13 0)
(664 -8.46396e-13 0)
(664 -7.45108e-13 0)
(664 -6.30812e-13 0)
(664 -4.87929e-13 0)
(664 -3.89168e-13 0)
(664 -3.66292e-13 0)
(664 -3.94524e-13 0)
(664 -3.83662e-13 0)
(664 -3.48771e-13 0)
(664 -3.11158e-13 0)
(664 -2.53939e-13 0)
(664 -2.24638e-13 0)
(664 -2.68311e-13 0)
(664 -3.67756e-13 0)
(664 -3.66758e-13 0)
(664 -2.58366e-13 0)
(664 -1.45665e-13 0)
(664 -9.68265e-14 0)
(664 -5.11922e-14 0)
(664 6.97195e-14 0)
(664 1.00687e-13 0)
(664 1.1848e-13 0)
(664 9.52952e-14 0)
(664 3.66989e-14 0)
(664 -2.58912e-14 0)
(664 -8.19028e-14 0)
(664 -1.0646e-13 0)
(664 -2.0898e-13 0)
(664 -3.63053e-13 0)
(664 -4.36446e-13 0)
(664 -4.10794e-13 0)
(664 -3.0618e-13 0)
(664 -2.16318e-13 0)
(664 -2.16646e-13 0)
(664 -1.59111e-13 0)
(664 1.96438e-14 0)
(664 1.96581e-13 0)
(664 3.3843e-13 0)
(664 4.65236e-13 0)
(664 5.37927e-13 0)
(664 5.54395e-13 0)
(664 5.35128e-13 0)
(664 4.49929e-13 0)
(664 2.73782e-13 0)
(664 7.54762e-14 0)
(664 2.03175e-14 0)
(664 8.98591e-14 0)
(664 2.17592e-13 0)
(664 3.29612e-13 0)
(664 4.18929e-13 0)
(664 4.4477e-13 0)
(664 4.48404e-13 0)
(664 4.73246e-13 0)
(664 4.26384e-13 0)
(664 3.60972e-13 0)
(664 3.31569e-13 0)
(664 3.01276e-13 0)
(664 1.6557e-13 0)
(664 2.66396e-14 0)
(664 -4.65471e-14 0)
(664 -6.86151e-14 0)
(664 -3.74142e-14 0)
(664 6.41919e-14 0)
(664 1.85913e-13 0)
(664 2.16136e-13 0)
(664 1.66517e-13 0)
(664 1.05783e-13 0)
(664 9.43787e-14 0)
(664 1.95595e-13 0)
(664 3.75775e-13 0)
(664 6.0383e-13 0)
(664 7.99079e-13 0)
(664 8.67539e-13 0)
(664 1.0246e-12 0)
(664 1.4279e-12 0)
(664 2.14542e-12 0)
(664 3.47403e-12 0)
(664 5.81632e-12 0)
(664 9.76005e-12 0)
(664 1.62845e-11 0)
(664 2.71509e-11 0)
(664 4.53303e-11 0)
(664 7.57111e-11 0)
(664 1.26422e-10 0)
(664 2.10664e-10 0)
(664 3.50384e-10 0)
(664 5.82e-10 0)
(664 9.65818e-10 0)
(664 1.60186e-09 0)
(664 2.65537e-09 0)
(664 4.39991e-09 0)
(664 7.28791e-09 0)
(664 1.20679e-08 0)
(664 1.99773e-08 0)
(664 3.30618e-08 0)
(664 5.47012e-08 0)
(664 9.04803e-08 0)
(664 1.49623e-07 0)
(664 2.47366e-07 0)
(664 4.0886e-07 0)
(664 6.75631e-07 0)
(664 1.1162e-06 0)
(664 1.84364e-06 0)
(664 3.04444e-06 0)
(664 5.0262e-06 0)
(664 8.29595e-06 0)
(664 1.36895e-05 0)
(664 2.25836e-05 0)
(664 3.72465e-05 0)
(664 6.14118e-05 0)
(664 0.000101225 0)
(663.999 0.000166794 0)
(663.999 0.00027474 0)
(663.998 0.000452374 0)
(663.997 0.00074455 0)
(663.995 0.00122488 0)
(663.992 0.00201408 0)
(663.988 0.00330998 0)
(663.981 0.00543642 0)
(663.969 0.00892305 0)
(663.95 0.0146351 0)
(663.92 0.0239843 0)
(663.871 0.0392704 0)
(663.794 0.0642342 0)
(663.671 0.104948 0)
(663.476 0.171251 0)
(663.166 0.279031 0)
(662.674 0.453888 0)
(661.895 0.736829 0)
(660.669 1.19336 0)
(658.74 1.92665 0)
(655.734 3.0992 0)
(651.045 4.95471 0)
(644.153 7.86877 0)
(664 3.4894e-14 0)
(664 5.83936e-14 0)
(664 7.16227e-14 0)
(664 7.66033e-14 0)
(664 1.04646e-13 0)
(664 1.60182e-13 0)
(664 2.33583e-13 0)
(664 3.12245e-13 0)
(664 3.70931e-13 0)
(664 3.87081e-13 0)
(664 3.50442e-13 0)
(664 2.89984e-13 0)
(664 3.05652e-13 0)
(664 3.73958e-13 0)
(664 4.45025e-13 0)
(664 5.14487e-13 0)
(664 5.55507e-13 0)
(664 5.04378e-13 0)
(664 3.57385e-13 0)
(664 2.10623e-13 0)
(664 2.65737e-14 0)
(664 -2.18691e-13 0)
(664 -4.30392e-13 0)
(664 -4.70573e-13 0)
(664 -3.91703e-13 0)
(664 -3.84676e-13 0)
(664 -4.3693e-13 0)
(664 -4.21468e-13 0)
(664 -3.33299e-13 0)
(664 -2.93893e-13 0)
(664 -2.93999e-13 0)
(664 -3.66406e-13 0)
(664 -5.38141e-13 0)
(664 -7.56721e-13 0)
(664 -9.17166e-13 0)
(664 -9.78059e-13 0)
(664 -9.55626e-13 0)
(664 -9.30986e-13 0)
(664 -9.38279e-13 0)
(664 -9.19886e-13 0)
(664 -8.53322e-13 0)
(664 -7.69712e-13 0)
(664 -6.63232e-13 0)
(664 -5.85584e-13 0)
(664 -5.31146e-13 0)
(664 -5.11849e-13 0)
(664 -5.36306e-13 0)
(664 -6.119e-13 0)
(664 -7.16858e-13 0)
(664 -8.02066e-13 0)
(664 -7.94201e-13 0)
(664 -7.42914e-13 0)
(664 -6.6834e-13 0)
(664 -5.64622e-13 0)
(664 -4.59997e-13 0)
(664 -3.00012e-13 0)
(664 -1.92794e-13 0)
(664 -2.12328e-13 0)
(664 -3.21062e-13 0)
(664 -4.12898e-13 0)
(664 -4.89359e-13 0)
(664 -5.80603e-13 0)
(664 -7.05125e-13 0)
(664 -8.19989e-13 0)
(664 -8.59117e-13 0)
(664 -8.51902e-13 0)
(664 -8.6725e-13 0)
(664 -8.82755e-13 0)
(664 -7.66318e-13 0)
(664 -6.88228e-13 0)
(664 -6.91393e-13 0)
(664 -7.03319e-13 0)
(664 -6.18736e-13 0)
(664 -4.80901e-13 0)
(664 -4.23416e-13 0)
(664 -4.53453e-13 0)
(664 -5.61903e-13 0)
(664 -6.73628e-13 0)
(664 -7.90261e-13 0)
(664 -8.58295e-13 0)
(664 -8.64268e-13 0)
(664 -7.50098e-13 0)
(664 -6.14403e-13 0)
(664 -6.33585e-13 0)
(664 -7.28784e-13 0)
(664 -8.09679e-13 0)
(664 -8.63495e-13 0)
(664 -8.98438e-13 0)
(664 -8.77917e-13 0)
(664 -8.35811e-13 0)
(664 -8.65279e-13 0)
(664 -9.3386e-13 0)
(664 -9.26147e-13 0)
(664 -8.10218e-13 0)
(664 -7.50711e-13 0)
(664 -7.98207e-13 0)
(664 -8.80952e-13 0)
(664 -8.60778e-13 0)
(664 -8.10367e-13 0)
(664 -7.2958e-13 0)
(664 -5.39629e-13 0)
(664 -3.21061e-13 0)
(664 -2.51772e-13 0)
(664 -2.67704e-13 0)
(664 -2.94934e-13 0)
(664 -2.46083e-13 0)
(664 -2.36463e-13 0)
(664 -3.70496e-13 0)
(664 -5.82284e-13 0)
(664 -7.50008e-13 0)
(664 -8.33657e-13 0)
(664 -8.69078e-13 0)
(664 -9.2713e-13 0)
(664 -1.10592e-12 0)
(664 -1.27813e-12 0)
(664 -1.29825e-12 0)
(664 -1.20574e-12 0)
(664 -1.05523e-12 0)
(664 -9.1195e-13 0)
(664 -7.95794e-13 0)
(664 -8.32219e-13 0)
(664 -1.03125e-12 0)
(664 -1.2059e-12 0)
(664 -1.30902e-12 0)
(664 -1.39157e-12 0)
(664 -1.30425e-12 0)
(664 -1.14571e-12 0)
(664 -1.03198e-12 0)
(664 -1.00883e-12 0)
(664 -1.03293e-12 0)
(664 -9.66584e-13 0)
(664 -8.30194e-13 0)
(664 -7.39469e-13 0)
(664 -6.57024e-13 0)
(664 -6.14247e-13 0)
(664 -7.16245e-13 0)
(664 -8.6182e-13 0)
(664 -9.4985e-13 0)
(664 -9.34368e-13 0)
(664 -7.98595e-13 0)
(664 -4.99433e-13 0)
(664 -4.0493e-14 0)
(664 4.09337e-13 0)
(664 7.71459e-13 0)
(664 1.1703e-12 0)
(664 1.5151e-12 0)
(664 1.69845e-12 0)
(664 1.73875e-12 0)
(664 1.76574e-12 0)
(664 1.74865e-12 0)
(664 1.54129e-12 0)
(664 1.1862e-12 0)
(664 8.70509e-13 0)
(664 6.06018e-13 0)
(664 3.37786e-13 0)
(664 1.55851e-13 0)
(664 3.25469e-14 0)
(664 -1.74106e-13 0)
(664 -3.83385e-13 0)
(664 -5.13591e-13 0)
(664 -6.48691e-13 0)
(664 -7.18895e-13 0)
(664 -7.08525e-13 0)
(664 -6.58782e-13 0)
(664 -6.03486e-13 0)
(664 -5.80003e-13 0)
(664 -6.68759e-13 0)
(664 -8.45777e-13 0)
(664 -9.87198e-13 0)
(664 -1.03243e-12 0)
(664 -1.02275e-12 0)
(664 -1.0812e-12 0)
(664 -1.09593e-12 0)
(664 -1.01812e-12 0)
(664 -8.85005e-13 0)
(664 -8.11053e-13 0)
(664 -8.2707e-13 0)
(664 -8.0481e-13 0)
(664 -8.12881e-13 0)
(664 -9.00908e-13 0)
(664 -9.97532e-13 0)
(664 -1.03706e-12 0)
(664 -9.81838e-13 0)
(664 -8.86623e-13 0)
(664 -7.96712e-13 0)
(664 -7.51e-13 0)
(664 -7.23789e-13 0)
(664 -6.64665e-13 0)
(664 -4.94966e-13 0)
(664 -2.88919e-13 0)
(664 -1.55626e-13 0)
(664 -3.50266e-14 0)
(664 8.05405e-14 0)
(664 1.82281e-13 0)
(664 2.08781e-13 0)
(664 1.85695e-13 0)
(664 1.00517e-13 0)
(664 1.7805e-14 0)
(664 -4.27054e-14 0)
(664 -3.19333e-14 0)
(664 1.58115e-14 0)
(664 9.91602e-14 0)
(664 1.65358e-13 0)
(664 1.44123e-13 0)
(664 9.7567e-14 0)
(664 1.36393e-13 0)
(664 1.3683e-13 0)