/*--------------------------------*- C++ -*----------------------------------*\
| =========                 |                                                 |
| \\      /  F ield         | OpenFOAM: The Open Source CFD Toolbox           |
|  \\    /   O peration     | Version:  2412                                  |
|   \\  /    A nd           | Website:  www.openfoam.com                      |
|    \\/     M anipulation  |                                                 |
\*---------------------------------------------------------------------------*/
FoamFile
{
    version     2.0;
    format      ascii;
    arch        "LSB;label=32;scalar=64";
    class       volScalarField;
    location    "3";
    object      p;
}
// * * * * * * * * * * * * * * * * * * * * * * * * * * * * * * * * * * * * * //

dimensions      [1 -1 -2 0 0 0 0];

internalField   nonuniform List<scalar> 
200
(
1.17591
0.883808
1.07279
0.935006
1.03874
0.983098
1.01029
1.00172
1.00274
1.00323
1.1727
0.859345
1.05216
0.991683
1.00131
0.999264
0.999626
1.00043
1.00113
1.0016
1.16992
0.864051
1.04054
0.987382
1.00165
0.999858
1.00028
1.00133
1.00205
1.00241
1.16604
0.892546
1.04725
0.957361
0.999439
0.984356
0.99184
0.994793
0.997973
1.00009
1.20627
0.934579
1.01632
0.987663
0.998671
0.997135
0.998678
0.999533
1.00037
1.00102
1.17405
0.88714
1.05422
0.955058
1.00688
0.985727
0.993257
0.993469
0.995697
0.997654
1.17361
0.85298
1.03891
0.995725
0.997897
0.998184
0.99865
0.999193
0.999767
1.00036
1.18208
0.864523
1.08568
0.982395
1.00497
1.00171
1.00037
1.00014
1.00103
1.00141
1.18136
0.88419
1.06355
0.903336
1.03534
0.984438
1.00739
0.999017
1.00251
1.00101
1.18116
0.878663
1.0762
0.952643
1.02199
0.98407
1.01262
0.99044
1.00863
0.997569
1.00323
1.00272
1.0026
1.00236
1.00227
1.00241
1.00269
1.00297
1.00316
1.00323
1.00167
1.00164
1.00179
1.00171
1.00191
1.0022
1.00272
1.00306
1.00327
1.00336
1.00232
1.00247
1.00246
1.0026
1.00266
1.00279
1.00302
1.00316
1.00327
1.00334
1.00136
1.00178
1.00184
1.00205
1.00234
1.00269
1.00301
1.00315
1.00331
1.00338
1.00163
1.00209
1.0023
1.00268
1.00286
1.00301
1.00322
1.00327
1.00333
1.00337
1.00005
1.00142
1.00198
1.00253
1.00283
1.00296
1.00322
1.00321
1.0033
1.00334
1.00141
1.002
1.00233
1.00257
1.00288
1.00302
1.00319
1.00325
1.00331
1.00334
1.00222
1.00154
1.00247
1.00291
1.00311
1.00313
1.00314
1.00316
1.00319
1.00324
1.0026
1.00075
1.00266
1.00213
1.00276
1.0029
1.00304
1.00313
1.0032
1.00328
1.00554
1.00038
1.00323
1.00242
1.00283
1.00298
1.00306
1.00313
1.00319
1.00324
)
;

boundaryField
{
    inlet
    {
        type            fixedValue;
        value           uniform 1;
    }
    sym
    {
        type            slip;
    }
    wedge
    {
        type            slip;
    }
    top
    {
        type            slip;
    }
    back
    {
        type            empty;
    }
    front
    {
        type            empty;
    }
    outlet
    {
        type            zeroGradient;
    }
}


// ************************************************************************* //
