/*--------------------------------*- C++ -*----------------------------------*\
| =========                 |                                                 |
| \\      /  F ield         | OpenFOAM: The Open Source CFD Toolbox           |
|  \\    /   O peration     | Version:  2412                                  |
|   \\  /    A nd           | Website:  www.openfoam.com                      |
|    \\/     M anipulation  |                                                 |
\*---------------------------------------------------------------------------*/
FoamFile
{
    version     2.0;
    format      ascii;
    arch        "LSB;label=32;scalar=64";
    class       surfaceScalarField;
    location    "3";
    object      phi;
}
// * * * * * * * * * * * * * * * * * * * * * * * * * * * * * * * * * * * * * //

dimensions      [1 0 -1 0 0 0 0];

oriented        oriented;

internalField   nonuniform List<scalar> 
370
(
0.529202
6.26405e-08
0.529201
3.77649e-07
0.5292
1.22534e-06
0.529197
3.2644e-06
0.529189
7.99735e-06
0.52917
1.88654e-05
0.529126
4.38427e-05
0.529024
0.000101851
0.528784
0.000240267
0.000590771
0.528193
0.529202
3.2055e-08
0.529202
2.00821e-07
0.529203
6.75108e-07
0.529204
1.8308e-06
0.529208
4.51843e-06
0.529216
1.06651e-05
0.529235
2.46421e-05
0.52928
5.64396e-05
0.529392
0.000128836
0.000296822
0.529685
0.529202
1.01201e-08
0.529202
6.3322e-08
0.529203
2.12434e-07
0.529204
5.74422e-07
0.529207
1.41191e-06
0.529214
3.31466e-06
0.529231
7.60549e-06
0.52927
1.7273e-05
0.52936
3.89196e-05
8.80263e-05
0.529569
0.529202
3.18667e-09
0.529202
1.995e-08
0.529202
6.69351e-08
0.529202
1.80836e-07
0.529203
4.43679e-07
0.529206
1.03867e-06
0.529211
2.37438e-06
0.529223
5.36611e-06
0.52925
1.20253e-05
2.6963e-05
0.52931
0.529202
1.00638e-09
0.529202
6.29632e-09
0.529202
2.11119e-08
0.529202
5.70166e-08
0.529202
1.39863e-07
0.529203
3.27389e-07
0.529205
7.48355e-07
0.529208
1.69105e-06
0.529217
3.78936e-06
8.48913e-06
0.529235
0.529202
3.26282e-10
0.529202
2.04122e-09
0.529202
6.84422e-09
0.529202
1.84856e-08
0.529202
4.53527e-08
0.529202
1.06186e-07
0.529203
2.42796e-07
0.529204
5.48841e-07
0.529206
1.23021e-06
2.75496e-06
0.529212
0.529202
1.05611e-10
0.529202
6.6068e-10
0.529202
2.21531e-09
0.529202
5.98373e-09
0.529202
1.46819e-08
0.529202
3.43808e-08
0.529202
7.86261e-08
0.529203
1.77776e-07
0.529203
3.98555e-07
8.92342e-07
0.529205
0.529202
3.30729e-11
0.529202
2.06985e-10
0.529202
6.94279e-10
0.529202
1.87553e-09
0.529202
4.60159e-09
0.529202
1.07736e-08
0.529202
2.46321e-08
0.529202
5.5677e-08
0.529202
1.24769e-07
2.79094e-07
0.529203
0.529202
9.0593e-12
0.529202
5.67516e-11
0.529202
1.90525e-10
0.529202
5.14807e-10
0.529202
1.26284e-09
0.529202
2.95519e-09
0.529202
6.75168e-09
0.529202
1.52468e-08
0.529202
3.41382e-08
7.62722e-08
0.529202
0.529202
0.529202
0.529202
0.529202
0.529202
0.529202
0.529202
0.529202
0.529202
0.529202
0.643594
-0.115406
0.753803
-0.110234
0.855624
-0.101826
0.950018
-0.0944217
1.02318
-0.0731763
1.06676
-0.043549
1.06592
0.000893537
0.98282
0.0831368
0.888867
0.0939336
0.0654717
0.529287
-0.115005
0.527704
-0.108678
0.529512
-0.103597
0.530905
-0.095812
0.548811
-0.0911369
0.576633
-0.0713628
0.620167
-0.04262
0.690633
0.0127036
0.721803
0.062692
0.0935902
0.519006
-0.104439
0.512756
-0.102427
0.509601
-0.100454
0.511082
-0.097288
0.514349
-0.0944042
0.531961
-0.0889703
0.568855
-0.0795109
0.649915
-0.068368
0.757993
-0.0453972
0.0569919
0.51579
-0.0909161
0.503401
-0.0900397
0.492173
-0.0892274
0.482706
-0.087821
0.474675
-0.0863774
0.470024
-0.0843175
0.470298
-0.0797844
0.473838
-0.0719077
0.486098
-0.0576669
-0.03376
0.514501
-0.0761809
0.500311
-0.0758512
0.486577
-0.0754928
0.473661
-0.074906
0.461509
-0.0742266
0.450463
-0.0732713
0.442437
-0.0717572
0.438678
-0.0681498
0.443236
-0.0622246
-0.0540748
0.514104
-0.0610724
0.499209
-0.0609567
0.484517
-0.0608006
0.470174
-0.0605634
0.45619
-0.0602425
0.442725
-0.0598064
0.430102
-0.0591341
0.419846
-0.0578929
0.412988
-0.0553677
-0.0519453
0.513973
-0.0458401
0.498818
-0.0458023
0.483757
-0.0457395
0.468837
-0.0456432
0.454087
-0.045493
0.439572
-0.0452914
0.42541
-0.0449715
0.411982
-0.0444646
0.40006
-0.0434455
-0.0419425
0.513932
-0.0305691
0.498687
-0.0305575
0.483482
-0.0305345
0.468332
-0.0304924
0.453263
-0.030425
0.438303
-0.0303306
0.423508
-0.0301774
0.40899
-0.0299463
0.39507
-0.029525
-0.0288572
0.513919
-0.015286
0.498644
-0.0152824
0.483384
-0.0152748
0.468151
-0.0152588
0.452959
-0.0152334
0.43782
-0.0151918
0.422772
-0.015129
0.407858
-0.0150323
0.393207
-0.0148735
-0.0146059
0.513916
0.498634
0.483359
0.4681
0.452867
0.437675
0.422546
0.407514
0.39264
)
;

boundaryField
{
    inlet
    {
        type            calculated;
        value           nonuniform List<scalar> 10(-0.529202 -0.529202 -0.529202 -0.529202 -0.529202 -0.529202 -0.529202 -0.529202 -0.529202 -0.529202);
    }
    sym
    {
        type            calculated;
        value           uniform 0;
    }
    wedge
    {
        type            calculated;
        value           nonuniform List<scalar> 10(-1.68131e-37 2.81989e-17 0 4.14103e-17 9.30587e-17 1.18754e-16 0 5.88999e-17 0 5.34068e-17);
    }
    top
    {
        type            calculated;
        value           uniform 0;
    }
    back
    {
        type            empty;
    }
    front
    {
        type            empty;
    }
    outlet
    {
        type            calculated;
        value           nonuniform List<scalar> 10(0.823372 0.693661 0.794589 0.576807 0.463536 0.410855 0.390056 0.381984 0.378955 0.378034);
    }
}


// ************************************************************************* //
