/*--------------------------------*- C++ -*----------------------------------*\
| =========                 |                                                 |
| \\      /  F ield         | OpenFOAM: The Open Source CFD Toolbox           |
|  \\    /   O peration     | Version:  2412                                  |
|   \\  /    A nd           | Website:  www.openfoam.com                      |
|    \\/     M anipulation  |                                                 |
\*---------------------------------------------------------------------------*/
FoamFile
{
    version     2.0;
    format      ascii;
    arch        "LSB;label=32;scalar=64";
    class       surfaceScalarField;
    location    "3";
    object      phi;
}
// * * * * * * * * * * * * * * * * * * * * * * * * * * * * * * * * * * * * * //

dimensions      [1 0 -1 0 0 0 0];

oriented        oriented;

internalField   nonuniform List<scalar> 
370
(
5.17581e-05
0.000103408
-0.000177718
0.000229845
-0.000177842
1.04879e-07
0.000298652
-0.000476392
0.000259457
3.9485e-05
0.000391981
-0.000132263
0.000390723
1.22351e-06
0.000383665
6.51277e-06
0.000367732
1.54522e-05
1.77882e-05
0.000349787
0.00034952
-0.000106292
0.00077711
-0.000197359
0.000934251
-0.000157069
0.000596827
-0.000138962
0.000684838
-4.83052e-05
0.000550025
2.7058e-06
0.00046353
8.78608e-05
0.000341813
0.000128261
0.000221863
0.000134964
0.000114857
0.000125063
0.000346536
-0.000320677
0.000689488
-0.000540036
0.000583266
-5.15841e-05
0.000448855
-4.60966e-06
0.000408839
-8.34714e-06
0.000321739
9.03884e-05
0.000261944
0.000149
0.000206988
0.000183909
0.000168679
0.000173397
0.000130782
0.00015211
0.000137879
-0.000335534
-7.21244e-05
-0.000330357
-0.000432745
0.000308294
-0.000503332
6.65339e-05
-0.000620129
0.000108531
-0.00060488
7.54742e-05
-0.000540095
8.4497e-05
-0.000444985
8.87235e-05
-0.000343041
7.12321e-05
3.96565e-05
-0.000252065
-0.000811488
0.000297864
-0.00153464
0.000392774
-0.000923189
-0.000303037
-0.000826183
-2.85276e-05
-0.000673623
-4.35852e-05
-0.000594108
-4.04338e-06
-0.000507411
-2.14198e-06
-0.000419701
1.10269e-06
-0.000338828
-9.55252e-06
-2.28075e-05
-0.0002762
8.37946e-05
0.000330509
-9.07083e-05
0.000567647
-0.000397979
3.18667e-06
-0.000437425
8.50706e-06
-0.000569418
8.82821e-05
-0.00057014
-3.57175e-06
-0.000542587
-2.94223e-05
-0.000477364
-6.40335e-05
-0.000398834
-8.79475e-05
-9.95242e-05
-0.000322217
0.000372255
8.22869e-05
0.000826614
0.000113313
0.00081784
1.11532e-05
0.000614343
0.000211696
0.000586594
0.000116001
0.000515338
6.7997e-05
0.000457815
2.85783e-05
0.000402176
-7.37395e-06
0.000353877
-3.77799e-05
-5.44035e-05
0.000309323
0.000247892
-2.56389e-05
0.000617328
-0.000256461
0.00077869
-0.000151168
0.000741427
0.000249216
0.000895282
-3.79136e-05
0.000817624
0.000145364
0.000838832
7.06945e-06
0.000773287
5.79507e-05
0.000757275
-2.17748e-05
2.37438e-05
0.000679271
0.000121686
2.12266e-05
-0.000101154
-3.33507e-05
-2.4719e-05
-0.000228468
0.00047854
-0.000253243
0.00031521
0.000125683
0.000347467
0.000112572
0.000344872
8.94079e-06
0.000190539
0.000211522
0.000183554
-1.47436e-05
9.11392e-05
0.000116436
0.000192627
0.000160898
-6.67826e-05
-0.000319978
-0.000193577
-8.13737e-05
-7.23587e-05
0.000139193
0.000124478
0.000215667
0.000373007
-2.27331e-05
0.000375974
-2.50363e-06
0.000404538
-2.84341e-05
0.000408943
-4.47658e-06
0.000383472
2.5339e-05
0.000331501
5.1563e-05
0.00026773
6.35947e-05
0.000207619
6.03717e-05
0.000164313
4.36039e-05
1.94438e-05
3.65806e-05
6.59102e-05
1.43148e-05
1.96208e-05
3.57147e-05
-4.99432e-05
6.9379e-05
-3.84496e-05
7.6521e-05
1.80844e-05
8.32648e-05
4.47932e-05
9.20682e-05
5.50323e-05
9.80457e-05
5.45861e-05
0.000101971
3.96728e-05
1.90103e-05
0.000106867
0.000110559
0.00010441
2.20191e-05
5.80606e-05
-3.60961e-06
4.13062e-05
-2.18367e-05
4.13108e-05
1.80203e-05
4.37379e-05
4.24095e-05
5.68501e-05
4.19271e-05
7.2618e-05
3.87694e-05
8.60968e-05
2.60716e-05
1.29708e-05
-0.000190722
4.90649e-05
-0.000171497
2.63103e-06
-0.000162572
-1.26637e-05
-0.000133166
-5.13643e-05
-8.04174e-05
-3.48117e-05
-3.16401e-05
-6.44606e-06
1.11238e-05
-9.33058e-07
4.74353e-05
2.34664e-06
6.76717e-05
5.70275e-06
3.90789e-06
-0.000188868
-3.77055e-05
-0.000132783
-5.3206e-05
-7.51525e-05
-7.01834e-05
-2.55228e-05
-0.000100831
-1.97575e-06
-5.83748e-05
3.70447e-05
-4.5482e-05
5.90168e-05
-2.29401e-05
7.60231e-05
-1.47363e-05
8.75685e-05
-5.96309e-06
-1.0626e-06
-0.000166564
-0.000193923
-8.07435e-05
-0.000139293
-2.35024e-05
-0.000127386
-1.02316e-06
-0.000123235
1.92958e-05
-7.84506e-05
4.86686e-05
-7.46519e-05
6.38953e-05
-3.80354e-05
7.65099e-05
-2.73841e-05
8.50779e-05
-1.46224e-05
-5.16453e-06
0.000281298
-0.000167378
0.000242671
-0.000102528
0.000202954
-8.88124e-05
0.000158288
-7.89597e-05
0.000148675
-6.8862e-05
0.000138139
-6.4022e-05
0.000138974
-3.86483e-05
0.000134245
-2.24124e-05
0.000128989
-9.29583e-06
-1.29927e-06
0.000615395
-0.000102289
0.000478569
3.41685e-05
0.000397074
-9.3728e-06
0.000317403
-2.81713e-07
0.000261165
-1.28922e-05
0.000220532
-2.34594e-05
0.000201505
-1.97485e-05
0.000188618
-9.57411e-06
0.000177825
1.77228e-06
5.96619e-06
0.000113731
-9.91525e-05
8.65593e-05
6.11308e-05
8.31606e-05
-5.83807e-06
8.78782e-05
-4.75407e-06
8.44083e-05
-9.28554e-06
7.69411e-05
-1.59054e-05
7.34004e-05
-1.62144e-05
7.6126e-05
-1.23583e-05
8.39123e-05
-6.08848e-06
-6.89627e-07
0.000116876
0.000178079
0.000172791
0.000168506
0.000159517
0.000143804
0.000127685
0.000115342
0.000109205
)
;

boundaryField
{
    inlet
    {
        type            calculated;
        value           nonuniform List<scalar> 10(-0.000156969 -0.000141851 -0.000134486 -0.000126147 0.000176775 -0.000116684 -0.000126477 -0.000141033 -0.000169383 -0.000169174);
    }
    sym
    {
        type            calculated;
        value           uniform 0;
    }
    wedge
    {
        type            calculated;
        value           nonuniform List<scalar> 10(1.1967e-20 2.39661e-20 0 0 -2.40022e-20 2.39928e-20 0 3.59966e-20 -2.40539e-20 1.20399e-20);
    }
    top
    {
        type            calculated;
        value           uniform 0;
    }
    back
    {
        type            empty;
    }
    front
    {
        type            empty;
    }
    outlet
    {
        type            calculated;
        value           nonuniform List<scalar> 10(0.000144867 0.000102318 9.20268e-05 7.66252e-05 9.23916e-05 8.9037e-05 0.000125055 0.000170661 9.04661e-05 0.000108418);
    }
}


// ************************************************************************* //
