/*--------------------------------*- C++ -*----------------------------------*\
| =========                 |                                                 |
| \\      /  F ield         | OpenFOAM: The Open Source CFD Toolbox           |
|  \\    /   O peration     | Version:  2412                                  |
|   \\  /    A nd           | Website:  www.openfoam.com                      |
|    \\/     M anipulation  |                                                 |
\*---------------------------------------------------------------------------*/
FoamFile
{
    version     2.0;
    format      ascii;
    arch        "LSB;label=32;scalar=64";
    class       volVectorField;
    location    "3";
    object      U;
}
// * * * * * * * * * * * * * * * * * * * * * * * * * * * * * * * * * * * * * //

dimensions      [0 1 -1 0 0 0 0];

internalField   nonuniform List<vector> 
200
(
(2.99999 6.12488e-07 0)
(2.99996 3.78085e-06 0)
(2.99989 1.25423e-05 0)
(2.99974 3.38048e-05 0)
(2.99941 8.32726e-05 0)
(2.99865 0.000196679 0)
(2.99693 0.000455615 0)
(2.99298 0.00104729 0)
(2.98379 0.00241123 0)
(2.96303 0.00560293 0)
(3 8.00649e-07 0)
(2.99999 4.94171e-06 0)
(2.99997 1.63881e-05 0)
(2.99992 4.41462e-05 0)
(2.99982 0.000108658 0)
(2.99959 0.000256356 0)
(2.99907 0.000592956 0)
(2.99791 0.00136046 0)
(2.99526 0.00311992 0)
(2.99099 0.00721308 0)
(3 2.49128e-07 0)
(3 1.5368e-06 0)
(2.99999 5.08945e-06 0)
(2.99997 1.36762e-05 0)
(2.99994 3.35362e-05 0)
(2.99987 7.87256e-05 0)
(2.99971 0.000180875 0)
(2.99935 0.000411726 0)
(2.99855 0.000930394 0)
(2.99722 0.00211325 0)
(3 7.9657e-08 0)
(3 4.91187e-07 0)
(3 1.62483e-06 0)
(2.99999 4.35653e-06 0)
(2.99998 1.06458e-05 0)
(2.99996 2.487e-05 0)
(2.99991 5.67887e-05 0)
(2.9998 0.000128294 0)
(2.99955 0.000287265 0)
(2.99911 0.000644186 0)
(3 2.47303e-08 0)
(3 1.52495e-07 0)
(3 5.04428e-07 0)
(3 1.35239e-06 0)
(2.99999 3.30447e-06 0)
(2.99999 7.71871e-06 0)
(2.99997 1.76233e-05 0)
(2.99993 3.97961e-05 0)
(2.99985 8.91492e-05 0)
(2.99971 0.000199763 0)
(3 8.00405e-09 0)
(3 4.93565e-08 0)
(3 1.63272e-07 0)
(3 4.37775e-07 0)
(3 1.06983e-06 0)
(3 2.49944e-06 0)
(2.99999 5.708e-06 0)
(2.99998 1.28943e-05 0)
(2.99995 2.88827e-05 0)
(2.9999 6.46768e-05 0)
(3 2.59957e-09 0)
(3 1.60303e-08 0)
(3 5.30322e-08 0)
(3 1.42214e-07 0)
(3 3.47612e-07 0)
(3 8.12365e-07 0)
(3 1.85589e-06 0)
(2.99999 4.19402e-06 0)
(2.99998 9.39972e-06 0)
(2.99997 2.10501e-05 0)
(3 8.32059e-10 0)
(3 5.13072e-09 0)
(3 1.69732e-08 0)
(3 4.55142e-08 0)
(3 1.11241e-07 0)
(3 2.59944e-07 0)
(3 5.93775e-07 0)
(3 1.34171e-06 0)
(3 3.00613e-06 0)
(2.99999 6.72686e-06 0)
(3 2.47712e-10 0)
(3 1.52737e-09 0)
(3 5.05203e-09 0)
(3 1.35436e-08 0)
(3 3.30883e-08 0)
(3 7.72773e-08 0)
(3 1.76402e-07 0)
(3 3.98289e-07 0)
(3 8.91661e-07 0)
(3 1.99276e-06 0)
(3 5.15492e-11 0)
(3 3.17807e-10 0)
(3 1.05096e-09 0)
(3 2.81622e-09 0)
(3 6.87579e-09 0)
(3 1.60441e-08 0)
(3 3.65842e-08 0)
(3 8.24902e-08 0)
(3 1.84461e-07 0)
(3 4.11712e-07 0)
(2.88952 0.0262857 -1.12682e-21)
(2.81126 0.075074 0)
(2.71875 0.140744 0)
(2.61542 0.2384 0)
(2.49192 0.352909 3.48545e-20)
(2.39007 0.499552 0)
(2.35594 0.614222 0)
(2.34932 0.6839 0)
(2.3716 0.70079 0)
(2.3887 0.699264 -2.45789e-20)
(2.97258 0.026932 -1.32091e-20)
(2.94032 0.0811144 1.2382e-20)
(2.89158 0.160173 0)
(2.81932 0.292331 0)
(2.7203 0.456942 -1.30022e-20)
(2.57859 0.705103 0)
(2.40524 0.938663 0)
(2.21519 1.10065 0)
(2.14593 1.15519 0)
(2.17088 1.09293 0)
(2.99219 0.0061734 0)
(2.98377 0.0164471 -1.27904e-20)
(2.97041 0.031898 0)
(2.95002 0.0607835 0)
(2.9233 0.100035 -3.0137e-20)
(2.8762 0.168319 1.42162e-20)
(2.79531 0.259172 0)
(2.64995 0.415456 1.64772e-20)
(2.41148 0.633741 0)
(2.27017 0.781136 2.07307e-20)
(2.99745 0.00194325 0)
(2.99459 0.00522419 0)
(2.9899 0.0108041 0)
(2.9825 0.0214499 0)
(2.97224 0.0373879 1.45468e-20)
(2.9561 0.0620378 -1.58025e-20)
(2.92538 0.104514 0)
(2.86057 0.185671 -3.70808e-20)
(2.72038 0.3354 0)
(2.55153 0.642654 -3.20313e-20)
(2.99914 0.000636065 5.83303e-21)
(2.99812 0.00175794 6.00898e-21)
(2.99638 0.00378741 0)
(2.99363 0.00757526 6.40181e-21)
(2.98966 0.013583 6.62302e-21)
(2.98369 0.0228786 0)
(2.97325 0.038116 0)
(2.95205 0.0670701 1.71049e-20)
(2.90683 0.127768 0)
(2.85949 0.264037 0)
(2.99971 0.000215602 -5.84583e-21)
(2.99934 0.00061174 -6.03005e-21)
(2.99869 0.00137642 0)
(2.99763 0.002826 -6.45535e-21)
(2.99604 0.0052163 -6.70486e-21)
(2.99365 0.00900828 0)
(2.98979 0.0150137 0)
(2.98244 0.0256847 0)
(2.96719 0.0467331 0)
(2.95286 0.0909227 0)
(2.9999 7.31878e-05 5.84968e-21)
(2.99977 0.000212303 0)
(2.99953 0.000499627 0)
(2.99912 0.00106126 0)
(2.99849 0.00202356 6.62489e-21)
(2.99752 0.00358766 0)
(2.99596 0.00609374 0)
(2.99321 0.0102726 0)
(2.98771 0.0181358 0)
(2.98288 0.0340614 7.9619e-21)
(2.99997 2.4249e-05 -2.93014e-21)
(2.99992 7.16661e-05 3.0177e-21)
(2.99984 0.000175618 0)
(2.99968 0.000388781 3.21103e-21)
(2.99943 0.000767163 -3.33033e-21)
(2.99903 0.00140167 3.43146e-21)
(2.99838 0.00243514 3.5541e-21)
(2.99727 0.00414239 0)
(2.99512 0.0072008 3.83164e-21)
(2.99336 0.0132044 -4.18559e-21)
(2.99999 7.4247e-06 -4.40166e-21)
(2.99997 2.23124e-05 -4.53443e-21)
(2.99994 5.65522e-05 0)
(2.99988 0.000130585 -4.82627e-21)
(2.99977 0.000265815 -1.66395e-21)
(2.9996 0.000501317 -5.16035e-21)
(2.9993 0.000891206 -3.56681e-21)
(2.99879 0.00154041 0)
(2.99783 0.00266958 -3.85522e-21)
(2.9971 0.00484506 -6.01984e-21)
(2.99999 1.58542e-06 1.46963e-21)
(2.99999 4.84543e-06 1.514e-21)
(2.99997 1.25645e-05 0)
(2.99994 2.98324e-05 1.61143e-21)
(2.99988 6.20289e-05 -1.66513e-21)
(2.99978 0.000120389 1.72268e-21)
(2.99959 0.000218318 0)
(2.99927 0.000383548 0)
(2.99868 0.00066705 0)
(2.99826 0.00120871 2.00438e-21)
)
;

boundaryField
{
    inlet
    {
        type            fixedValue;
        value           uniform (3 0 0);
    }
    sym
    {
        type            slip;
    }
    wedge
    {
        type            slip;
    }
    top
    {
        type            slip;
    }
    back
    {
        type            empty;
    }
    front
    {
        type            empty;
    }
    outlet
    {
        type            inletOutlet;
        inletValue      uniform (3 0 0);
        value           nonuniform List<vector> 10((2.3887 0.699264 -2.45789e-20) (2.17088 1.09293 0) (2.27017 0.781136 2.07307e-20) (2.55153 0.642654 -3.20313e-20) (2.85949 0.264037 0) (2.95286 0.0909227 0) (2.98288 0.0340614 7.9619e-21) (2.99336 0.0132044 -4.18559e-21) (2.9971 0.00484506 -6.01984e-21) (2.99826 0.00120871 2.00438e-21));
    }
}


// ************************************************************************* //
