/*--------------------------------*- C++ -*----------------------------------*\
| =========                 |                                                 |
| \\      /  F ield         | OpenFOAM: The Open Source CFD Toolbox           |
|  \\    /   O peration     | Version:  2412                                  |
|   \\  /    A nd           | Website:  www.openfoam.com                      |
|    \\/     M anipulation  |                                                 |
\*---------------------------------------------------------------------------*/
FoamFile
{
    version     2.0;
    format      ascii;
    arch        "LSB;label=32;scalar=64";
    class       volVectorField;
    location    "3";
    object      U;
}
// * * * * * * * * * * * * * * * * * * * * * * * * * * * * * * * * * * * * * //

dimensions      [0 1 -1 0 0 0 0];

internalField   nonuniform List<vector> 
200
(
(-20.615 0.485925 0)
(14.9885 1.97247 0)
(-11.0871 -0.904288 0)
(7.00727 -3.61221 0)
(-3.13041 -0.565532 0)
(2.97593 -1.37232 0)
(-0.0442494 -0.700325 0)
(1.17005 -0.627553 0)
(0.889306 -0.524838 0)
(0.786838 -0.400858 0)
(-14.8779 0.277035 0)
(10.0002 0.499306 0)
(-0.922148 0.847022 0)
(2.49114 -0.635197 0)
(1.2908 0.749485 0)
(1.41248 0.175414 0)
(1.21912 0.665929 0)
(0.94657 0.682822 0)
(0.644889 0.6674 0)
(0.395615 0.567128 0)
(-14.4859 -1.02346 0)
(9.84145 -3.34478 0)
(-1.76884 -2.76441 0)
(2.40602 -1.27519 0)
(0.612475 -1.09588 0)
(0.836635 -0.137896 0)
(0.713109 0.537369 0)
(0.532314 0.94652 0)
(0.403889 1.03531 0)
(0.374032 0.880469 0)
(-15.446 -2.02293 0)
(10.4283 -3.32559 0)
(-6.74864 2.45383 0)
(2.61778 1.02037 0)
(-3.32691 1.00568 0)
(-0.600588 0.864843 0)
(-1.61228 0.881491 0)
(-1.06078 0.884985 0)
(-0.896926 0.75023 0)
(-0.648435 0.494698 0)
(-11.6553 -0.0684609 0)
(2.44874 0.167341 0)
(-5.3449 0.0619577 0)
(-0.54585 0.24717 0)
(-2.31208 0.137488 0)
(-1.20391 0.319604 0)
(-1.33591 0.318582 0)
(-1.03616 0.344524 0)
(-0.861419 0.213621 0)
(-0.675683 0.0420438 0)
(-16.7947 1.93763 0)
(11.3434 3.63517 0)
(-7.49302 -2.45122 0)
(3.2849 -0.987036 0)
(-3.60737 -0.475305 0)
(-0.180027 -0.472405 0)
(-1.76853 -0.393452 0)
(-1.03036 -0.381274 0)
(-1.02941 -0.385548 0)
(-0.800538 -0.379991 0)
(-14.8074 0.993398 0)
(9.99392 3.20495 0)
(-0.877499 2.25175 0)
(2.27371 1.38347 0)
(1.32619 1.20751 0)
(1.24769 0.503409 0)
(1.11991 0.153332 0)
(0.971447 -0.201916 0)
(0.854786 -0.479387 0)
(0.739717 -0.642187 0)
(-16.9998 -0.418734 0)
(11.4948 -1.34707 0)
(-2.71873 -1.86139 0)
(3.46748 1.15517 0)
(1.55792 0.0287287 0)
(1.84173 0.393769 0)
(1.93879 0.103117 0)
(1.88941 0.0961639 0)
(1.74142 -0.0017011 0)
(1.66128 -0.00645325 0)
(-21.2617 0.188135 0)
(16.0716 -1.2624 0)
(-11.9176 -0.206262 0)
(8.08003 0.722911 0)
(-2.6122 -0.212614 0)
(2.64313 0.929835 0)
(-0.0302741 0.0123594 0)
(1.01124 0.634455 0)
(0.156391 -0.292321 0)
(0.505569 0.298924 0)
(-19.9136 -0.0221928 0)
(14.6645 0.709946 0)
(-8.8094 -1.58196 0)
(5.61098 -2.72876 0)
(-5.318 1.21377 0)
(3.41728 0.623108 0)
(-3.11194 0.119315 0)
(2.24598 1.53943 0)
(-1.07199 0.186457 0)
(1.26376 0.639593 0)
(0.786346 -0.121293 -3.88232e-21)
(0.920497 0.0222166 0)
(0.955569 0.123234 0)
(1.04987 0.24198 0)
(1.07365 0.333815 1.12202e-17)
(1.00158 0.412 0)
(0.857533 0.439824 0)
(0.685165 0.414935 0)
(0.544197 0.334314 0)
(0.465836 0.235661 -6.78675e-18)
(0.0178992 0.217962 -5.02978e-18)
(0.141807 0.300408 5.21068e-18)
(-0.0638512 -0.0265812 0)
(0.223051 0.136961 0)
(0.152932 0.189671 1.10695e-21)
(0.243239 0.265367 0)
(0.240704 0.276851 0)
(0.278193 0.257655 0)
(0.299326 0.205396 0)
(0.328893 0.146526 0)
(0.236638 0.294433 0)
(0.294304 -0.029239 -5.17295e-18)
(0.19172 -0.178403 0)
(0.114981 -0.219506 0)
(0.0914596 0.011644 -1.13971e-17)
(0.126142 0.134029 5.88572e-18)
(0.127381 0.169556 0)
(0.191053 0.199311 6.30498e-18)
(0.240271 0.170975 0)
(0.295732 0.136813 6.81186e-18)
(-0.541849 0.201907 0)
(-0.399104 0.102238 0)
(-0.46383 0.0768709 0)
(-0.351214 0.00430882 0)
(-0.330053 0.0075178 5.67011e-18)
(-0.0990652 0.0893727 -5.88134e-18)
(-0.069066 0.067175 0)
(0.125294 0.0921871 -1.26503e-17)
(0.165912 0.0873242 0)
(0.246221 0.0805991 -6.82229e-18)
(-0.5542 -0.116641 2.4792e-18)
(-0.332707 -0.238707 2.57334e-18)
(-0.33698 -0.306159 0)
(-0.0227413 -0.343153 2.74993e-18)
(-0.115185 -0.278234 2.84593e-18)
(0.102271 -0.11702 0)
(0.114633 -0.0602364 0)
(0.209556 -0.00201034 6.3116e-18)
(0.248227 0.0374786 0)
(0.296754 0.0593246 0)
(-0.593303 -0.357844 -2.47887e-18)
(-0.239268 -0.212683 -2.57646e-18)
(-0.184105 -0.232077 0)
(0.0718258 -0.268946 -2.75952e-18)
(-0.0777775 -0.117696 -2.84963e-18)
(0.170001 -0.114109 0)
(0.117223 -0.0378803 0)
(0.22832 -0.0114595 0)
(0.239533 0.0138606 0)
(0.285866 0.039606 0)
(0.666 -0.669348 2.44686e-18)
(0.620696 -0.476671 0)
(0.54976 -0.414176 0)
(0.458403 -0.367531 0)
(0.384256 -0.281719 2.83784e-18)
(0.395416 -0.220537 0)
(0.385822 -0.102521 0)
(0.400891 -0.0437215 0)
(0.399982 0.0015637 0)
(0.40151 0.0341504 3.39629e-18)
(1.41371 -0.0873058 -1.21056e-18)
(1.33991 0.0866558 1.25615e-18)
(1.0835 0.0897201 0)
(0.893517 0.0981688 1.35897e-18)
(0.744232 0.032841 -1.41018e-18)
(0.642101 -0.021351 1.46069e-18)
(0.586287 -0.0183119 1.51529e-18)
(0.569406 0.0112343 0)
(0.558025 0.0431869 1.63266e-18)
(0.548477 0.0597239 -1.69471e-18)
(-0.0237456 -0.45277 -1.89072e-18)
(0.451556 0.218588 -1.94963e-18)
(0.0614309 -0.0657287 0)
(0.289742 -0.019195 -2.07354e-18)
(0.212042 -0.0518343 -7.11933e-19)
(0.216968 -0.0664037 -2.20402e-18)
(0.205487 -0.0426708 -1.52062e-18)
(0.212185 -0.00624055 0)
(0.236499 0.027063 -1.63693e-18)
(0.290284 0.0404653 -2.55292e-18)
(-0.434551 -0.0539812 6.30132e-19)
(0.78772 0.181886 6.50872e-19)
(0.25888 0.0520851 0)
(0.501618 0.0303445 6.88621e-19)
(0.432172 0.0298495 -7.09882e-19)
(0.408694 0.00662336 7.33208e-19)
(0.379195 -0.0240842 0)
(0.350378 -0.0450306 0)
(0.333086 -0.0435076 0)
(0.347881 -0.0223805 8.49734e-19)
)
;

boundaryField
{
    inlet
    {
        type            fixedValue;
        value           uniform (3 0 0);
    }
    sym
    {
        type            slip;
    }
    wedge
    {
        type            slip;
    }
    top
    {
        type            slip;
    }
    back
    {
        type            empty;
    }
    front
    {
        type            empty;
    }
    outlet
    {
        type            inletOutlet;
        inletValue      uniform (3 0 0);
        value           nonuniform List<vector> 10((0.465836 0.235661 -6.78675e-18) (0.328893 0.146526 0) (0.295732 0.136813 6.81186e-18) (0.246221 0.0805991 -6.82229e-18) (0.296754 0.0593246 0) (0.285866 0.039606 0) (0.40151 0.0341504 3.39629e-18) (0.548477 0.0597239 -1.69471e-18) (0.290284 0.0404653 -2.55292e-18) (0.347881 -0.0223805 8.49734e-19));
    }
}


// ************************************************************************* //
