/*--------------------------------*- C++ -*----------------------------------*\
| =========                 |                                                 |
| \\      /  F ield         | OpenFOAM: The Open Source CFD Toolbox           |
|  \\    /   O peration     | Version:  2412                                  |
|   \\  /    A nd           | Website:  www.openfoam.com                      |
|    \\/     M anipulation  |                                                 |
\*---------------------------------------------------------------------------*/
FoamFile
{
    version     2.0;
    format      ascii;
    arch        "LSB;label=32;scalar=64";
    class       volScalarField;
    location    "3.5";
    object      Ma;
}
// * * * * * * * * * * * * * * * * * * * * * * * * * * * * * * * * * * * * * //

dimensions      [0 0 0 0 0 0 0];

internalField   nonuniform List<scalar> 
5250
(
2.99999
2.99996
2.99987
2.99973
2.99919
2.9984
2.99541
2.99041
2.97412
2.93768
2.84758
2.59623
2.12773
1.14454
0.510828
0.287334
0.323774
0.330435
0.295947
0.241366
0.191326
0.151013
0.110837
0.0671571
0.0345167
2.99999
2.99997
2.99987
2.99974
2.9992
2.99843
2.99549
2.99057
2.97454
2.93873
2.85003
2.60277
2.14042
1.16321
0.521462
0.288159
0.325936
0.333619
0.299483
0.245871
0.197127
0.158275
0.120411
0.0816649
0.0566356
2.99999
2.99997
2.99987
2.99975
2.99923
2.99848
2.99564
2.9909
2.9754
2.94093
2.85516
2.61686
2.16827
1.20592
0.546434
0.292775
0.333111
0.343103
0.309962
0.258548
0.212444
0.17653
0.142929
0.111119
0.0922156
2.99999
2.99997
2.99988
2.99976
2.99926
2.99855
2.99583
2.99137
2.97656
2.94441
2.86286
2.63866
2.21129
1.27413
0.584971
0.301729
0.345693
0.359254
0.327497
0.278956
0.235783
0.203169
0.173888
0.147364
0.131473
2.99999
2.99997
2.99989
2.99977
2.99931
2.99864
2.99605
2.99197
2.97799
2.94901
2.87284
2.66751
2.26872
1.37032
0.637018
0.318245
0.365028
0.382301
0.351858
0.306495
0.266053
0.23629
0.210657
0.188128
0.174018
2.99999
2.99997
2.9999
2.99979
2.99936
2.99875
2.99633
2.99266
2.97969
2.95429
2.88443
2.70119
2.33736
1.49015
0.702122
0.34823
0.394453
0.413487
0.384106
0.341644
0.303447
0.276458
0.254038
0.234855
0.222834
2.99999
2.99998
2.99991
2.99981
2.99942
2.99886
2.99664
2.99338
2.98145
2.95985
2.89612
2.73753
2.41097
1.65228
0.780422
0.3928
0.435621
0.453234
0.425588
0.385954
0.348961
0.324011
0.305006
0.290123
0.282109
3
2.99998
2.99992
2.99983
2.99947
2.99897
2.99694
2.99401
2.98297
2.9641
2.90526
2.76729
2.46479
1.76814
0.851617
0.429278
0.466345
0.483555
0.464954
0.432795
0.400392
0.379209
0.364844
0.356288
0.358026
3
2.99998
2.99993
2.99985
2.99952
2.99907
2.99722
2.9946
2.98433
2.96789
2.91321
2.79433
2.51127
1.8614
0.951933
0.487211
0.489347
0.502934
0.499164
0.476184
0.452852
0.438941
0.433222
0.438227
0.463696
3
2.99999
2.99994
2.99987
2.99959
2.99919
2.9976
2.99524
2.98648
2.97154
2.9237
2.81504
2.563
1.95181
1.06096
0.552969
0.503345
0.520876
0.528722
0.517905
0.506224
0.501635
0.511149
0.545289
0.63887
3
2.99999
2.99996
2.99987
2.99974
2.99926
2.9984
2.99578
2.98986
2.97483
2.93542
2.84832
2.5864
2.11034
1.15153
0.628884
0.513895
0.536209
0.554517
0.556114
0.556133
0.566094
0.598613
0.675543
0.847167
3
2.99999
2.99995
2.9999
2.99969
2.99939
2.99822
2.99641
2.99012
2.97819
2.94346
2.85853
2.67065
2.15891
1.35313
0.721546
0.534661
0.556449
0.580978
0.59262
0.603558
0.62759
0.679
0.777849
0.961679
3
2.99999
2.99996
2.99991
2.99973
2.99947
2.9984
2.99689
2.99086
2.98178
2.94929
2.88644
2.71892
2.31135
1.55531
0.827912
0.570803
0.588685
0.611868
0.629832
0.649127
0.68434
0.74574
0.845158
1.00266
3
3
2.99997
2.99993
2.99977
2.99955
2.99866
2.99741
2.9924
2.98494
2.95773
2.90908
2.76619
2.45399
1.77319
0.949426
0.629545
0.634663
0.651487
0.670643
0.692931
0.731879
0.79629
0.887276
1.01941
3
3
2.99998
2.99994
2.99982
2.99964
2.99892
2.99791
2.99387
2.98786
2.96624
2.9257
2.81492
2.53643
1.98482
1.064
0.693056
0.672369
0.689891
0.710277
0.734444
0.772986
0.83541
0.918689
1.03013
3
3
2.99998
2.99996
2.99986
2.99972
2.99916
2.99837
2.99535
2.99041
2.97422
2.93927
2.85123
2.6125
2.16493
1.24819
0.795603
0.701373
0.717529
0.739465
0.769481
0.807184
0.863858
0.9415
1.03897
3
3
2.99999
2.99997
2.99989
2.99978
2.99932
2.99869
2.99614
2.99237
2.97885
2.95331
2.88134
2.69655
2.32884
1.49918
0.932022
0.742394
0.745722
0.766852
0.800356
0.840055
0.890107
0.95855
1.04467
3.00001
3
2.99999
2.99998
2.99991
2.99983
2.99948
2.99899
2.99702
2.9942
2.98353
2.96559
2.9096
2.77977
2.50069
1.84141
1.10783
0.816013
0.791805
0.803443
0.831033
0.869829
0.917897
0.977207
1.05129
3.00001
3
3
2.99998
2.99994
2.99987
2.99961
2.99924
2.99777
2.99561
2.98759
2.97405
2.93101
2.83362
2.61287
2.061
1.27197
0.892139
0.835191
0.843664
0.86503
0.898608
0.942194
0.996382
1.06112
3.00001
3
3
2.99999
2.99997
2.99989
2.99977
2.99934
2.99867
2.99634
2.99214
2.97945
2.95021
2.87968
2.68531
2.31121
1.50047
1.01408
0.876178
0.876657
0.896422
0.927227
0.965916
1.01346
1.07086
3.00001
3.00001
3
2.99999
2.99998
2.99992
2.99983
2.99949
2.999
2.99707
2.99425
2.98387
2.96596
2.91141
2.7837
2.50994
1.87859
1.19593
0.942347
0.919692
0.930774
0.958309
0.994557
1.03439
1.08284
3.00001
3.00001
3
3
2.99998
2.99995
2.99985
2.99969
2.99911
2.99823
2.99496
2.98973
2.97198
2.93833
2.84468
2.62892
2.13422
1.39036
1.02497
0.956758
0.963204
0.984999
1.01897
1.05695
1.0995
3.00001
3.00001
3
3
2.99999
2.99996
2.99991
2.99974
2.99947
2.99848
2.99698
2.99151
2.98236
2.95302
2.88975
2.73626
2.35808
1.65536
1.16253
1.01007
0.998474
1.01058
1.03743
1.07446
1.11497
3.00001
3.00001
3.00001
3
2.99999
2.99998
2.99993
2.99985
2.99957
2.99914
2.99756
2.99509
2.98658
2.97113
2.9256
2.81929
2.58601
2.04608
1.33914
1.0817
1.042
1.04591
1.06393
1.09308
1.12971
3.00001
3.00001
3.00001
3
3
2.99998
2.99996
2.99988
2.99976
2.99929
2.99859
2.99603
2.99188
2.97829
2.95062
2.87806
2.69353
2.32855
1.58085
1.18487
1.07912
1.07529
1.08868
1.11391
1.14641
3.00001
3.00001
3.00001
3
3
2.99999
2.99998
2.99992
2.99983
2.99951
2.99904
2.99721
2.99455
2.98455
2.96861
2.91685
2.80792
2.55222
1.99385
1.36997
1.13949
1.11102
1.11601
1.1379
1.16773
3.00001
3.00001
3.00001
3.00001
3
3
2.99998
2.99996
2.99987
2.99973
2.99922
2.99845
2.99562
2.99114
2.97592
2.94775
2.8689
2.6896
2.27469
1.60116
1.23245
1.14693
1.1433
1.15667
1.18312
3.00001
3.00001
3.00001
3.00001
3.00001
3
2.99999
2.99997
2.99993
2.99979
2.99957
2.99877
2.99756
2.99316
2.98604
2.96266
2.91765
2.79601
2.52718
1.93341
1.3983
1.20364
1.17666
1.18231
1.20235
3.00001
3.00001
3.00001
3.00001
3.00001
3
3
2.99999
2.99995
2.99989
2.99967
2.99935
2.99813
2.9963
2.98986
2.97865
2.94506
2.8684
2.70192
2.26551
1.62148
1.29236
1.21573
1.21084
1.22121
3.00001
3.00001
3.00001
3.00001
3.00001
3.00001
3
2.99999
2.99997
2.99993
2.99978
2.99957
2.99876
2.99758
2.9931
2.98631
2.96264
2.91994
2.79989
2.54136
1.96704
1.45703
1.27081
1.243
1.24643
3.00001
3.00001
3.00001
3.00001
3.00001
3.00001
3
3
2.99999
2.99995
2.99989
2.99968
2.99937
2.99822
2.99648
2.99037
2.97975
2.94804
2.87599
2.71876
2.30636
1.68848
1.36354
1.28031
1.27353
3.00001
3.00001
3.00001
3.00001
3.00001
3.00001
3.00001
3
2.99999
2.99997
2.99993
2.9998
2.9996
2.99885
2.99777
2.99367
2.98745
2.96594
2.92748
2.81839
2.58985
2.05845
1.54182
1.33681
1.30411
3.00001
3.00001
3.00001
3.00001
3.00001
3.00001
3.00001
3
3
2.99999
2.99995
2.9999
2.99972
2.99943
2.99841
2.99683
2.9914
2.98182
2.95346
2.88926
2.74572
2.37364
1.77615
1.43162
1.34099
3.00001
3.00001
3.00001
3.00001
3.00001
3.00001
3.00001
3.00001
3
2.99999
2.99998
2.99993
2.99986
2.99958
2.99918
2.99768
2.9954
2.98745
2.97391
2.9334
2.84568
2.64376
2.20125
1.62629
1.40409
3.00001
3.00001
3.00001
3.00001
3.00001
3.00001
3.00001
3.00001
3
3
2.99999
2.99996
2.99991
2.99974
2.9995
2.99855
2.9972
2.99207
2.98435
2.95797
2.90813
2.78175
2.47349
1.92308
1.51914
3.00001
3.00001
3.00001
3.00001
3.00001
3.00001
3.00001
3.00001
3.00001
3
3
2.99998
2.99995
2.99985
2.9997
2.99914
2.99832
2.99527
2.99063
2.97451
2.94715
2.8631
2.70387
2.27285
1.75202
3.00001
3.00001
3.00001
3.00001
3.00001
3.00001
3.00001
3.00001
3.00001
3
3
2.99999
2.99997
2.99993
2.99979
2.99959
2.99884
2.99772
2.99371
2.98734
2.9666
2.92741
2.82568
2.59411
2.10851
3.00001
3.00001
3.00001
3.00001
3.00001
3.00001
3.00001
3.00001
3.00001
3.00001
3
3
2.99998
2.99996
2.99988
2.99976
2.99932
2.99867
2.99627
2.99263
2.9801
2.95863
2.89501
2.76715
2.44603
3.00001
3.00001
3.00001
3.00001
3.00001
3.00001
3.00001
3.00001
3.00001
3.00001
3.00001
3
3
2.99998
2.99995
2.99984
2.99968
2.99911
2.99822
2.99516
2.99016
2.97416
2.94496
2.86126
2.69841
3.00001
3.00001
3.00001
3.00001
3.00001
3.00001
3.00001
3.00001
3.00001
3.00001
3.00001
3
3
2.99999
2.99997
2.99993
2.99979
2.99957
2.99881
2.99766
2.99358
2.98711
2.96618
2.92657
2.82615
3.00001
3.00001
3.00001
3.00001
3.00001
3.00001
3.00001
3.00001
3.00001
3.00001
3.00001
3.00001
3
3
2.99998
2.99996
2.99988
2.99976
2.99932
2.99868
2.99633
2.99276
2.98052
2.95977
2.89771
3.00001
3.00001
3.00001
3.00001
3.00001
3.00001
3.00001
3.00001
3.00001
3.00001
3.00001
3.00001
3.00001
3
3
2.99998
2.99995
2.99985
2.99969
2.99915
2.99831
2.99542
2.99069
2.97573
2.94841
3.00001
3.00001
3.00001
3.00001
3.00001
3.00001
3.00001
3.00001
3.00001
3.00001
3.00001
3.00001
3.00001
3
3
2.99999
2.99997
2.99993
2.9998
2.99961
2.99892
2.99786
2.99421
2.98834
2.96977
3.00001
3.00001
3.00001
3.00001
3.00001
3.00001
3.00001
3.00001
3.00001
3.00001
3.00001
3.00001
3.00001
3.00001
3
3
2.99999
2.99996
2.99991
2.99975
2.9995
2.99861
2.99727
2.99262
2.985
3.00001
3.00001
3.00001
3.00001
3.00001
3.00001
3.00001
3.00001
3.00001
3.00001
3.00001
3.00001
3.00001
3.00001
3.00001
3
3
2.99998
2.99995
2.99986
2.99971
2.99919
2.99842
2.99564
2.9914
3.00001
3.00001
3.00001
3.00001
3.00001
3.00001
3.00001
3.00001
3.00001
3.00001
3.00001
3.00001
3.00001
3.00001
3.00001
3
3
2.99999
2.99997
2.99993
2.99979
2.99959
2.99883
2.9977
2.99365
3.00001
3.00001
3.00001
3.00001
3.00001
3.00001
3.00001
3.00001
3.00001
3.00001
3.00001
3.00001
3.00001
3.00001
3.00001
3.00001
3
3
2.99998
2.99995
2.99984
2.99969
2.99909
2.99823
2.99482
3.00001
3.00001
3.00001
3.00001
3.00001
3.00001
3.00001
3.00001
3.00001
3.00001
3.00001
3.00001
3.00001
3.00001
3.00001
3.00001
3
3
2.99998
2.99996
2.99987
2.99975
2.99926
2.99849
2.99585
3.00001
3.00001
3.00001
3.00001
3.00001
3.00001
3.00001
3.00001
3.00001
3.00001
3.00001
3.00001
3.00001
3.00001
3.00001
3.00001
3
3
2.99999
2.99996
2.99991
2.99973
2.99942
2.99842
2.99631
3.00001
3.00001
3.00001
3.00001
3.00001
3.00001
3.00001
3.00001
3.00001
3.00001
3.00001
3.00001
3.00001
3.00001
3.00001
3.00001
3
3
2.99999
2.99997
2.99989
2.99977
2.99932
2.99858
2.99609
1.0875
1.28053
1.33937
1.31024
1.24142
1.16519
1.09291
1.05479
1.04855
1.05117
1.05258
1.0518
1.04896
1.04339
1.03356
1.01731
0.987996
0.928398
0.807171
0.571993
0.300038
0.129217
0.0874462
0.165756
0.263283
0.34837
0.415352
0.462982
0.494672
0.515422
0.528585
0.535889
0.536898
0.527397
0.502791
0.461375
0.407513
0.347161
0.285836
0.223318
0.165017
0.110454
0.0624203
0.0309579
0.0535862
0.091293
0.130033
0.166246
0.199557
0.229869
0.260709
0.291915
0.32176
0.349388
0.376199
0.401401
0.426213
0.449579
0.472744
0.494549
0.516324
0.536831
0.557438
0.576909
0.596484
0.615173
0.633803
0.651812
0.669659
0.686982
0.704168
0.720856
0.737452
0.753562
0.769643
0.785228
0.800869
0.815992
0.83124
0.845941
0.860823
0.875133
0.889657
0.903605
0.917779
0.931385
0.945229
0.95851
0.97207
0.985003
0.998295
1.01085
1.02384
1.03593
1.04843
1.05981
1.07125
1.08083
1.08888
1.09389
1.13248
1.25252
1.32169
1.3655
1.40841
1.44238
1.45522
1.45251
1.43985
1.41993
1.40108
1.39356
1.39234
1.3914
1.38813
1.37922
1.35658
1.30554
1.19844
0.988786
0.703062
0.504464
0.396005
0.309092
0.231556
0.158109
0.093878
0.0712562
0.12357
0.193428
0.250023
0.27877
0.28788
0.274861
0.243959
0.20125
0.153262
0.106283
0.0777316
0.0780338
0.108495
0.14656
0.185531
0.221166
0.255645
0.288924
0.322278
0.353644
0.383691
0.410751
0.437667
0.464781
0.491878
0.516534
0.540699
0.563221
0.585812
0.606937
0.628159
0.648078
0.668081
0.686987
0.705986
0.724042
0.742241
0.759568
0.777117
0.793786
0.81078
0.826841
0.843325
0.858853
0.874852
0.889931
0.905481
0.920177
0.935305
0.949642
0.964381
0.978347
0.992739
1.00632
1.02042
1.03363
1.04746
1.06036
1.07394
1.08656
1.09989
1.11225
1.12536
1.13749
1.15037
1.1622
1.17471
1.1859
1.19742
1.20692
1.21521
1.22015
1.13574
1.2446
1.34269
1.43611
1.52115
1.58757
1.62197
1.62656
1.62233
1.60968
1.59161
1.57585
1.56609
1.5612
1.55776
1.55118
1.5368
1.5041
1.43496
1.27769
1.02838
0.813701
0.69388
0.616801
0.545733
0.475828
0.406492
0.335962
0.267149
0.199541
0.135405
0.078612
0.0376543
0.0222966
0.0712334
0.121381
0.16982
0.215866
0.257817
0.294373
0.328898
0.361485
0.392477
0.421226
0.448946
0.475378
0.501819
0.5269
0.551446
0.573599
0.595303
0.617108
0.639952
0.660963
0.681557
0.700749
0.72015
0.738414
0.756971
0.774479
0.792218
0.80903
0.826037
0.842229
0.858664
0.874317
0.890316
0.905498
0.921116
0.935888
0.951101
0.965519
0.980311
0.994425
1.00886
1.02271
1.03689
1.05051
1.06446
1.07784
1.09153
1.10465
1.118
1.13085
1.14387
1.15647
1.16926
1.18172
1.19437
1.20668
1.2192
1.23131
1.24366
1.2555
1.26752
1.27884
1.28999
1.29987
1.30804
1.31352
1.14427
1.25349
1.35294
1.44403
1.525
1.59269
1.64559
1.68321
1.70477
1.71059
1.70938
1.70305
1.69225
1.68085
1.67232
1.66569
1.65612
1.63489
1.59072
1.48922
1.30228
1.05219
0.912696
0.8483
0.784352
0.722517
0.667692
0.607654
0.543831
0.4801
0.418685
0.366342
0.326944
0.310513
0.32837
0.367614
0.411855
0.453888
0.489521
0.517453
0.541706
0.563537
0.58442
0.6041
0.623534
0.642333
0.661449
0.679945
0.698592
0.715522
0.732146
0.748599
0.766854
0.784477
0.801764
0.817804
0.834145
0.849604
0.865568
0.880635
0.89627
0.911018
0.92628
0.940721
0.955554
0.969697
0.984143
0.998034
1.01218
1.02586
1.03976
1.05327
1.06695
1.08031
1.09372
1.10691
1.12004
1.13299
1.14589
1.1586
1.17134
1.18383
1.19646
1.20876
1.22133
1.23352
1.24593
1.25792
1.2701
1.28193
1.29391
1.30557
1.31736
1.32878
1.3403
1.35126
1.3621
1.37182
1.38001
1.38541
1.14473
1.25183
1.34821
1.43563
1.51526
1.58622
1.64896
1.7015
1.74292
1.77034
1.78214
1.78264
1.78074
1.77465
1.76517
1.75563
1.74512
1.72962
1.699
1.63852
1.50525
1.29312
1.10643
1.01563
0.960177
0.91407
0.865281
0.815217
0.762364
0.704821
0.646962
0.593891
0.545579
0.527964
0.544694
0.58257
0.625113
0.664008
0.693098
0.711777
0.724286
0.734159
0.744226
0.754471
0.765933
0.777458
0.790085
0.802577
0.815942
0.82843
0.840699
0.852582
0.866485
0.881119
0.895963
0.909727
0.923655
0.936929
0.950672
0.963942
0.977815
0.991105
1.00497
1.01808
1.03174
1.04464
1.05817
1.07108
1.08456
1.09746
1.11078
1.12354
1.13666
1.1493
1.16233
1.17492
1.18791
1.20038
1.21322
1.22548
1.23808
1.2502
1.26265
1.27473
1.28702
1.29903
1.31125
1.32319
1.33534
1.34715
1.35916
1.37078
1.38254
1.39391
1.40526
1.41623
1.42684
1.43675
1.44498
1.45068
1.14266
1.24116
1.3336
1.41842
1.49655
1.56746
1.63152
1.68752
1.73558
1.77451
1.80469
1.82425
1.83273
1.83331
1.83179
1.82647
1.81782
1.8047
1.78475
1.74543
1.66662
1.50453
1.2899
1.16148
1.10036
1.05296
1.01281
0.973339
0.926437
0.873801
0.817444
0.755284
0.698639
0.682162
0.699856
0.738261
0.783796
0.823376
0.851953
0.869592
0.876561
0.877544
0.877729
0.879923
0.884057
0.889548
0.89665
0.904513
0.91402
0.923539
0.933117
0.941895
0.951789
0.962881
0.975392
0.987494
0.999867
1.01172
1.02394
1.03568
1.04793
1.05995
1.07256
1.08494
1.0977
1.11005
1.12263
1.13479
1.14736
1.1596
1.17235
1.18467
1.19738
1.20954
1.22198
1.23395
1.24623
1.25816
1.27048
1.28253
1.29489
1.30683
1.31899
1.33071
1.34264
1.35417
1.36595
1.37736
1.38907
1.40042
1.41204
1.4233
1.43479
1.44589
1.45717
1.46793
1.47867
1.48845
1.497
1.50261
1.1384
1.23017
1.31721
1.39835
1.47373
1.54346
1.60735
1.66556
1.71752
1.76347
1.80229
1.83388
1.85693
1.87116
1.8759
1.87568
1.87343
1.86766
1.85534
1.82961
1.77985
1.67297
1.50024
1.30358
1.20852
1.16722
1.1284
1.08994
1.04757
0.99916
0.932751
0.854103
0.794808
0.784271
0.806094
0.84624
0.895375
0.93979
0.969505
0.989033
0.998172
0.995948
0.988435
0.98161
0.978263
0.977409
0.979609
0.983429
0.988957
0.995198
1.00209
1.00846
1.01566
1.02398
1.0345
1.04543
1.05675
1.06771
1.07904
1.09009
1.10159
1.11285
1.12467
1.13629
1.14847
1.16042
1.17278
1.1848
1.1971
1.20906
1.22131
1.23334
1.2457
1.25784
1.27024
1.28229
1.29453
1.30638
1.31851
1.33019
1.34231
1.35397
1.36615
1.37778
1.38983
1.40129
1.41304
1.42427
1.43573
1.44679
1.45809
1.46905
1.48026
1.49106
1.50207
1.51257
1.52304
1.53268
1.5412
1.54677
1.13452
1.21883
1.30028
1.37752
1.45002
1.51772
1.58071
1.63881
1.69205
1.7402
1.78279
1.82002
1.85096
1.87589
1.8934
1.90367
1.90632
1.90503
1.89997
1.88791
1.85886
1.80178
1.67333
1.49217
1.32431
1.24949
1.21518
1.18184
1.13655
1.07918
0.99652
0.904308
0.85192
0.848985
0.873317
0.916932
0.971109
1.02048
1.05311
1.07079
1.08146
1.08482
1.07852
1.06697
1.05705
1.05035
1.04728
1.04739
1.05008
1.05441
1.0601
1.06584
1.0721
1.07898
1.0879
1.098
1.10884
1.11941
1.13042
1.14118
1.15248
1.16358
1.17522
1.18668
1.19863
1.21034
1.22245
1.23421
1.24632
1.25798
1.27002
1.28161
1.29363
1.30527
1.31735
1.32911
1.34127
1.35301
1.36497
1.3765
1.38818
1.39943
1.41092
1.42202
1.43349
1.44457
1.45605
1.46708
1.47845
1.48926
1.50035
1.51082
1.52161
1.53178
1.54235
1.55229
1.56252
1.57187
1.58044
1.58601
1.1339
1.2101
1.28566
1.35818
1.42727
1.49244
1.55353
1.61094
1.66376
1.7132
1.75757
1.79849
1.83391
1.86522
1.89096
1.91104
1.92486
1.93016
1.92931
1.92487
1.9127
1.88142
1.81709
1.67105
1.48387
1.34375
1.28196
1.24375
1.19625
1.1217
1.01128
0.912158
0.876824
0.88376
0.91217
0.961328
1.02018
1.06942
1.1047
1.12555
1.13743
1.1433
1.14406
1.13721
1.12519
1.11466
1.10665
1.10335
1.10313
1.10571
1.11049
1.11578
1.12173
1.12779
1.13553
1.14464
1.15531
1.16585
1.17689
1.18757
1.19879
1.20964
1.22103
1.23205
1.24361
1.25482
1.26656
1.27797
1.28989
1.30143
1.31343
1.32498
1.3369
1.34834
1.36015
1.37144
1.38305
1.3942
1.40575
1.41687
1.42839
1.4394
1.4508
1.46157
1.47272
1.4832
1.49413
1.50444
1.51527
1.52553
1.53629
1.54656
1.55717
1.56733
1.57764
1.58751
1.59735
1.60644
1.61478
1.61998
1.1356
1.20439
1.27383
1.34198
1.40718
1.46972
1.52848
1.58433
1.63651
1.68531
1.73088
1.77245
1.81104
1.8449
1.8757
1.90086
1.92271
1.938
1.94662
1.94677
1.94248
1.92964
1.89591
1.82364
1.66275
1.47514
1.35411
1.29164
1.22432
1.1209
0.984183
0.896477
0.879934
0.894661
0.933488
0.989165
1.04675
1.09384
1.13006
1.15614
1.1732
1.18204
1.18634
1.18745
1.18307
1.17405
1.16495
1.15831
1.15534
1.15568
1.15902
1.16393
1.17033
1.17632
1.18348
1.19145
1.20146
1.21164
1.22251
1.23298
1.24402
1.25466
1.26581
1.27652
1.28768
1.29839
1.30957
1.32034
1.33159
1.34248
1.35389
1.36492
1.37648
1.38761
1.39909
1.41002
1.42128
1.43197
1.44299
1.45349
1.46438
1.4748
1.48565
1.49603
1.50683
1.51709
1.52775
1.53781
1.54825
1.55808
1.56833
1.578
1.58811
1.59768
1.60768
1.61711
1.62683
1.63573
1.64409
1.64937
1.13974
1.20129
1.26456
1.32798
1.38963
1.44923
1.5061
1.56004
1.61134
1.65948
1.70476
1.74732
1.78625
1.82305
1.85539
1.8857
1.91076
1.93333
1.94959
1.96011
1.96093
1.9565
1.94247
1.90528
1.82342
1.65385
1.45712
1.33392
1.23594
1.07439
0.925107
0.869955
0.871044
0.893115
0.940147
1.0008
1.05395
1.09821
1.13509
1.16578
1.18969
1.20666
1.21682
1.22394
1.22805
1.22975
1.22564
1.21898
1.21397
1.2115
1.2122
1.21567
1.22132
1.22726
1.23372
1.24021
1.24857
1.25763
1.26775
1.27741
1.28764
1.29735
1.30768
1.31759
1.32811
1.3382
1.34884
1.35906
1.36977
1.38005
1.39081
1.40117
1.41201
1.42234
1.43314
1.44344
1.45418
1.46439
1.47501
1.48505
1.4955
1.50537
1.51567
1.52541
1.5356
1.54529
1.55541
1.56509
1.57515
1.58482
1.5948
1.60442
1.61427
1.62378
1.63347
1.64278
1.65217
1.66088
1.66906
1.67418
1.14811
1.20216
1.25917
1.31702
1.37456
1.43065
1.48526
1.53728
1.58739
1.63468
1.67983
1.72203
1.76223
1.799
1.83416
1.8652
1.89472
1.91948
1.94216
1.95905
1.9697
1.97022
1.96475
1.94769
1.90405
1.8059
1.62243
1.39953
1.21599
1.00004
0.857423
0.833368
0.845614
0.88353
0.939223
0.99474
1.04338
1.08766
1.12806
1.16531
1.19734
1.22389
1.24429
1.25941
1.27077
1.28005
1.28509
1.28488
1.28037
1.27485
1.27213
1.2717
1.2743
1.27841
1.28392
1.28876
1.29495
1.30186
1.31068
1.31934
1.32861
1.33735
1.34668
1.35563
1.36525
1.37451
1.38436
1.39388
1.40395
1.41369
1.42396
1.43381
1.44404
1.45384
1.46404
1.47379
1.48398
1.4937
1.50385
1.51351
1.52361
1.53319
1.54321
1.55272
1.56265
1.57209
1.5819
1.59127
1.60095
1.61024
1.6198
1.62902
1.63851
1.64768
1.65711
1.66617
1.67542
1.68397
1.69212
1.69719
1.15943
1.20755
1.25813
1.31072
1.36369
1.41599
1.46725
1.51709
1.56496
1.61125
1.65509
1.6973
1.73684
1.77472
1.80966
1.84303
1.87306
1.90134
1.92619
1.94786
1.96564
1.97337
1.97138
1.9628
1.93896
1.87648
1.75235
1.50701
1.2011
0.912485
0.785734
0.784102
0.808259
0.859453
0.921343
0.977876
1.03032
1.07997
1.12787
1.1719
1.21216
1.24611
1.27499
1.29765
1.31533
1.32757
1.33751
1.34254
1.3441
1.34051
1.33523
1.33045
1.32842
1.32854
1.33124
1.33489
1.33926
1.34385
1.35043
1.35795
1.3664
1.37454
1.38318
1.39153
1.40041
1.409
1.41813
1.42695
1.43634
1.44549
1.45514
1.46438
1.47411
1.48343
1.49325
1.50264
1.51249
1.52184
1.53164
1.54088
1.55058
1.55971
1.56935
1.57841
1.58801
1.59705
1.60659
1.6156
1.62502
1.63399
1.6433
1.65221
1.66146
1.67033
1.67954
1.68832
1.6974
1.70572
1.7138
1.71877
1.16979
1.21366
1.25988
1.30789
1.35684
1.40599
1.45395
1.50143
1.5469
1.59155
1.6338
1.67509
1.71372
1.75138
1.78618
1.81997
1.8507
1.8803
1.90653
1.93106
1.95124
1.96517
1.96601
1.96002
1.94141
1.8954
1.79046
1.58473
1.22556
0.874713
0.743809
0.765106
0.808013
0.870202
0.937788
1.00122
1.05873
1.11068
1.15783
1.2017
1.24192
1.27807
1.30882
1.33467
1.35476
1.3706
1.38175
1.39064
1.39546
1.39761
1.39534
1.3897
1.38363
1.37966
1.37808
1.37907
1.38184
1.3849
1.38911
1.39421
1.40138
1.40866
1.41672
1.42449
1.43278
1.44078
1.44934
1.45762
1.46658
1.47513
1.48426
1.49294
1.5022
1.51104
1.52044
1.5294
1.53891
1.5479
1.55744
1.56639
1.57592
1.58477
1.59425
1.60302
1.61243
1.62117
1.63048
1.6392
1.64839
1.65708
1.66619
1.67483
1.68389
1.69246
1.70151
1.70998
1.71891
1.72697
1.73496
1.73979
1.18152
1.22051
1.26309
1.30691
1.35217
1.39832
1.44386
1.48886
1.5326
1.57524
1.61627
1.65607
1.69394
1.73076
1.76511
1.79891
1.82949
1.86003
1.88653
1.91269
1.93377
1.94905
1.94995
1.9436
1.92588
1.88055
1.78559
1.60686
1.33994
1.03762
0.863441
0.861012
0.891726
0.939494
0.999318
1.05621
1.10709
1.1519
1.19222
1.23048
1.2668
1.30066
1.33092
1.35786
1.38094
1.40014
1.41498
1.42643
1.43479
1.44052
1.44269
1.44235
1.43807
1.43249
1.42709
1.42422
1.42297
1.42444
1.42711
1.43009
1.43473
1.44057
1.44809
1.45544
1.46337
1.47088
1.47894
1.48674
1.4951
1.50313
1.51173
1.51999
1.52886
1.5373
1.5464
1.55498
1.56423
1.57286
1.58217
1.59079
1.60008
1.60867
1.61789
1.62646
1.63557
1.64413
1.65316
1.6617
1.67068
1.67918
1.68813
1.69656
1.70546
1.71381
1.72265
1.73089
1.7396
1.74744
1.75528
1.76
1.19872
1.23137
1.26899
1.30969
1.35086
1.39326
1.43633
1.47876
1.52066
1.56167
1.60098
1.63997
1.67622
1.71276
1.74604
1.77957
1.81007
1.84009
1.86755
1.89267
1.91451
1.925
1.92245
1.91248
1.88708
1.82625
1.70399
1.53288
1.38809
1.22858
1.04646
0.961831
0.959186
0.982655
1.02054
1.07114
1.12149
1.16648
1.20668
1.244
1.27943
1.31258
1.34339
1.37144
1.39691
1.41927
1.4385
1.45378
1.46606
1.4754
1.48161
1.48414
1.48481
1.4823
1.47687
1.47122
1.46696
1.46468
1.46512
1.46695
1.46956
1.47297
1.47857
1.48531
1.49287
1.50013
1.50791
1.51537
1.52334
1.53092
1.53908
1.54687
1.55528
1.56329
1.5719
1.58006
1.58882
1.59708
1.60596
1.6143
1.62322
1.63161
1.64051
1.64893
1.65777
1.66619
1.675
1.68338
1.69216
1.70047
1.70921
1.71745
1.72612
1.7343
1.7429
1.75101
1.75949
1.76721
1.77489
1.77955
1.21658
1.24874
1.27986
1.3155
1.35364
1.39199
1.43157
1.47148
1.51067
1.55028
1.58783
1.62568
1.66127
1.69639
1.72997
1.7621
1.79327
1.82209
1.84986
1.8735
1.89139
1.89435
1.88738
1.86864
1.82388
1.72634
1.58021
1.47091
1.40502
1.34353
1.23885
1.11945
1.04934
1.03771
1.05469
1.08203
1.12409
1.16947
1.21245
1.2513
1.28736
1.3207
1.35195
1.38089
1.40785
1.43239
1.45454
1.4736
1.48943
1.50197
1.51215
1.51915
1.52323
1.5245
1.52379
1.51966
1.51458
1.50956
1.50674
1.50539
1.50652
1.50839
1.51133
1.51554
1.52204
1.52894
1.53649
1.5437
1.55125
1.55842
1.56603
1.57337
1.58126
1.58887
1.59706
1.60491
1.61329
1.62134
1.62981
1.63798
1.64648
1.65469
1.66319
1.67137
1.67988
1.68802
1.69655
1.70466
1.71318
1.72127
1.72974
1.7378
1.74621
1.75423
1.76259
1.77053
1.7788
1.78639
1.79392
1.79857
1.23193
1.26332
1.29496
1.32561
1.3591
1.39435
1.43009
1.467
1.50327
1.54024
1.57639
1.61189
1.64705
1.68053
1.7138
1.74511
1.77582
1.80431
1.83029
1.85184
1.85988
1.8546
1.8401
1.80575
1.72494
1.58988
1.47985
1.43085
1.4144
1.39526
1.35899
1.29175
1.20524
1.13173
1.1069
1.11599
1.1347
1.16683
1.20852
1.24968
1.28836
1.32422
1.35701
1.38755
1.41589
1.44212
1.46608
1.48794
1.50697
1.5233
1.53645
1.54765
1.55614
1.56147
1.56337
1.56398
1.56186
1.55706
1.55228
1.54802
1.54602
1.54592
1.54752
1.54948
1.55285
1.55798
1.565
1.57183
1.57913
1.58595
1.59326
1.60022
1.60771
1.61501
1.62276
1.63041
1.63836
1.6462
1.65429
1.66219
1.67038
1.67826
1.68653
1.69437
1.70268
1.71051
1.71882
1.72664
1.73491
1.74271
1.75092
1.75868
1.76683
1.77455
1.78265
1.79031
1.79832
1.80568
1.813
1.81755
1.24435
1.27619
1.30726
1.33753
1.36808
1.39997
1.43252
1.46617
1.50028
1.53417
1.56834
1.60197
1.63499
1.66771
1.6991
1.72997
1.75899
1.78615
1.80933
1.82166
1.81943
1.80723
1.77725
1.71042
1.58382
1.46993
1.42059
1.4118
1.41733
1.42203
1.41759
1.39744
1.35204
1.28373
1.20906
1.17281
1.17057
1.18519
1.20893
1.24473
1.28404
1.32325
1.35886
1.39186
1.42185
1.4497
1.47542
1.49916
1.52073
1.54006
1.55689
1.57097
1.58298
1.59288
1.59927
1.60252
1.60358
1.60297
1.59931
1.59481
1.58984
1.58689
1.5853
1.58598
1.58747
1.5898
1.59411
1.59986
1.60672
1.61346
1.62069
1.62748
1.63474
1.64163
1.64908
1.6562
1.66387
1.67121
1.67908
1.68656
1.69455
1.70212
1.71015
1.71774
1.72577
1.73333
1.74133
1.74884
1.7568
1.76432
1.77222
1.77975
1.78761
1.79513
1.80294
1.81039
1.81812
1.82522
1.83232
1.83666
1.26341
1.28861
1.31766
1.34645
1.37545
1.4052
1.4359
1.46717
1.49884
1.53111
1.56278
1.59491
1.62627
1.65724
1.6875
1.71656
1.74404
1.76767
1.78289
1.78324
1.7723
1.74545
1.68806
1.56912
1.45195
1.39783
1.39179
1.40368
1.41983
1.43781
1.4478
1.44814
1.43719
1.40721
1.35315
1.28799
1.2424
1.22815
1.23759
1.25439
1.2825
1.31893
1.35587
1.3919
1.42498
1.45497
1.48279
1.5084
1.5322
1.55368
1.57335
1.5906
1.60543
1.61799
1.6288
1.63657
1.64084
1.64217
1.64235
1.6404
1.63586
1.63126
1.62668
1.62449
1.62379
1.62488
1.62656
1.62949
1.6346
1.64078
1.64778
1.65443
1.66148
1.66813
1.67523
1.682
1.68928
1.69623
1.7037
1.71078
1.71839
1.72551
1.7332
1.74034
1.74805
1.75524
1.76291
1.77018
1.7778
1.78512
1.79273
1.80004
1.80765
1.81494
1.8225
1.82975
1.83721
1.84419
1.85102
1.85539
1.28192
1.30224
1.33017
1.35744
1.38446
1.41226
1.44057
1.4699
1.49953
1.52943
1.55995
1.58977
1.6199
1.64931
1.67786
1.70495
1.72922
1.74577
1.74794
1.73774
1.7134
1.66047
1.55275
1.43252
1.37325
1.36598
1.37928
1.39843
1.42333
1.45037
1.46871
1.47719
1.4792
1.47446
1.45619
1.41848
1.36714
1.31579
1.29222
1.29153
1.30367
1.32323
1.35376
1.38829
1.42295
1.45588
1.48679
1.51491
1.54065
1.56448
1.58623
1.60608
1.62376
1.63921
1.65237
1.66383
1.6727
1.67809
1.6804
1.68086
1.68004
1.67675
1.67184
1.66708
1.66374
1.6619
1.66223
1.66335
1.66557
1.66937
1.67525
1.68139
1.68819
1.69471
1.7015
1.70799
1.7148
1.72137
1.72832
1.735
1.74213
1.74891
1.75623
1.76311
1.77052
1.77744
1.78485
1.79178
1.79917
1.80612
1.81351
1.82051
1.8279
1.83496
1.8423
1.84934
1.85655
1.86325
1.8698
1.87395
1.30312
1.31728
1.33991
1.36742
1.39372
1.41983
1.44658
1.47376
1.50182
1.53002
1.55826
1.58708
1.61493
1.64293
1.6692
1.69313
1.71039
1.71389
1.70398
1.68128
1.63004
1.53375
1.41063
1.34579
1.33711
1.35076
1.37095
1.39914
1.42987
1.45749
1.48036
1.49675
1.50627
1.51072
1.51109
1.50246
1.47951
1.44006
1.39471
1.36115
1.34825
1.35522
1.36823
1.38933
1.42031
1.45332
1.48644
1.51699
1.54553
1.57178
1.59585
1.61805
1.63814
1.65637
1.67227
1.6862
1.69813
1.70801
1.7147
1.71811
1.71894
1.71892
1.71697
1.71264
1.70801
1.70323
1.70074
1.69961
1.70037
1.70175
1.70455
1.70896
1.71507
1.72128
1.72788
1.73415
1.74066
1.74688
1.75345
1.75976
1.76651
1.77297
1.7799
1.78648
1.79351
1.80016
1.80723
1.81391
1.821
1.82768
1.83478
1.84146
1.84855
1.85523
1.86226
1.86886
1.87571
1.8819
1.88797
1.89167
1.32899
1.33548
1.35247
1.37733
1.4026
1.42762
1.45299
1.47892
1.50521
1.5321
1.55891
1.58553
1.61226
1.6374
1.66082
1.67798
1.68193
1.67201
1.65022
1.6018
1.51067
1.38505
1.31497
1.30568
1.32005
1.34231
1.37198
1.40493
1.43467
1.46105
1.48518
1.50627
1.52374
1.53553
1.54416
1.5474
1.54622
1.53456
1.50915
1.47257
1.43423
1.41296
1.40785
1.41634
1.4306
1.45391
1.48414
1.51511
1.54633
1.5753
1.60193
1.62666
1.64923
1.66998
1.68862
1.70527
1.71962
1.73217
1.7428
1.75068
1.75528
1.7571
1.75732
1.75628
1.75309
1.74776
1.7429
1.7389
1.73714
1.73675
1.73758
1.73939
1.74304
1.74821
1.75429
1.76029
1.7666
1.77258
1.77879
1.78475
1.79105
1.79716
1.80365
1.80989
1.81654
1.82287
1.82963
1.83598
1.84278
1.84911
1.85592
1.86222
1.86898
1.8752
1.88182
1.88783
1.89414
1.89958
1.90489
1.90795
1.36398
1.36059
1.37059
1.38847
1.41298
1.43663
1.46022
1.48445
1.50925
1.53451
1.56008
1.58524
1.60941
1.63188
1.64839
1.65241
1.642
1.62028
1.57307
1.48289
1.3617
1.28919
1.27832
1.29215
1.31474
1.34533
1.37902
1.40934
1.43709
1.46269
1.48742
1.51059
1.53248
1.55137
1.56639
1.57731
1.58588
1.58812
1.58517
1.57164
1.54567
1.51327
1.48241
1.46778
1.46807
1.47715
1.49184
1.51579
1.54521
1.575
1.60426
1.6316
1.6569
1.68012
1.70147
1.7206
1.73784
1.7526
1.7659
1.77697
1.78613
1.79182
1.79476
1.7951
1.79472
1.79261
1.78805
1.7827
1.77764
1.77497
1.77353
1.77398
1.7751
1.77747
1.78176
1.78704
1.79302
1.79876
1.80476
1.81041
1.81644
1.82212
1.82831
1.83411
1.8404
1.84629
1.85261
1.85855
1.86489
1.87079
1.87716
1.88294
1.88929
1.89487
1.90101
1.90621
1.9117
1.91603
1.92015
1.92261
1.39846
1.38414
1.38742
1.4032
1.42449
1.44865
1.47076
1.49217
1.5147
1.53787
1.56141
1.58449
1.6057
1.62166