/*--------------------------------*- C++ -*----------------------------------*\
| =========                 |                                                 |
| \\      /  F ield         | OpenFOAM: The Open Source CFD Toolbox           |
|  \\    /   O peration     | Version:  2412                                  |
|   \\  /    A nd           | Website:  www.openfoam.com                      |
|    \\/     M anipulation  |                                                 |
\*---------------------------------------------------------------------------*/
FoamFile
{
    version     2.0;
    format      ascii;
    arch        "LSB;label=32;scalar=64";
    class       volScalarField;
    location    "3.5";
    object      p;
}
// * * * * * * * * * * * * * * * * * * * * * * * * * * * * * * * * * * * * * //

dimensions      [1 -1 -2 0 0 0 0];

internalField   nonuniform List<scalar> 
5250
(
1.00001
1.00004
1.00009
1.00027
1.00055
1.00158
1.0031
1.00962
1.01689
1.06233
1.10179
1.40406
1.83768
3.77654
8.40686
11.3787
11.1247
10.9662
11.0489
11.267
11.4753
11.6007
11.6942
11.7663
11.818
1.00001
1.00004
1.00009
1.00026
1.00054
1.00156
1.00305
1.00946
1.01661
1.06128
1.10003
1.39684
1.82192
3.72332
8.28112
11.3968
11.1299
10.9597
11.0426
11.2609
11.4688
11.5945
11.6893
11.7624
11.8155
1.00001
1.00004
1.00009
1.00025
1.00053
1.0015
1.00295
1.00913
1.01605
1.05911
1.0964
1.38153
1.78817
3.60801
7.99611
11.4348
11.1355
10.9352
11.0156
11.2302
11.4361
11.5602
11.6547
11.7279
11.7827
1.00001
1.00003
1.00008
1.00024
1.0005
1.00143
1.00282
1.00864
1.01538
1.05563
1.09137
1.35829
1.73724
3.43444
7.55264
11.4975
11.1462
10.8932
10.968
11.175
11.3778
11.4988
11.5909
11.6636
11.7214
1
1.00003
1.00008
1.00023
1.00047
1.00134
1.00267
1.00802
1.01461
1.05102
1.0851
1.32819
1.67126
3.21074
6.95866
11.5725
11.16
10.8355
10.9017
11.0958
11.2956
11.4124
11.5002
11.5706
11.6321
1
1.00003
1.00007
1.00021
1.00044
1.00124
1.00248
1.00729
1.01368
1.04574
1.07783
1.29362
1.59595
2.95522
6.25015
11.6214
11.1686
10.7662
10.8187
10.9904
11.184
11.293
11.3727
11.438
11.5035
1
1.00003
1.00007
1.00019
1.0004
1.00112
1.00228
1.00654
1.01265
1.04027
1.07016
1.25847
1.51255
2.69574
5.49234
11.5461
11.1371
10.684
10.7174
10.8536
11.0372
11.1336
11.197
11.247
11.3109
1
1.00002
1.00006
1.00017
1.00036
1.00102
1.00207
1.00591
1.0116
1.03591
1.06428
1.2298
1.44906
2.52412
4.98041
11.1675
10.9815
10.593
10.5936
10.6771
10.8419
10.9182
10.9548
10.9731
11.0159
1
1.00002
1.00005
1.00016
1.00033
1.00092
1.00188
1.00533
1.01062
1.03197
1.0592
1.20417
1.39289
2.38887
4.46374
10.4279
10.7028
10.5136
10.4326
10.4822
10.595
10.6358
10.6245
10.5706
10.5241
1
1.00002
1.00005
1.00014
1.00028
1.0008
1.00163
1.00468
1.00923
1.02833
1.0513
1.18328
1.33789
2.24582
4.02046
9.5364
10.5418
10.4099
10.2497
10.2619
10.302
10.2864
10.1994
9.98225
9.63734
1
1.00001
1.00004
1.00009
1.00026
1.00052
1.0016
1.00279
1.01008
1.01625
1.06322
1.10353
1.41362
1.85623
3.84127
8.46047
10.4108
10.2988
10.0652
10.0141
9.98558
9.89095
9.63661
9.03859
7.52073
1
1.00001
1.00003
1.0001
1.00021
1.0006
1.00122
1.00353
1.00679
1.02169
1.03771
1.13942
1.24383
1.93955
3.16441
7.33168
10.3166
10.1863
9.89005
9.75895
9.6695
9.47795
9.07143
8.25222
6.67085
1
1.00001
1.00003
1.00009
1.00019
1.00053
1.00108
1.00307
1.00618
1.01797
1.03491
1.11192
1.21043
1.74016
2.72732
6.07202
10.2052
10.0694
9.73223
9.51006
9.35652
9.08817
8.58651
7.74135
6.45202
1
1.00001
1.00003
1.00008
1.00016
1.00045
1.00091
1.00256
1.00517
1.01482
1.02934
1.08916
1.17616
1.5725
2.3347
4.86652
9.89209
9.86367
9.60398
9.2839
9.06124
8.74644
8.22919
7.44731
6.40108
1
1.00001
1.00002
1.00006
1.00013
1.00036
1.00074
1.00207
1.00417
1.01197
1.02334
1.07339
1.13461
1.46945
2.06017
4.1918
9.05128
9.56596
9.40734
9.07639
8.79997
8.461
7.96831
7.26894
6.38919
1
1.00001
1.00002
1.00005
1.0001
1.00028
1.00058
1.00162
1.00318
1.00961
1.01715
1.06096
1.10047
1.38893
1.7943
3.59238
7.60479
9.26946
9.18065
8.92441
8.58752
8.22845
7.76295
7.13936
6.38096
1
1.00001
1.00001
1.00004
1.00008
1.00023
1.00046
1.0013
1.00262
1.00755
1.01443
1.04682
1.08067
1.3
1.60345
2.96671
6.06366
9.08511
9.04041
8.8219
8.42552
8.04698
7.60119
7.03791
6.37084
1
1
1.00001
1.00003
1.00006
1.00018
1.00036
1.001
1.00203
1.00574
1.01128
1.03444
1.06195
1.21679
1.42141
2.37383
4.38222
8.71854
8.91827
8.73683
8.33244
7.90648
7.47011
6.95757
6.36171
1
1
1.00001
1.00002
1.00005
1.00013
1.00027
1.00076
1.00153
1.00433
1.00853
1.02589
1.04672
1.165
1.29734
2.08133
3.50018
7.70875
8.68205
8.56317
8.24575
7.79219
7.35836
6.88543
6.35247
1
1
1.00001
1.00001
1.00004
1.00008
1.00023
1.00046
1.00131
1.00254
1.00786
1.01367
1.04949
1.08113
1.31014
1.62279
2.99548
6.02936
8.40982
8.37095
8.15961
7.71795
7.26871
6.8221
6.34022
1
1
1.00001
1.00001
1.00003
1.00006
1.00018
1.00036
1.00099
1.00201
1.00567
1.01112
1.034
1.06098
1.21258
1.41095
2.32535
4.22176
7.94931
8.23657
8.08064
7.69895
7.21828
6.77983
6.33186
1
1
1
1.00001
1.00002
1.00005
1.00011
1.00031
1.00062
1.00174
1.0035
1.01002
1.01977
1.05995
1.11521
1.37095
1.83648
3.37635
6.83182
7.98942
7.91326
7.65788
7.19583
6.75574
6.3325
1
1
1
1.00001
1.00002
1.00003
1.00009
1.00019
1.00052
1.00106
1.00297
1.0059
1.01746
1.0323
1.10838
1.19648
1.68431
2.54292
5.23679
7.66326
7.70142
7.5636
7.21029
6.75855
6.33686
1
1
1
1
1.00001
1.00003
1.00005
1.00015
1.00031
1.00085
1.00171
1.00482
1.00942
1.02866
1.05139
1.1775
1.33254
2.09
3.50712
7.00081
7.58479
7.48677
7.21613
6.77863
6.35167
1
1
1
1
1.00001
1.00002
1.00004
1.00009
1.00025
1.0005
1.00139
1.00277
1.00806
1.01495
1.04929
1.08399
1.30512
1.59985
2.88279
5.50271
7.33637
7.33234
7.19401
6.84673
6.38776
1
1
1
1
1.00001
1.00001
1.00003
1.00006
1.00017
1.00035
1.00095
1.00193
1.00538
1.01076
1.03115
1.05946
1.18746
1.37958
2.14154
3.69803
6.81408
7.23563
7.14421
6.89156
6.45068
1
1
1
1
1
1.00001
1.00002
1.00005
1.0001
1.00027
1.00055
1.00153
1.00308
1.00866
1.01713
1.05081
1.09795
1.30592
1.67952
2.88515
5.57974
7.0116
7.00764
6.87625
6.55724
1
1
1
1
1
1
1.00001
1.00003
1.00008
1.00016
1.00043
1.00087
1.0024
1.00482
1.01363
1.02684
1.08002
1.15703
1.4853
2.08965
3.84459
6.50764
6.8912
6.81476
6.58963
1
1
1
1
1
1
1.00001
1.00002
1.00004
1.00012
1.00024
1.00065
1.00131
1.00364
1.00715
1.02123
1.03834
1.12928
1.23172
1.78839
2.73755
5.38728
6.65866
6.66489
6.56375
1
1
1
1
1
1
1.00001
1.00001
1.00003
1.00008
1.00016
1.00043
1.00087
1.00239
1.00482
1.01346
1.02665
1.07813
1.15502
1.46883
2.04381
3.67856
6.13737
6.55309
6.49923
1
1
1
1
1
1
1
1.00001
1.00002
1.00004
1.00011
1.00023
1.00062
1.00126
1.00347
1.00681
1.02014
1.03635
1.12192
1.21735
1.73608
2.59723
5.0096
6.31728
6.37377
1
1
1
1
1
1
1
1
1.00001
1.00003
1.00007
1.00015
1.0004
1.00081
1.0022
1.00445
1.01233
1.02447
1.07054
1.1419
1.41464
1.91859
3.29816
5.77055
6.26274
1
1
1
1
1
1
1
1
1.00001
1.00002
1.00004
1.0001
1.00021
1.00056
1.00113
1.00312
1.00611
1.0181
1.03246
1.10946
1.19155
1.65992
2.39121
4.57341
5.98699
1
1
1
1
1
1
1
1
1
1.00001
1.00003
1.00005
1.00015
1.0003
1.00082
1.00165
1.00452
1.00898
1.0257
1.04836
1.15009
1.29633
1.85671
2.9231
5.3436
1
1
1
1
1
1
1
1
1
1.00001
1.00002
1.00003
1.00009
1.00019
1.0005
1.00102
1.00277
1.00558
1.01546
1.03018
1.09077
1.16827
1.53999
2.15582
3.92254
1
1
1
1
1
1
1
1
1
1
1.00001
1.00002
1.00006
1.00011
1.0003
1.00061
1.00166
1.00335
1.00918
1.0185
1.0513
1.10615
1.29555
1.65423
2.66485
1
1
1
1
1
1
1
1
1
1
1.00001
1.00001
1.00003
1.00008
1.00015
1.00041
1.00083
1.00225
1.00452
1.01241
1.02446
1.07073
1.13671
1.40598
1.87478
1
1
1
1
1
1
1
1
1
1
1
1.00001
1.00002
1.00004
1.00009
1.00024
1.00049
1.00132
1.00266
1.00723
1.01448
1.04013
1.08167
1.22785
1.49909
1
1
1
1
1
1
1
1
1
1
1
1
1.00001
1.00002
1.00006
1.00012
1.00032
1.00065
1.00175
1.00351
1.00958
1.01928
1.053
1.11024
1.30032
1
1
1
1
1
1
1
1
1
1
1
1
1.00001
1.00001
1.00003
1.00008
1.00016
1.00043
1.00086
1.00231
1.00464
1.01265
1.0249
1.07173
1.13689
1
1
1
1
1
1
1
1
1
1
1
1
1
1.00001
1.00002
1.00004
1.00009
1.00024
1.00049
1.00131
1.00264
1.00711
1.01428
1.03903
1.07991
1
1
1
1
1
1
1
1
1
1
1
1
1
1
1.00001
1.00002
1.00006
1.00012
1.00031
1.00062
1.00167
1.00335
1.00906
1.01824
1.04966
1
1
1
1
1
1
1
1
1
1
1
1
1
1
1.00001
1.00001
1.00003
1.00007
1.00015
1.00039
1.00079
1.00211
1.00423
1.01143
1.02255
1
1
1
1
1
1
1
1
1
1
1
1
1
1
1
1.00001
1.00002
1.00004
1.00009
1.00019
1.0005
1.00102
1.0027
1.00537
1.01493
1
1
1
1
1
1
1
1
1
1
1
1
1
1
1
1
1.00001
1.00002
1.00005
1.00011
1.00029
1.00059
1.00156
1.00316
1.00847
1
1
1
1
1
1
1
1
1
1
1
1
1
1
1
1
1.00001
1.00001
1.00003
1.00008
1.00016
1.00042
1.00085
1.00229
1.0046
1
1
1
1
1
1
1
1
1
1
1
1
1
1
1
1
1
1.00001
1.00002
1.00006
1.00011
1.00032
1.00064
1.00179
1.00362
1
1
1
1
1
1
1
1
1
1
1
1
1
1
1
1
1
1.00001
1.00002
1.00005
1.00009
1.00026
1.00052
1.00153
1.00287
1
1
1
1
1
1
1
1
1
1
1
1
1
1
1
1
1
1.00001
1.00002
1.00003
1.0001
1.0002
1.00059
1.00108
1.00373
1
1
1
1
1
1
1
1
1
1
1
1
1
1
1
1
1
1.00001
1.00001
1.00004
1.00008
1.00024
1.00047
1.00145
1.00262
3.13702
1.61096
1.09271
0.979967
1.00404
1.07858
1.23558
1.36459
1.40693
1.4055
1.40047
1.40067
1.40314
1.41032
1.42579
1.45206
1.49272
1.57583
1.75091
2.12449
2.85479
3.33362
3.41009
3.42187
3.37639
3.31657
3.24987
3.20467
3.16891
3.14508
3.1352
3.13328
3.14714
3.19069
3.27734
3.40817
3.56655
3.73315
3.89293
4.0432
4.17276
4.28073
4.36735
4.43938
4.49859
4.54138
4.56672
4.58099
4.58451
4.58175
4.57165
4.55093
4.52396
4.49388
4.45967
4.4228
4.38259
4.34042
4.29579
4.2498
4.2021
4.15364
4.10416
4.05445
4.00427
3.95413
3.90386
3.85367
3.80344
3.75326
3.70306
3.65292
3.60282
3.55284
3.50302
3.45345
3.40417
3.35526
3.30679
3.25882
3.2114
3.16458
3.11841
3.07289
3.02808
2.98393
2.94048
2.89765
2.85548
2.8139
2.77301
2.73273
2.69318
2.65443
2.61679
2.5804
2.54593
2.51439
2.48759
2.47043
3.79573
2.38624
1.77643
1.51496
1.39086
1.31231
1.28921
1.29582
1.31519
1.3556
1.40136
1.42362
1.42651
1.42789
1.4321
1.44432
1.47446
1.54453
1.69527
2.0245
2.71725
3.315
3.43359
3.41416
3.36343
3.29967
3.24873
3.2252
3.18464
3.1504
3.1279
3.12032
3.13031
3.1753
3.26101
3.38751
3.54039
3.70414
3.85825
4.01611
4.14886
4.25887
4.34767
4.42155
4.48097
4.52481
4.55176
4.56739
4.57174
4.57003
4.56241
4.54441
4.51563
4.4853
4.45193
4.41577
4.37614
4.33434
4.29019
4.24462
4.19746
4.14941
4.10041
4.05099
4.00113
3.95116
3.90104
3.85094
3.80081
3.7507
3.7006
3.65055
3.60055
3.55066
3.50095
3.45144
3.40225
3.35339
3.305
3.25706
3.20972
3.16293
3.11682
3.07133
3.02659
2.98244
2.93904
2.89623
2.85411
2.8126
2.77186
2.7317
2.69234
2.65362
2.61585
2.57924
2.54452
2.51261
2.48514
2.46764
4.6056
3.30245
2.47713
1.9534
1.61789
1.40962
1.28904
1.26775
1.27429
1.29395
1.33538
1.37791
1.40746
1.42309
1.42977
1.43976
1.46084
1.50839
1.61268
1.84248
2.33827
3.15947
3.39693
3.39092
3.36143
3.30216
3.24868
3.20561
3.16725
3.14056
3.12569
3.12175
3.13776
3.17264
3.23723
3.3651
3.51878
3.67892
3.83887
3.992
4.12379
4.23424
4.32425
4.39847
4.45719
4.50149
4.53027
4.54711
4.55262
4.5515
4.54605
4.53207
4.50403
4.47304
4.43996
4.40451
4.36586
4.3248
4.28143
4.23653
4.19014
4.14275
4.09443
4.04553
3.99613
3.94648
3.89663
3.8467
3.79673
3.74675
3.69679
3.64686
3.59702
3.54726
3.49768
3.44829
3.39921
3.35046
3.30216
3.25431
3.20706
3.16038
3.11435
3.06901
3.02439
2.98035
2.93703
2.89435
2.85239
2.811
2.77024
2.73008
2.69066
2.65195
2.61416
2.57749
2.54251
2.51017
2.48184
2.46335
5.04407
3.8721
3.0006
2.39132
1.9811
1.70429
1.52864
1.42025
1.35571
1.33597
1.33886
1.34926
1.37181
1.40139
1.42488
1.44144
1.45684
1.48737
1.55807
1.70559
2.03836
2.74472
3.2936
3.37784
3.36218
3.31952
3.26203
3.21575
3.18025
3.15873
3.14783
3.14921
3.16234
3.20042
3.27639
3.38356
3.51664
3.66273
3.80688
3.95102
4.08111
4.19258
4.28468
4.3601
4.41976
4.46524
4.4963
4.5152
4.52289
4.52241
4.51904
4.50919
4.48756
4.45546
4.42192
4.3871
4.34973
4.3099
4.26776
4.22391
4.17858
4.1321
4.08468
4.0365
3.98775
3.93858
3.88914
3.83951
3.78981
3.74006
3.69034
3.64063
3.59102
3.54147
3.4921
3.4429
3.39398
3.3454
3.29726
3.24959
3.2025
3.15601
3.11005
3.06492
3.02051
2.97675
2.93364
2.89112
2.84927
2.80799
2.76735
2.7273
2.68797
2.64934
2.61158
2.57485
2.53961
2.5068
2.47758
2.45788
5.3047
4.28115
3.44812
2.81491
2.35053
2.01154
1.76531
1.58851
1.46527
1.38689
1.3435
1.34135
1.34465
1.35451
1.37518
1.39863
1.42173
1.44726
1.49477
1.59281
1.79791
2.22444
3.03698
3.33083
3.35649
3.3405
3.30008
3.24539
3.21101
3.19994
3.20267
3.21793
3.2593
3.33368
3.40173
3.47289
3.56115
3.66147
3.76926
3.88857
4.01094
4.12717
4.22727
4.30834
4.37136
4.41906
4.45251
4.47391
4.48452
4.48561
4.48392
4.47782
4.46314
4.43377
4.40043
4.36589
4.32959
4.29118
4.2506
4.20819
4.16419
4.11886
4.07247
4.02516
3.97718
3.92862
3.87973
3.83052
3.7812
3.73176
3.68234
3.6329
3.58356
3.53427
3.48515
3.43616
3.38749
3.33911
3.29122
3.24378
3.19696
3.15073
3.10538
3.06043
3.01618
2.97256
2.92961
2.88723
2.8455
2.80434
2.76384
2.72392
2.68469
2.64613
2.60839
2.57161
2.53616
2.50292
2.47289
2.45191
5.4852
4.59994
3.82668
3.198
2.70612
2.32701
2.03775
1.81879
1.65508
1.5361
1.45146
1.39603
1.36651
1.36408
1.36672
1.37475
1.39181
1.41853
1.45213
1.51496
1.64092
1.91384
2.48295
3.15003
3.32994
3.33937
3.32812
3.29804
3.26756
3.27076
3.28991
3.34427
3.45893
3.55889
3.609
3.63903
3.66786
3.69639
3.75201
3.81397
3.9065
4.02614
4.14201
4.23675
4.30958
4.36304
4.40002
4.42452
4.43835
4.44274
4.44185
4.4382
4.4286
4.4079
4.37597
4.34157
4.30598
4.26883
4.22982
4.18892
4.14632
4.10228
4.05702
4.01072
3.9636
3.91577
3.86745
3.81876
3.7699
3.72086
3.67182
3.62272
3.5737
3.5247
3.47587
3.42716
3.37878
3.33068
3.2831
3.23606
3.18972
3.14394
3.09885
3.05425
3.01028
2.96686
2.9241
2.8819
2.84036
2.79938
2.75907
2.71933
2.68029
2.64187
2.60425
2.56749
2.53194
2.49835
2.4677
2.44545
5.61113
4.84037
4.13492
3.53032
3.03232
2.63079
2.31085
2.05763
1.85796
1.70186
1.58056
1.49197
1.42633
1.38648
1.36691
1.3673
1.37066
1.37953
1.39955
1.43853
1.52087
1.68445
2.02553
2.72025
3.20583
3.32361
3.33833
3.33625
3.33825
3.35708
3.41774
3.55847
3.76982
3.87684
3.89031
3.8801
3.84689
3.77915
3.76493
3.77901
3.81804
3.89918
4.0189
4.13185
4.22247
4.28956
4.33534
4.36587
4.38452
4.39322
4.39314
4.39154
4.38621
4.37346
4.34746
4.31442
4.27954
4.24342
4.20582
4.16651
4.1255
4.08289
4.0389
3.9937
3.94754
3.90055
3.85299
3.80494
3.75664
3.7081
3.65951
3.61082
3.56217
3.51353
3.46501
3.41666
3.36863
3.32103
3.27406
3.22756
3.18169
3.13629
3.09151
3.0472
3.00352
2.96034
2.91781
2.87583
2.83451
2.79375
2.75366
2.71413
2.67529
2.63705
2.59957
2.56288
2.5273
2.49347
2.46235
2.43889
5.70082
5.02394
4.38347
3.81228
3.32241
2.91233
2.57393
2.29715
2.07173
1.88953
1.74263
1.62632
1.53512
1.46759
1.41837
1.38844
1.37679
1.37827
1.38453
1.40481
1.44428
1.5393
1.72633
2.11659
2.87721
3.23246
3.32582
3.35849
3.39258
3.46585
3.61886
3.92454
4.18791
4.25635
4.24142
4.18529
4.05621
3.89341
3.79575
3.77608
3.78671
3.81857
3.88662
3.99563
4.1011
4.18786
4.25171
4.29501
4.32252
4.33719
4.3416
4.34089
4.33797
4.33027
4.31351
4.2843
4.25091
4.21577
4.1793
4.14132
4.10173
4.0605
4.01781
3.97376
3.92864
3.88255
3.8358
3.78846
3.7408
3.69283
3.64475
3.59652
3.5483
3.50006
3.45186
3.40404
3.3567
3.30976
3.26337
3.21739
3.17195
3.12694
3.08252
3.03855
2.9952
2.95232
2.9101
2.86839
2.82735
2.78685
2.74703
2.70775
2.66918
2.63117
2.59392
2.55738
2.52187
2.48789
2.4565
2.4319
5.76864
5.16579
4.58359
4.04904
3.57594
3.16759
2.82048
2.52889
2.28489
2.08226
1.91392
1.77534
1.6618
1.5701
1.49801
1.44319
1.40589
1.38353
1.38405
1.38936
1.40776
1.45035
1.55342
1.76671
2.2172
2.95187
3.25337
3.35493
3.45334
3.61512
3.94228
4.42074
4.68086
4.67816
4.63381
4.50856
4.25666
4.03397
3.88301
3.802
3.78287
3.78983
3.81376
3.86689
3.95855
4.0554
4.13934
4.20297
4.24616
4.27157
4.28393
4.28577
4.28451
4.28027
4.27016
4.24922
4.21871
4.18499
4.14968
4.11289
4.07461
4.03471
3.99336
3.95057
3.90663
3.8616
3.8158
3.76931
3.72241
3.67512
3.62766
3.57997
3.53225
3.48447
3.43716
3.39002
3.34341
3.29713
3.25134
3.20588
3.16093
3.11635
3.07235
3.02876
2.9858
2.94329
2.90143
2.86005
2.81935
2.77916
2.73966
2.70068
2.66239
2.62465
2.58764
2.5513
2.51592
2.48189
2.45038
2.42476
5.81809
5.27725
4.7463
4.2481
3.79586
3.39583
3.04726
2.74756
2.49133
2.27356
2.08902
1.93308
1.80203
1.69239
1.60211
1.52843
1.4709
1.4285
1.39865
1.39546
1.40009
1.41782
1.46538
1.57672
1.8216
2.33589
3.0197
3.31543
3.52572
3.82502
4.42803
5.01706
5.17614
5.14256
5.02593
4.76854
4.45048
4.19481
4.00877
3.88307
3.81023
3.78359
3.78638
3.80116
3.83851
3.91346
4.00024
4.08175
4.14561
4.18911
4.21465
4.22598
4.22586
4.22409
4.21871
4.20641
4.18164
4.15051
4.11671
4.08114
4.04409
4.00551
3.96552
3.92409
3.88144
3.83759
3.79287
3.74734
3.70133
3.65481
3.60805
3.56096
3.51391
3.467
3.42051
3.37426
3.3284
3.28279
3.23761
3.19271
3.14829
3.10421
3.06068
3.01754
2.97501
2.9329
2.89143
2.85044
2.81011
2.77028
2.73114
2.69251
2.65457
2.61716
2.58046
2.54437
2.50922
2.4752
2.44372
2.41723
5.85665
5.36718
4.88095
4.41696
3.98732
3.59916
3.25417
2.95127
2.68767
2.4593
2.2624
2.09302
1.94763
1.82344
1.7177
1.62859
1.55454
1.49422
1.44833
1.41455
1.40767
1.41253
1.42926
1.48893
1.60116
1.89483
2.469
3.15191
3.55337
4.15432
5.10652
5.6343
5.63157
5.56108
5.36077
4.97639
4.63829
4.36965
4.16011
4.00051
3.88546
3.8119
3.77711
3.77384
3.77998
3.80404
3.85714
3.93592
4.01347
4.07791
4.12381
4.15045
4.1615
4.16123
4.15887
4.15221
4.13755
4.11114
4.07952
4.04531
4.00953
3.97234
3.93386
3.89394
3.85273
3.81023
3.76675
3.72235
3.67736
3.63174
3.58576
3.53955
3.49356
3.4477
3.40218
3.35679
3.31172
3.26683
3.22232
3.17804
3.13423
3.09072
3.04773
3.00511
2.96307
2.92144
2.88043
2.83988
2.79998
2.76057
2.72181
2.68358
2.646
2.60895
2.57258
2.5368
2.50191
2.468
2.43664
2.40949
5.89289
5.44155
4.99323
4.56075
4.15412
3.78007
3.44197
3.13976
2.87244
2.63714
2.43114
2.25123
2.09458
1.95836
1.84052
1.73869
1.65175
1.57792
1.51703
1.46876
1.43259
1.42619
1.43213
1.45442
1.5205
1.66708
2.00466
2.71118
3.49855
4.65951
5.88713
6.15962
6.10299
5.92473
5.55663
5.15987
4.82486
4.55011
4.3232
4.13798
3.99108
3.88067
3.80513
3.76476
3.74968
3.75118
3.76351
3.79592
3.86152
3.93393
3.99901
4.04698
4.07661
4.08979
4.08964
4.08732
4.08036
4.06499
4.03774
4.00544
3.97104
3.93528
3.89841
3.86015
3.82056
3.77958
3.73753
3.69444
3.65063
3.60597
3.56114
3.51617
3.47136
3.4266
3.38206
3.33757
3.29335
3.24924
3.20547
3.16188
3.11873
3.07584
3.03345
2.99138
2.94988
2.90876
2.86825
2.82818
2.78874
2.74979
2.71148
2.67368
2.63651
2.59986
2.56388
2.52843
2.49386
2.46011
2.42897
2.40134
5.92215
5.50571
5.09027
4.68497
4.29978
3.94072
3.61127
3.31272
3.04445
2.80539
2.59296
2.40538
2.23968
2.09411
1.96608
1.85417
1.7564
1.67169
1.59916
1.53756
1.48952
1.45327
1.45438
1.46354
1.50329
1.58427
1.80849
2.25568
3.23296
5.16396
6.58644
6.58401
6.46705
6.16796
5.71336
5.32147
4.99514
4.71882
4.48288
4.28207
4.11421
3.9772
3.87004
3.79203
3.74332
3.7205
3.70995
3.71524
3.73521
3.77948
3.84516
3.90807
3.95901
3.99268
4.01012
4.01198
4.01007
4.00363
3.98897
3.96136
3.92914
3.89484
3.85936
3.82262
3.78465
3.74535
3.70495
3.6634
3.62091
3.57775
3.53432
3.49072
3.44717
3.40354
3.36003
3.31652
3.27321
3.22995
3.187
3.14419
3.10177
3.05956
3.01783
2.97639
2.9355
2.89495
2.855
2.81546
2.77654
2.73809
2.70026
2.66292
2.62621
2.58999
2.55442
2.51934
2.48514
2.45161
2.42074
2.39279
5.95321
5.56331
5.17539
4.79517
4.42912
4.08434
3.76397
3.47045
3.20327
2.96264
2.74621
2.55323
2.38076
2.22789
2.09173
1.9716
1.86507
1.77145
1.68981
1.61791
1.56087
1.50899
1.49768
1.50386
1.52897
1.59856
1.76957
2.16681
3.08781
5.13475
6.95285
6.91758
6.73305
6.3394
5.87762
5.48725
5.1617
4.88354
4.6426
4.43289
4.25123
4.09524
3.96346
3.85603
3.77317
3.71615
3.68501
3.66188
3.6629
3.67266
3.69853
3.75147
3.81072
3.86353
3.9018
3.92284
3.9293
3.9279
3.92241
3.90939
3.88314
3.85177
3.81759
3.78188
3.74522
3.70755
3.66893
3.6291
3.58838
3.54698
3.50525
3.46315
3.42095
3.37853
3.33617
3.2937
3.25139
3.20906
3.167
3.12501
3.08339
3.04192
3.00091
2.96014
2.91989
2.87997
2.84062
2.80166
2.7633
2.72538
2.68808
2.65123
2.61502
2.57925
2.54414
2.50945
2.47567
2.44241
2.41187
2.38369
5.99001
5.6176
5.25271
4.89412
4.54545
4.2138
3.90272
3.61477
3.35028
3.10958
2.89114
2.69452
2.51716
2.35864
2.21607
2.08923
1.97551
1.87459
1.78542
1.70578
1.64158
1.58236
1.567
1.573
1.60038
1.663
1.83275
2.17358
2.93446
4.46467
6.71735
7.00496
6.88775
6.58274
6.12006
5.70068
5.35192
5.05784
4.80537
4.58672
4.39472
4.22467
4.07455
3.94457
3.83529
3.74779
3.68295
3.64301
3.61323
3.6013
3.60581
3.62201
3.65771
3.71104
3.76218
3.80306
3.83017
3.84158
3.84093
3.83699
3.82649
3.80455
3.77375
3.7391
3.70331
3.66686
3.62978
3.59177
3.5531
3.51368
3.47379
3.43332
3.3926
3.35152
3.31038
3.26905
3.22782
3.1865
3.14539
3.1043
3.06353
3.02287
2.98263
2.9426
2.90305
2.86381
2.82511
2.78678
2.74903
2.71169
2.67495
2.63864
2.60295
2.56767
2.53305
2.4988
2.46547
2.43253
2.40237
2.37406
6.04905
5.67847
5.32359
4.9805
4.64881
4.32977
4.02838
3.74686
3.48624
3.24712
3.02811
2.82959
2.6488
2.4861
2.33852
2.20614
2.08664
1.97954
1.88438
1.79909
1.73065
1.66985
1.67012
1.6814
1.71455
1.82209
2.02839
2.4868
3.23455
3.99726
5.3201
6.47628
6.68995
6.61195
6.38756
5.96589
5.58497
5.26167
4.98491
4.74798
4.54191
4.3586
4.19386
4.0469
3.91787
3.80728
3.7162
3.64509
3.5976
3.56137
3.53819
3.53926
3.5472
3.56786
3.61016
3.65788
3.70126
3.73262
3.74952
3.75087
3.74864
3.74109
3.72423
3.69406
3.6602
3.62457
3.58861
3.55218
3.51535
3.47788
3.43988
3.40119
3.36208
3.32248
3.28268
3.2426
3.20252
3.16229
3.1222
3.08209
3.04222
3.00245
2.96303
2.9238
2.88501
2.8465
2.80849
2.77083
2.73372
2.697
2.66086
2.62512
2.58999
2.55525
2.52114
2.48739
2.45454
2.42196
2.39223
2.36387
6.11573
5.73777
5.39166
5.05777
4.7389
4.43331
4.14216
3.86832
3.61247
3.37619
3.15789
2.95848
2.77574
2.60967
2.45847
2.32136
2.19729
2.0853
1.98521
1.89851
1.82558
1.79061
1.79625
1.82469
1.89445
2.07615
2.43744
3.0333
3.47785
3.83687
4.37057
5.2172
6.10015
6.40152
6.35696
6.20026
5.87883
5.5372
5.21096
4.93649
4.70386
4.50034
4.31889
4.15686
4.01209
3.88407
3.77301
3.67946
3.60421
3.54969
3.50757
3.47789
3.46814
3.47173
3.48412
3.51155
3.55455
3.59642
3.63025
3.65202
3.65959
3.65837
3.65313
3.64034
3.61439
3.58113
3.54643
3.51091
3.47525
3.43939
3.40324
3.36645
3.32914
3.29123
3.25296
3.21429
3.17546
3.13642
3.09741
3.05835
3.01945
2.98062
2.94208
2.90371
2.86573
2.828
2.79074
2.7538
2.71738
2.68132
2.64582
2.6107
2.57616
2.542
2.50845
2.47522
2.4429
2.41075
2.3815
2.35318
6.17567
5.79284
5.45094
5.13113
4.82267
4.52714
4.24605
3.98071
3.73068
3.49784
3.28148
3.08191
2.8983
2.72979
2.5758
2.43506
2.30731
2.19179
2.08947
2.00364
1.94125
1.94301
1.96115
2.02109
2.16925
2.48277
3.0735
3.47976
3.66854
3.80165
4.0046
4.34979
4.90335
5.65993
6.10198
6.08742
6.00498
5.81425
5.48986
5.17573
4.90264
4.66439
4.45826
4.27669
4.11551
3.9722
3.84516
3.73402
3.6389
3.56042
3.49972
3.45323
3.41714
3.39449
3.3955
3.40172
3.41783
3.45083
3.48966
3.52586
3.55186
3.56586
3.56561
3.56269
3.55406
3.53537
3.50381
3.46918
3.43415
3.39918
3.36427
3.32906
3.29353
3.25745
3.22092
3.18385
3.14647
3.10875
3.07094
3.03301
2.99516
2.95734
2.91976
2.8823
2.8452
2.8083
2.77184
2.73566
2.69998
2.66463
2.62981
2.59536
2.56146
2.52792
2.49498
2.46233
2.4306
2.39894
2.37022
2.34207
6.29604
5.87429
5.5166
5.1998
4.90252
4.61823
4.34591
4.08689
3.84229
3.6129
3.39878
3.19988
3.01575
2.84593
2.68969
2.54656
2.41639
2.29922
2.19997
2.11941
2.10607
2.11965
2.17199
2.30652
2.59789
3.18035
3.61579
3.78254
3.82364
3.84115
3.88591
3.99199
4.20838
4.60118
5.23383
5.7389
5.87603
5.83786
5.71019
5.44488
5.16038
4.87556
4.63138
4.41964
4.23531
4.07331
3.93016
3.80343
3.69204
3.59558
3.51414
3.44839
3.39771
3.35452
3.32521
3.31717
3.31968
3.32886
3.34944
3.38484
3.41965
3.44857
3.46748
3.47274
3.47129
3.46567
3.4523
3.42534
3.39342
3.35923
3.32466
3.29011
3.25577
3.22123
3.18641
3.15105
3.11529
3.07907
3.04264
3.00596
2.96928
2.93254
2.89599
2.85951
2.82334
2.78734
2.75173
2.71638
2.68148
2.6469
2.61281
2.57908
2.54587
2.51302
2.48074
2.44875
2.41767
2.3866
2.35849
2.33072
6.32114
5.9564
5.58994
5.27133
4.9807
4.70488
4.44052
4.18848
3.94892
3.7231
3.51108
3.31317
3.12895
2.95829
2.8007
2.65628
2.52546
2.41193
2.31914
2.28508
2.29611
2.34466
2.46879
2.75606
3.32676
3.80357
3.98519
3.98293
3.9621
3.90856
3.85745
3.86858
3.92663
4.06915
4.36201
4.84668
5.35692
5.63945
5.62636
5.55478
5.38368
5.11708
4.85277
4.60216
4.38515
4.19683
4.03257
3.88788
3.76048
3.64811
3.54995
3.46567
3.39536
3.34034
3.29191
3.25674
3.23707
3.23763
3.24203
3.25419
3.27964
3.31272
3.34438
3.36709
3.37954
3.37903
3.37581
3.36677
3.34749
3.31761
3.2844
3.2504
3.21668
3.18308
3.14955
3.11574
3.08165
3.04708
3.01222
2.97697
2.94163
2.90611
2.8707
2.83528
2.80013
2.76509
2.7304
2.69594
2.66189
2.62814
2.59485
2.56191
2.52947
2.49737
2.46585
2.4346
2.40427
2.37396
2.34656
2.31947
6.2966
6.0823
5.69502
5.35769
5.06239
4.79037
4.53224
4.28564
4.05143
3.82883
3.61905
3.42221
3.23838
3.0675
2.90968
2.76564
2.63901
2.53389
2.48248
2.49128
2.53472
2.6555
2.93479
3.50402
4.0331
4.23082
4.22474
4.18911
4.10268
3.96455
3.85243
3.82404
3.82954
3.8655
3.96249
4.16269
4.49624
4.96626
5.30371
5.3945
5.36602
5.26829
5.06044
4.82003
4.57698
4.35553
4.16248
3.99456
3.847
3.71718
3.6028
3.50231
3.41505
3.34063
3.2806
3.22872
3.18738
3.1604
3.1534
3.15527
3.16235
3.17864
3.20913
3.23959
3.2653
3.2834
3.28712
3.28555
3.27984
3.26652
3.23996
3.20952
3.17699
3.14394
3.11108
3.07835
3.04567
3.0127
2.97947
2.94583
2.91199
2.87787
2.84374
2.80952
2.77547
2.74149
2.7078
2.6743
2.64119
2.60834
2.57595
2.54388
2.5123
2.48106
2.45041
2.42005
2.39063
2.36133
2.33484
2.30901
6.23288
6.1004
5.8108
5.45637
5.14966
4.87652
4.62198
4.37997
4.14909
3.9303
3.72272
3.52749
3.34453
3.17452
3.01825
2.87919
2.7629
2.6959
2.70298
2.74369
2.86397
3.14467
3.72485
4.30495
4.51901
4.50987
4.46331
4.35331
4.18204
4.03183
3.91279
3.82895
3.79379
3.79368
3.80711
3.86109
3.98481
4.21178
4.56453
4.91363
5.14463
5.13828
5.09585
4.98985
4.7754
4.55346
4.33064
4.13382
3.95996
3.80768
3.67402
3.55645
3.45294
3.36254
3.28462
3.22005
3.16484
3.11892
3.08658
3.06981
3.07022
3.07378
3.08389
3.10522
3.13449
3.16313
3.18401
3.19475
3.19417
3.19083
3.18183
3.16291
3.13497
3.10369
3.07161
3.03959
3.00784
2.97612
2.94437
2.91235
2.88013
2.84759
2.81492
2.78206
2.74927
2.71646
2.68389
2.65146
2.61938
2.58755
2.55616
2.52508
2.49451
2.46429
2.43469
2.40548
2.37724
2.34949
2.32421
2.3008
6.13802
6.07633
5.90616
5.56371
5.24388
4.96447
4.70999
4.47101
4.24379
4.0275
3.82304
3.62955
3.44847
3.28105
3.13066
3.00425
2.92373
2.92934
2.9682
3.08726
3.36828
3.95179
4.60083
4.8379
4.82562
4.76849
4.63635
4.44101
4.26741
4.12404
4.00339
3.90102
3.81774
3.77034
3.74272
3.74434
3.76395
3.82923
3.97115
4.2062
4.53491
4.793
4.91835
4.90487
4.84843
4.71875
4.51181
4.3102
4.10689
3.92814
3.77045
3.63159
3.5097
3.40264
3.3088
3.22755
3.1589
3.10156
3.052
3.01414
2.99112
2.98455
2.9861
2.99207
3.00588
3.03284
3.06132
3.08449
3.09989
3.10328
3.10176
3.09632
3.08384
3.05898
3.03054
2.99995
2.96894
2.938
2.90736
2.87675
2.8461
2.8152
2.78413
2.75281
2.72145
2.68999
2.65869
2.62748
2.59659
2.56591
2.53568
2.50577
2.47641
2.44747
2.41926
2.39168
2.36514
2.33991
2.31647
2.29771
5.99839
5.99422
5.9065
5.69322
5.35708
5.05974
4.79797
4.55921
4.33486
4.12163
3.91984
3.72993
3.55246
3.3922
3.25667
3.16555
3.17032
3.20929
3.33217
3.62461
4.23613
4.92631
5.17939
5.16437
5.09684
4.94249
4.72505
4.53236
4.37198
4.23359
4.10941
3.9947
3.89026
3.80022
3.73117
3.69423
3.6635
3.66697
3.69244
3.76586
3.9164
4.14784
4.42047
4.62531
4.68392
4.66646
4.60424
4.46711
4.27372
4.08445
3.89897
3.7352
3.59085
3.46383
3.35253
3.25517
3.17101
3.09885
3.03896
2.98643
2.94409
2.91604
2.90058
2.90091
2.9039
2.91262
2.93085
2.95852
2.98468
3.00324
3.01318
3.01262
3.00954
3.00127
2.98386
2.95793
2.92897
2.89905
2.86928
2.83968
2.8103
2.78087
2.7514
2.72171
2.69196
2.66206
2.63224
2.60246
2.57296
2.54367
2.51485
2.48639
2.45862
2.43144
2.40525
2.3802
2.35646
2.33537
2.31598
2.30113
5.6205
5.899
5.86701
5.74269
5.4756
5.1631
4.89167
4.6492
4.4242
4.21307
4.01475
3.82949
3.66105
3.51746
3.41958
3.42424
3.46513
3.59558
3.90654
4.55847
5.29899
5.55459
5.53472
5.45241
5.26863
5.02921
4.8189
4.64318
4.49106
4.3524
4.22174
4.09711
3.9785
3.8683
3.76925
3.68804
3.63333
3.58887
3.56309
3.56872
3.59848
3.67543
3.83055
4.04889
4.26681
4.43346
4.45292
4.43205
4.36878
4.23267
4.04923
3.87176
3.70174
3.5511
3.41956
3.30452
3.20414
3.11648
3.04067
2.97694
2.92221
2.87696
2.84328
2.8226
2.81614
2.81746
2.82269
2.83503
2.85962
2.88492
2.90625
2.92044
2.92443
2.92312
2.91824
2.90722
2.88481
2.85872
2.8306
2.80194
2.77347
2.74517
2.71711
2.689
2.66094
2.63276
2.60469
2.57661
2.54884
2.52126
2.49429
2.4678
2.44233
2.41788
2.39495
2.37424
2.35576
2.33872
2.32167
2.31314
4.73932
5.68072
5.77712
5.72292
5.5741
5.27402
4.98886
4.74005
4.51599
4.30821
4.11313
3.93588
3.78579
3.68454
3.68981
3.73465
3.87683
4.215
4.92321
5.70553
5.96012
5.93508
5.83499
5.61669
5.35366
5.12527
4.93488
4.76953
4.61808
4.47439
4.33569
4.20159
4.07239
3.94931
3.83385
3.72886
3.63637
3.56867
3.51128
3.46776
3.44696
3.4546
3.48689
3.56357
3.71545
3.91593
4.09269
4.22963
4.22784
4.20584
4.14458
4.01305
3.83406
3.66713
3.51432
3.37886
3.25779
3.15257
3.0615
2.98319
2.91644
2.85926
2.81034
2.77302
2.74824
2.73443
2.73477
2.73766
2.74582
2.76293
2.78709
2.81048
2.8276
2.83776
2.83742
2.83495
2.82795
2.81307
2.78959
2.7633
2.73615
2.7089
2.68199
2.65526
2.62887
2.60252
2.57644
2.55042
2.52484
2.49958
2.47524
2.45183
2.42999
2.41042
2.39333
2.37757
2.36208
2.35122
2.34093
2.34156
3.13336
5.16833
5.65713
5.65281
5.57902
5.39967
5.10521
4.84108
4.6106
4.40349
4.21769
4.06221
3.95819
3.96462
4.01538
4.17388
4.54819
5.32804
6.14254
6.382
6.35151
6.23351
5.98241
5.69668
5.451
5.24622
5.06776
4.90364
4.74713
4.59548
4.44796
4.3048
4.16664
4.03401
3.90788
3.78909
3.67945
3.58127
3.49993
3.43497
3.37765
3.33513
3.31971
3.32826
3.36056
3.43474
3.57865
3.7578
3.90624
4.01997
4.01416
3.98769
3.92638
3.80326
3.64407
3.48459
3.33642
3.21102
3.10256
3.0076
2.92513
2.85419
2.79497
2.74424
2.70395
2.67543
2.65781
2.65361
2.65504
2.66028
2.67203
2.69457
2.71748
2.73698