/*--------------------------------*- C++ -*----------------------------------*\
| =========                 |                                                 |
| \\      /  F ield         | OpenFOAM: The Open Source CFD Toolbox           |
|  \\    /   O peration     | Version:  2412                                  |
|   \\  /    A nd           | Website:  www.openfoam.com                      |
|    \\/     M anipulation  |                                                 |
\*---------------------------------------------------------------------------*/
FoamFile
{
    version     2.0;
    format      ascii;
    arch        "LSB;label=32;scalar=64";
    class       surfaceScalarField;
    location    "3.5";
    object      phi;
}
// * * * * * * * * * * * * * * * * * * * * * * * * * * * * * * * * * * * * * //

dimensions      [1 0 -1 0 0 0 0];

oriented        oriented;

internalField   nonuniform List<scalar> 
10325
(
0.00840003
8.70986e-11
0.00840003
6.74426e-10
0.00840003
2.07522e-09
0.00840002
6.26478e-09
0.00840001
1.48039e-08
0.00839998
3.99139e-08
0.0083999
8.79884e-08
0.00839971
2.45047e-07
0.00839929
5.12835e-07
0.008398
1.58062e-06
0.00839527
3.37206e-06
0.00838483
1.22297e-05
0.00835503
3.28791e-05
0.0082257
0.000141789
0.00759369
0.000669434
0.00687136
0.000712953
0.00621135
0.000654036
0.00554436
0.000664058
0.00485664
0.000684816
0.0041334
0.000719668
0.00336809
0.000762159
0.0025608
0.000803388
0.00172051
0.000836498
0.000858212
0.000859383
0.000855078
0.00840003
1.71495e-10
0.00840003
1.33035e-09
0.00840003
4.06901e-09
0.00840002
1.23234e-08
0.00840001
2.90175e-08
0.00839998
7.88561e-08
0.00839991
1.72743e-07
0.00839971
4.8884e-07
0.0083993
1.01626e-06
0.00839799
3.19517e-06
0.00839515
6.81692e-06
0.0083842
2.49961e-05
0.00835292
6.7233e-05
0.00822283
0.000284132
0.00760378
0.00132617
0.00686651
0.00144056
0.00621638
0.0012982
0.00555935
0.00131803
0.0048771
0.00136427
0.00414858
0.00144462
0.00337843
0.00152917
0.00256909
0.00160911
0.00172536
0.00167671
0.000859129
0.00172267
0.00171109
0.00840003
2.36412e-10
0.00840003
1.82974e-09
0.00840003
5.61569e-09
0.00840002
1.69745e-08
0.00840001
3.98083e-08
0.00839999
1.09635e-07
0.00839995
2.30681e-07
0.00839978
7.08376e-07
0.00839954
1.33962e-06
0.00839818
4.86008e-06
0.00839582
9.76762e-06
0.00838545
3.71756e-05
0.00835589
9.98928e-05
0.00823761
0.000414187
0.00768539
0.00191657
0.00693642
0.00217931
0.00628409
0.00194439
0.00563328
0.0019657
0.00495573
0.00203899
0.00422832
0.00216855
0.00345305
0.00230146
0.00263412
0.00242394
0.00177676
0.00253046
0.000890107
0.00260647
0.00259829
0.00840003
2.90086e-10
0.00840003
2.24779e-09
0.00840003
6.91201e-09
0.00840002
2.09045e-08
0.00840002
4.89761e-08
0.0084
1.35985e-07
0.00839996
2.80446e-07
0.00839982
8.98893e-07
0.00839961
1.60655e-06
0.00839848
6.30928e-06
0.00839641
1.22826e-05
0.00838797
4.73987e-05
0.00836371
0.00012724
0.00827064
0.000518258
0.00785512
0.00237064
0.0070989
0.00292487
0.00643471
0.00260227
0.00578221
0.00261501
0.00510699
0.0027113
0.00437753
0.00289456
0.00359843
0.00307736
0.00276772
0.00325111
0.00188063
0.00341394
0.000947527
0.00353754
0.0035435
0.00840003
3.4366e-10
0.00840003
2.6617e-09
0.00840003
8.15448e-09
0.00840002
2.46936e-08
0.00840002
5.79347e-08
0.0084
1.60083e-07
0.00839996
3.35563e-07
0.00839985
1.04512e-06
0.00839961
1.90569e-06
0.00839899
7.24142e-06
0.00839752
1.41748e-05
0.00839272
5.38926e-05
0.00837901
0.000143966
0.00833143
0.000575396
0.00815999
0.00257959
0.00739721
0.0036776
0.00668974
0.00330344
0.0060227
0.00327885
0.00535003
0.00338139
0.00461789
0.0036233
0.00382162
0.00387044
0.00296775
0.00410186
0.00204726
0.00433165
0.00104754
0.00453507
0.00458935
0.00840003
3.70807e-10
0.00840003
2.8677e-09
0.00840003
8.7778e-09
0.00840003
2.65473e-08
0.00840002
6.2423e-08
0.00840002
1.70508e-07
0.0084
3.65435e-07
0.00839999
1.09135e-06
0.00839992
2.02824e-06
0.00839992
7.5051e-06
0.00839989
1.45752e-05
0.0084012
5.40804e-05
0.00839925
0.000148623
0.00841229
0.0005705
0.00866046
0.00236621
0.00788912
0.00444388
0.00707652
0.00411068
0.00637825
0.00397361
0.00569331
0.00406364
0.00495823
0.00435537
0.00415307
0.00467309
0.00326253
0.00499003
0.00227981
0.00531207
0.00119207
0.00562119
0.00578027
0.00840003
3.57136e-10
0.00840003
2.75758e-09
0.00840003
8.51142e-09
0.00840003
2.55348e-08
0.00840003
6.04038e-08
0.00840005
1.60105e-07
0.00840007
3.5584e-07
0.00840022
9.64336e-07
0.00840032
1.97824e-06
0.00840164
6.36269e-06
0.00840436
1.22116e-05
0.00841431
4.50477e-05
0.00844569
0.000119695
0.00859039
0.000426166
0.00931976
0.00165815
0.00862053
0.00514926
0.00764232
0.00508862
0.00690916
0.00470382
0.00618929
0.00478039
0.00542068
0.00511936
0.00458899
0.00550195
0.00366719
0.00590921
0.00262888
0.00634953
0.0014207
0.00682849
0.00720047
0.00840003
3.57582e-10
0.00840003
2.76095e-09
0.00840003
8.56969e-09
0.00840003
2.55921e-08
0.00840003
6.0447e-08
0.00840004
1.58641e-07
0.00840004
3.52468e-07
0.00840009
9.31971e-07
0.0084002
1.91711e-06
0.00840073
5.95317e-06
0.00840211
1.10557e-05
0.00840748
4.02533e-05
0.00842523
0.000104018
0.00851303
0.000340931
0.00883282
0.0013554
0.00864517
0.00535408
0.00799996
0.00573873
0.0073512
0.00535026
0.0066286
0.00550213
0.00592976
0.00581815
0.00510818
0.00632189
0.00416802
0.00684638
0.00308194
0.00743346
0.00176228
0.00814804
0.0089631
0.00840003
3.6411e-10
0.00840003
3.39193e-09
0.00840003
1.02595e-08
0.00840002
3.11593e-08
0.00840001
7.32039e-08
0.00839998
1.95732e-07
0.0083999
4.28263e-07
0.00839971
1.14479e-06
0.00839931
2.34527e-06
0.00839873
6.63685e-06
0.00839748
1.24849e-05
0.00839613
4.21232e-05
0.00840936
9.20528e-05
0.00840013
0.000352705
0.00862507
0.00114174
0.00853389
0.00546375
0.00825069
0.00602507
0.00763045
0.00596835
0.00699939
0.00612989
0.00635056
0.00646443
0.00562299
0.00704845
0.00477297
0.00769363
0.00374912
0.00845425
0.00234092
0.00955542
0.0113053
0.00840003
1.68808e-10
0.00840003
5.0273e-09
0.00840003
7.82096e-09
0.00840002
4.35115e-08
0.00840004
5.6166e-08
0.00839995
2.7967e-07
0.00840009
3.01264e-07
0.00839951
1.73221e-06
0.00840051
1.37237e-06
0.00839673
1.0501e-05
0.0084036
5.79797e-06
0.00837774
6.84275e-05
0.00842754
4.33113e-05
0.00830861
0.000474191
0.00854835
0.000909688
0.00857412
0.00545689
0.00823287
0.0063656
0.00780798
0.00639053
0.00735041
0.00658458
0.0067953
0.0070158
0.00620533
0.00763708
0.00552018
0.00837735
0.00459001
0.00938214
0.00324724
0.0108957
0.014554
0.00840003
5.64775e-10
0.00840003
8.95781e-10
0.00840003
8.45613e-09
0.00840007
9.77373e-09
0.00840006
6.02884e-08
0.00840029
5.84558e-08
0.00840019
4.03373e-07
0.00840164
2.95863e-07
0.00840014
2.8777e-06
0.00840909
1.56104e-06
0.00839465
2.0246e-05
0.00845157
1.10653e-05
0.00834399
0.000151274
0.00864453
0.000175603
0.00836047
0.00120054
0.00859481
0.00524253
0.00830218
0.00665641
0.00795061
0.00673959
0.00761496
0.00691684
0.00723054
0.00739675
0.00682695
0.00803786
0.00636027
0.00884178
0.00592399
0.00981683
0.00589449
0.0109236
0.011606
0.00884238
0.00840003
3.02571e-10
0.00840003
1.62604e-09
0.00840003
5.58506e-09
0.00840003
1.54744e-08
0.00840005
3.93009e-08
0.00840001
9.60382e-08
0.00840018
2.39822e-07
0.0083999
5.74887e-07
0.00840138
1.43605e-06
0.00839901
4.09254e-06
0.00841019
9.32933e-06
0.00839154
3.10219e-05
0.0084674
7.66915e-05
0.0083243
0.000320276
0.00864659
0.000883542
0.00899499
0.00491469
0.0085977
0.00705148
0.00820144
0.00713355
0.00788982
0.00722634
0.00761359
0.00766992
0.00733309
0.00831535
0.00709624
0.00907575
0.00702015
0.00989077
0.00743995
0.0105025
0.0105258
0.00852057
0.00840003
2.82846e-10
0.00840003
2.19676e-09
0.00840003
6.71077e-09
0.00840002
2.03474e-08
0.00840002
4.81256e-08
0.00839998
1.29329e-07
0.00839993
2.91062e-07
0.00839975
7.72673e-07
0.00839949
1.70348e-06
0.00839892
4.73075e-06
0.00839831
1.00144e-05
0.0083965
3.32237e-05
0.00840541
6.83704e-05
0.00843848
0.000289022
0.00854502
0.000780913
0.00958928
0.00389072
0.00909822
0.00754224
0.00856739
0.00766329
0.00823991
0.00755236
0.00802434
0.00788283
0.00787307
0.00846289
0.00782452
0.00912135
0.00798363
0.00972948
0.00846962
0.010015
0.00982184
0.00917377
0.00840003
2.85153e-10
0.00840003
2.21547e-09
0.00840003
6.79268e-09
0.00840003
2.05373e-08
0.00840003
4.86554e-08
0.00840003
1.30033e-07
0.00840003
2.93303e-07
0.00840004
7.67934e-07
0.00840004
1.71547e-06
0.00840032
4.49987e-06
0.00840017
1.02553e-05
0.00840714
2.65196e-05
0.0084067
6.93184e-05
0.00849429
0.000202653
0.00869632
0.000582377
0.0101497
0.00244583
0.00973806
0.00796183
0.00927927
0.00812575
0.00874175
0.00808887
0.0084713
0.00815167
0.00838438
0.00854712
0.00845498
0.00904688
0.00867769
0.00950439
0.00907929
0.0096119
0.00928779
0.00961312
0.00840003
2.62894e-10
0.00840003
2.04002e-09
0.00840003
6.23482e-09
0.00840003
1.88469e-08
0.00840004
4.46577e-08
0.00840005
1.19077e-07
0.00840008
2.69168e-07
0.00840016
6.92833e-07
0.00840028
1.60128e-06
0.00840101
3.82025e-06
0.00840168
9.65129e-06
0.00840658
2.18149e-05
0.00841918
5.73572e-05
0.00846528
0.000157918
0.00854514
0.000502446
0.00915608
0.00184295
0.0098321
0.0073024
0.00957041
0.00838851
0.00915188
0.00850757
0.00891324
0.00838818
0.00884749
0.00861096
0.00895415
0.00893778
0.00921232
0.00924376
0.00954361
0.00927848
0.00890732
0.00992343
0.00840003
1.99741e-10
0.00840003
1.54497e-09
0.00840003
4.80786e-09
0.00840004
1.43741e-08
0.00840005
3.41184e-08
0.00840008
8.9487e-08
0.00840015
2.00641e-07
0.00840032
5.2219e-07
0.00840083
1.10684e-06
0.00840147
3.20068e-06
0.00840509
6.08447e-06
0.00840616
2.09021e-05
0.00842352
4.03451e-05
0.00843527
0.000147029
0.00855545
0.000384115
0.00882154
0.00158175
0.00974052
0.00640335
0.00966632
0.0084638
0.00949746
0.00867627
0.00928879
0.00859464
0.00923062
0.00866721
0.0093139
0.00885256
0.00956246
0.00899298
0.00987608
0.00896281
0.00860836
0.0101736
0.00840003
1.77919e-10
0.00840003
1.37693e-09
0.00840003
4.23161e-09
0.00840003
1.27271e-08
0.00840004
3.01021e-08
0.00840005
7.97092e-08
0.00840007
1.78692e-07
0.00840013
4.6466e-07
0.00840023
1.01844e-06
0.0084007
2.75669e-06
0.00840113
5.69241e-06
0.00840431
1.78739e-05
0.00840934
3.55984e-05
0.00842945
0.000127789
0.00848234
0.000332518
0.00876256
0.00131015
0.010229
0.00495161
0.0100857
0.00860803
0.009878
0.00888382
0.00966121
0.00880945
0.00963256
0.00869447
0.00969675
0.00878669
0.00985435
0.00883339
0.0100988
0.00871627
0.00836613
0.0103396
0.00840003
1.44066e-10
0.00840003
1.16496e-09
0.00840003
3.6166e-09
0.00840003
1.07574e-08
0.00840004
2.57537e-08
0.00840005
6.72432e-08
0.00840008
1.52961e-07
0.00840015
3.89892e-07
0.0084003
8.73925e-07
0.00840082
2.25576e-06
0.00840164
4.9162e-06
0.00840595
1.37189e-05
0.00841318
2.85334e-05
0.00845132
9.04137e-05
0.00855513
0.000231524
0.00906001
0.000797647
0.011333
0.00270706
0.0109455
0.00899453
0.0106189
0.00920784
0.0102266
0.00919956
0.0100362
0.00888312
0.0100639
0.00875821
0.0101758
0.00872025
0.010327
0.0085629
0.00820653
0.0104849
0.00840003
5.80563e-11
0.00840003
1.19971e-09
0.00840003
2.30396e-09
0.00840003
1.05062e-08
0.00840004
1.69417e-08
0.00840004
6.52602e-08
0.0084001
1.01506e-07
0.00840011
3.80374e-07
0.00840041
5.71536e-07
0.00840043
2.25593e-06
0.00840244
2.93345e-06
0.00840191
1.43281e-05
0.00841664
1.3988e-05
0.00841124
9.61694e-05
0.00853715
0.000106975
0.00862309
0.000713297
0.00957911
0.00176047
0.0111069
0.00748084
0.0109916
0.00932495
0.0107237
0.00946744
0.010429
0.00917603
0.0103594
0.00882627
0.0104347
0.00864412
0.0105501
0.00844603
0.00810412
0.0106508
0.00840003
1.0317e-10
0.00840003
6.01074e-10
0.00840003
2.20322e-09
0.00840004
5.72636e-09
0.00840004
1.5529e-08
0.00840007
3.57068e-08
0.00840008
9.13606e-08
0.00840026
2.03996e-07
0.0084003
5.31526e-07
0.00840144
1.12195e-06
0.0084011
3.29122e-06
0.00840917
6.32913e-06
0.00840224
2.10331e-05
0.00845629
4.2505e-05
0.00841624
0.000147808
0.00874542
0.00038591
0.00895565
0.00155443
0.0109527
0.00550012
0.011189
0.00909006
0.0111135
0.00954329
0.0108583
0.00943021
0.0106854
0.00899629
0.0106602
0.00866793
0.0107233
0.00838153
0.00803119
0.0107947
0.00840003
1.24594e-10
0.00840003
3.64239e-10
0.00840003
2.12081e-09
0.00840003
3.71653e-09
0.00840003
1.46234e-08
0.00840005
2.3506e-08
0.00840005
8.58839e-08
0.00840012
1.34449e-07
0.00840017
4.90265e-07
0.00840055
7.4386e-07
0.008401
2.85746e-06
0.00840337
3.99742e-06
0.00840652
1.8019e-05
0.00842646
2.25921e-05
0.0084518
0.000123553
0.00863259
0.000205551
0.00927656
0.000916948
0.0116645
0.00312868
0.0117817
0.00897564
0.0116992
0.00962419
0.0114251
0.00970305
0.0111316
0.00928745
0.0109915
0.00880617
0.0109497
0.00842239
0.00802594
0.0109538
0.00840003
4.37221e-11
0.00840003
4.82939e-10
0.00840003
1.10088e-09
0.00840003
4.35104e-09
0.00840004
7.94247e-09
0.00840003
2.7124e-08
0.00840007
4.73895e-08
0.00840005
1.57191e-07
0.00840027
2.71292e-07
0.00840012
9.01146e-07
0.00840145
1.54039e-06
0.00840024
5.24781e-06
0.00840956
8.78485e-06
0.00839986
3.24831e-05
0.00847042
5.36055e-05
0.00844994
0.000227422
0.00887153
0.000494541
0.0100436
0.00196325
0.0117466
0.00728367
0.0118291
0.0095417
0.0117271
0.00980415
0.0114243
0.00958812
0.0113098
0.00891872
0.0112312
0.00849961
0.00807931
0.0111769
0.00840003
6.23539e-11
0.00840003
2.42107e-10
0.00840003
1.19753e-09
0.00840003
2.38846e-09
0.00840003
8.37869e-09
0.00840004
1.51864e-08
0.00840004
4.97669e-08
0.00840011
8.85436e-08
0.0084001
2.86425e-07
0.00840049
5.06853e-07
0.00840039
1.65314e-06
0.00840279
2.86796e-06
0.00840167
9.95519e-06
0.00841816
1.6049e-05
0.00840693
6.51806e-05
0.00852928
0.000105486
0.00853147
0.000493803
0.00926174
0.00123633
0.0118545
0.00470564
0.0120493
0.0093507
0.0120442
0.0098091
0.0118941
0.00973731
0.011564
0.00924711
0.011456
0.00860611
0.00814883
0.0113854
0.00840003
2.25561e-11
0.00840003
2.61736e-10
0.00840003
5.97587e-10
0.00840003
2.35303e-09
0.00840003
4.33247e-09
0.00840004
1.4635e-08
0.00840006
2.58905e-08
0.00840006
8.45192e-08
0.0084002
1.48143e-07
0.00840023
4.81726e-07
0.00840105
8.37785e-07
0.00840114
2.78834e-06
0.00840648
4.65783e-06
0.00840544
1.71588e-05
0.00844471
2.61337e-05
0.00843555
0.000115007
0.00873563
0.000194998
0.00907771
0.000896403
0.0112697
0.00252096
0.0125459
0.00808249
0.0125205
0.00983551
0.0122894
0.00996934
0.0118859
0.0096506
0.011703
0.0087875
0.00827698
0.0115735
0.00840003
2.48758e-11
0.00840003
1.42586e-10
0.00840003
5.295e-10
0.00840003
1.35786e-09
0.00840003
3.73139e-09
0.00840004
8.50187e-09
0.00840004
2.20163e-08
0.00840008
4.88637e-08
0.0084001
1.25106e-07
0.00840031
2.755e-07
0.00840044
7.10244e-07
0.0084017
1.53764e-06
0.00840223
4.16195e-06
0.00841085
8.57463e-06
0.0084112
2.5945e-05
0.00847415
5.25783e-05
0.00848761
0.000182214
0.00894416
0.000443103
0.0096104
0.00185462
0.0120698
0.00564438
0.0125389
0.00937076
0.0126753
0.00983531
0.0125278
0.00979831
0.0120762
0.00923696
0.0085365
0.0118151
0.00840003
2.52875e-11
0.00840003
8.43294e-11
0.00840003
4.43412e-10
0.00840003
8.49655e-10
0.00840003
3.06247e-09
0.00840003
5.37431e-09
0.00840004
1.7926e-08
0.00840006
3.08631e-08
0.00840008
1.01253e-07
0.00840019
1.72874e-07
0.00840032
5.69291e-07
0.00840089
9.59921e-07
0.00840172
3.24734e-06
0.00840517
5.26223e-06
0.00841218
1.9483e-05
0.00843178
2.94931e-05
0.00849111
0.000126213
0.00868574
0.000236566
0.00962388
0.000946169
0.0122424
0.00303402
0.0129889
0.00862433
0.0130222
0.00980172
0.0128389
0.00998166
0.0124921
0.00958323
0.00881874
0.0122086
0.00840003
8.9125e-12
0.00840003
9.06596e-11
0.00840003
2.19401e-10
0.00840003
8.19548e-10
0.00840003
1.57616e-09
0.00840003
5.08225e-09
0.00840004
9.34537e-09
0.00840004
2.91467e-08
0.00840009
5.30215e-08
0.0084001
1.64355e-07
0.00840038
2.97543e-07
0.00840041
9.26295e-07
0.008402
1.66924e-06
0.00840198
5.28655e-06
0.00841211
9.4733e-06
0.00841023
3.15339e-05
0.00847986
5.7158e-05
0.0085065
0.000211495
0.00895859
0.000495207
0.0101925
0.00180392
0.0126525
0.00617244
0.0129933
0.00946161
0.0132091
0.00976657
0.012981
0.00981148
0.00919195
0.012605
0.00840003
1.08831e-11
0.00840003
4.22661e-11
0.00840003
2.04954e-10
0.00840003
4.18338e-10
0.00840003
1.42749e-09
0.00840003
2.64665e-09
0.00840003
8.39874e-09
0.00840005
1.52858e-08
0.00840005
4.76645e-08
0.00840013
8.64348e-08
0.00840016
2.68793e-07
0.00840061
4.86543e-07
0.00840077
1.52156e-06
0.00840334
2.73305e-06
0.00840405
8.83531e-06
0.00842035
1.53428e-05
0.00842316
5.47471e-05
0.0085408
9.44859e-05
0.00864949
0.000388312
0.00953317
0.000922697
0.0124708
0.00325224
0.0132848
0.00865254
0.0133677
0.00968466
0.0132535
0.00992543
0.00958062
0.0128628
0.00840003
5.0875e-12
0.00840003
3.61012e-11
0.00840003
1.12479e-10
0.00840003
3.36344e-10
0.00840003
7.98292e-10
0.00840003
2.09188e-09
0.00840004
4.70286e-09
0.00840004
1.19492e-08
0.00840006
2.655e-08
0.00840008
6.68973e-08
0.0084002
1.48204e-07
0.00840032
3.72832e-07
0.00840102
8.25147e-07
0.00840166
2.10332e-06
0.00840597
4.56102e-06
0.00840888
1.2504e-05
0.00843821
2.56153e-05
0.00845266
8.04356e-05
0.00867159
0.000170385
0.0089551
0.000640912
0.0104627
0.00175028
0.0129799
0.00614616
0.0133131
0.00935264
0.0135127
0.009725
0.00972122
0.0133706
0.00840003
2.13875e-12
0.00840003
2.93687e-11
0.00840003
6.71757e-11
0.00840003
2.60572e-10
0.00840003
4.86429e-10
0.00840003
1.60344e-09
0.00840003
2.88359e-09
0.00840004
9.14765e-09
0.00840005
1.63421e-08
0.00840006
5.13279e-08
0.00840012
9.15567e-08
0.00840021
2.87313e-07
0.00840052
5.1067e-07
0.00840102
1.61607e-06
0.00840277
2.82287e-06
0.00840598
9.35216e-06
0.00841637
1.53208e-05
0.00843966
5.74898e-05
0.00851646
9.40946e-05
0.00876671
0.000392255
0.00957671
0.000942978
0.012549
0.00318674
0.0135362
0.00836951
0.0136385
0.00962326
0.00975835
0.0136016
0.00840003
2.525e-12
0.00840003
1.45787e-11
0.00840003
5.37657e-11
0.00840003
1.38911e-10
0.00840003
3.78043e-10
0.00840003
8.65799e-10
0.00840003
2.21249e-09
0.00840004
4.93914e-09
0.00840004
1.2421e-08
0.00840006
2.75829e-08
0.00840009
6.90122e-08
0.00840022
1.53053e-07
0.00840035
3.82537e-07
0.00840113
8.47669e-07
0.00840181
2.14682e-06
0.00840654
4.65968e-06
0.00840925
1.26697e-05
0.00844094
2.59797e-05
0.00845459
8.07563e-05
0.00867797
0.000169957
0.00898929
0.000633026
0.0104822
0.00169926
0.013137
0.00572467
0.0136323
0.00912938
0.00959173
0.013799
0.00840003
2.23295e-12
0.00840003
8.2267e-12
0.00840003
4.00782e-11
0.00840003
8.19133e-11
0.00840003
2.7656e-10
0.00840003
5.15307e-10
0.00840003
1.61081e-09
0.00840003
2.9471e-09
0.00840004
9.03476e-09
0.00840005
1.64753e-08
0.00840007
5.02393e-08
0.00840013
9.14888e-08
0.00840023
2.79054e-07
0.00840058
5.0622e-07
0.00840118
1.55704e-06
0.00840307
2.77588e-06
0.00840688
8.91648e-06
0.00841793
1.49988e-05
0.00844531
5.36939e-05
0.00852422
9.14432e-05
0.00880457
0.000354142
0.00965074
0.000855364
0.0126227
0.00276512
0.013805
0.00795149
0.0095281
0.0138688
0.00840003
7.37454e-13
0.00840003
7.37857e-12
0.00840003
1.84783e-11
0.00840003
6.66671e-11
0.00840003
1.32339e-10
0.00840003
4.10225e-10
0.00840003
7.78249e-10
0.00840003
2.32536e-09
0.00840004
4.37155e-09
0.00840004
1.29282e-08
0.00840007
2.4268e-08
0.00840009
7.15359e-08
0.00840023
1.34137e-07
0.00840034
3.95783e-07
0.00840117
7.39778e-07
0.00840174
2.21403e-06
0.00840663
4.04133e-06
0.00840873
1.29506e-05
0.00844043
2.21363e-05
0.00845016
8.19506e-05
0.00866169
0.000143366
0.00891944
0.000598684
0.0100918
0.00159597
0.0131998
0.00485297
0.00879433
0.0139363
0.00840003
6.24847e-13
0.00840003
3.71348e-12
0.00840003
1.36169e-11
0.00840003
3.51983e-11
0.00840003
9.55935e-11
0.00840003
2.18542e-10
0.00840003
5.57612e-10
0.00840003
1.24021e-09
0.00840003
3.11627e-09
0.00840004
6.88388e-09
0.00840005
1.72273e-08
0.00840008
3.7967e-08
0.00840012
9.49386e-08
0.00840031
2.08877e-07
0.00840053
5.23056e-07
0.00840159
1.15187e-06
0.00840275
2.90065e-06
0.00840932
6.41318e-06
0.00841486
1.6644e-05
0.00846026
3.68457e-05
0.00850143
0.000102421
0.00884553
0.000255907
0.00963342
0.000809286
0.0121754
0.00231671
0.00700919
0.0139666
0.00840003
4.33926e-13
0.00840003
2.36015e-12
0.00840003
8.6999e-12
0.00840003
2.24825e-11
0.00840003
6.07806e-11
0.00840003
1.39633e-10
0.00840003
3.53836e-10
0.00840003
7.91563e-10
0.00840003
1.97489e-09
0.00840003
4.39003e-09
0.00840004
1.09077e-08
0.00840005
2.42081e-08
0.00840009
6.00663e-08
0.00840017
1.33198e-07
0.00840036
3.30481e-07
0.00840078
7.31671e-07
0.00840187
1.82311e-06
0.00840428
4.01678e-06
0.00841069
1.02834e-05
0.00842564
2.19972e-05
0.00846547
6.28731e-05
0.00858994
0.000131906
0.00894042
0.000459972
0.0100356
0.00122409
0.00404983
0.013006
0.00840003
3.40092e-13
0.00840003
1.27089e-12
0.00840003
6.07135e-12
0.00840003
1.26745e-11
0.00840003
4.18271e-11
0.00840003
7.94715e-11
0.00840003
2.42398e-10
0.00840003
4.51856e-10
0.00840003
1.35067e-09
0.00840003
2.50954e-09
0.00840004
7.45617e-09
0.00840005
1.3854e-08
0.00840007
4.10753e-08
0.00840012
7.63101e-08
0.00840023
2.26357e-07
0.00840054
4.19661e-07
0.00840112
1.25119e-06
0.00840284
2.30706e-06
0.00840616
6.98823e-06
0.00841541
1.28048e-05
0.00843822
4.02304e-05
0.00849391
7.65407e-05
0.00870044
0.000254281
0.00929529
0.000630129
0.0020317
0.0113175
0.00840003
1.37838e-13
0.00840003
9.75354e-13
0.00840003
3.05368e-12
0.00840003
9.07249e-12
0.00840003
2.15461e-11
0.00840003
5.59751e-11
0.00840003
1.25557e-10
0.00840003
3.16011e-10
0.00840003
6.99511e-10
0.00840003
1.7459e-09
0.00840004
3.85316e-09
0.00840004
9.59005e-09
0.00840006
2.1154e-08
0.00840008
5.25739e-08
0.00840019
1.15966e-07
0.00840033
2.88007e-07
0.00840095
6.35364e-07
0.00840168
1.58088e-06
0.0084052
3.48471e-06
0.00840924
8.80694e-06
0.00843027
1.92914e-05
0.00845523
5.18255e-05
0.00859494
0.000115022
0.00887814
0.000348146
0.000958108
0.00995398
0.00840003
5.95712e-14
0.00840003
6.79237e-13
0.00840003
1.68052e-12
0.00840003
6.05868e-12
0.00840003
1.20274e-11
0.00840003
3.69578e-11
0.00840003
7.02683e-11
0.00840003
2.07651e-10
0.00840003
3.91255e-10
0.00840003
1.14358e-09
0.00840003
2.15163e-09
0.00840004
6.26431e-09
0.00840005
1.17864e-08
0.00840006
3.4258e-08
0.00840012
6.44149e-08
0.00840022
1.87289e-07
0.0084005
3.51193e-07
0.00840106
1.02533e-06
0.00840264
1.91105e-06
0.00840582
5.65979e-06
0.0084147
1.04625e-05
0.00843483
3.18376e-05
0.00848865
6.1577e-05
0.00864613
0.000191501
0.000474102
0.00913029
0.00840003
6.5638e-14
0.00840003
2.87094e-13
0.00840003
1.27115e-12
0.00840003
2.80108e-12
0.00840003
8.79504e-12
0.00840003
1.74282e-11
0.00840003
5.081e-11
0.00840003
9.84334e-11
0.00840003
2.81429e-10
0.00840003
5.4265e-10
0.00840003
1.54217e-09
0.00840004
2.97193e-09
0.00840004
8.42492e-09
0.00840006
1.62385e-08
0.00840008
4.59803e-08
0.00840017
8.86037e-08
0.00840027
2.51001e-07
0.00840082
4.83247e-07
0.00840136
1.37464e-06
0.00840439
2.64073e-06
0.00840727
7.60428e-06
0.0084245
1.46782e-05
0.00844276
4.34495e-05
0.00854712
8.75639e-05
0.00027618
0.00874568
0.00840003
2.87637e-14
0.00840003
2.02724e-13
0.00840003
6.34051e-13
0.00840003
1.88316e-12
0.00840003
4.46525e-12
0.00840003
1.15798e-11
0.00840003
2.59085e-11
0.00840003
6.50288e-11
0.00840003
1.43478e-10
0.00840003
3.56972e-10
0.00840003
7.84899e-10
0.00840003
1.94725e-09
0.00840004
4.27808e-09
0.00840004
1.05986e-08
0.00840007
2.32813e-08
0.0084001
5.76198e-08
0.00840022
1.26563e-07
0.00840039
3.13086e-07
0.00840108
6.87841e-07
0.00840202
1.70458e-06
0.0084059
3.7423e-06
0.00841119
9.42524e-06
0.00843422
2.05111e-05
0.00846675
5.52676e-05
0.000120588
0.00862281
0.00840003
1.22534e-14
0.00840003
1.35201e-13
0.00840003
3.4081e-13
0.00840003
1.20625e-12
0.00840003
2.43348e-12
0.00840003
7.33535e-12
0.00840003
1.41556e-11
0.00840003
4.10054e-11
0.00840003
7.83704e-11
0.00840003
2.24463e-10
0.00840003
4.28274e-10
0.00840003
1.22167e-09
0.00840003
2.3314e-09
0.00840004
6.63672e-09
0.00840005
1.267e-08
0.00840007
3.60277e-08
0.00840013
6.87469e-08
0.00840025
1.95577e-07
0.00840056
3.72311e-07
0.00840121
1.06324e-06
0.00840294
2.01351e-06
0.00840657
5.82074e-06
0.00841615
1.09741e-05
0.00843922
3.23467e-05
6.39255e-05
0.00849609
0.00840003
1.23558e-14
0.00840003
5.70103e-14
0.00840003
2.45794e-13
0.00840003
5.52409e-13
0.00840003
1.69795e-12
0.00840003
3.42105e-12
0.00840003
9.76791e-12
0.00840003
1.92175e-11
0.00840003
5.37978e-11
0.00840003
1.05291e-10
0.00840003
2.92962e-10
0.00840003
5.72948e-10
0.00840003
1.5901e-09
0.00840004
3.11083e-09
0.00840004
8.62006e-09
0.00840006
1.6871e-08
0.00840008
4.67062e-08
0.00840019
9.14102e-08
0.00840031
2.53137e-07
0.00840087
4.95185e-07
0.00840152
1.37601e-06
0.00840466
2.6874e-06
0.0084081
7.54974e-06
0.00842568
1.48318e-05
4.26222e-05
0.0084471
0.00840003
4.33719e-15
0.00840003
4.1772e-14
0.00840003
1.0961e-13
0.00840003
3.767e-13
0.00840003
7.78936e-13
0.00840003
2.29211e-12
0.00840003
4.51462e-12
0.00840003
1.27768e-11
0.00840003
2.48877e-11
0.00840003
6.96453e-11
0.00840003
1.35347e-10
0.00840003
3.77205e-10
0.00840003
7.33016e-10
0.00840003
2.03826e-09
0.00840004
3.96317e-09
0.00840004
1.1e-08
0.00840007
2.1403e-08
0.0084001
5.93128e-08
0.00840024
1.15459e-07
0.00840041
3.19799e-07
0.00840117
6.22591e-07
0.00840213
1.72892e-06
0.00840634
3.35529e-06
0.00841168
9.51779e-06
1.81126e-05
0.00843625
0.00840003
3.38835e-15
0.00840003
1.90687e-14
0.00840003
6.99612e-14
0.00840003
1.80899e-13
0.00840003
4.86451e-13
0.00840003
1.11151e-12
0.00840003
2.79342e-12
0.00840003
6.19982e-12
0.00840003
1.53049e-11
0.00840003
3.37153e-11
0.00840003
8.2764e-11
0.00840003
1.81967e-10
0.00840003
4.45611e-10
0.00840003
9.79295e-10
0.00840003
2.39404e-09
0.00840004
5.26141e-09
0.00840005
1.28402e-08
0.00840008
2.82228e-08
0.00840013
6.87502e-08
0.00840029
1.51092e-07
0.00840055
3.67566e-07
0.00840147
8.07343e-07
0.00840285
1.97526e-06
0.00840808
4.2933e-06
1.0966e-05
0.00841522
0.00840003
2.31637e-15
0.00840003
8.938e-15
0.00840003
4.19221e-14
0.00840003
8.93885e-14
0.00840003
2.87393e-13
0.00840003
5.54134e-13
0.00840003
1.63923e-12
0.00840003
3.08704e-12
0.00840003
8.9355e-12
0.00840003
1.67038e-11
0.00840003
4.80973e-11
0.00840003
8.95754e-11
0.00840003
2.57762e-10
0.00840003
4.78559e-10
0.00840003
1.37837e-09
0.00840003
2.55039e-09
0.00840004
7.35873e-09
0.00840005
1.35569e-08
0.00840008
3.92274e-08
0.00840016
7.18179e-08
0.00840032
2.08858e-07
0.00840075
3.7877e-07
0.00840159
1.11253e-06
0.00840388
1.98568e-06
5.95952e-06
0.0084088
0.00840003
8.87609e-16
0.00840003
5.72101e-15
0.00840003
1.85363e-14
0.00840003
5.37214e-14
0.00840003
1.29061e-13
0.00840003
3.26177e-13
0.00840003
7.37537e-13
0.00840003
1.79507e-12
0.00840003
3.9981e-12
0.00840003
9.60572e-12
0.00840003
2.13223e-11
0.00840003
5.0889e-11
0.00840003
1.12971e-10
0.00840003
2.68158e-10
0.00840003
5.96091e-10
0.00840003
1.40689e-09
0.00840004
3.13344e-09
0.00840004
7.34622e-09
0.00840007
1.64011e-08
0.0084001
3.81259e-08
0.00840022
8.53805e-08
0.00840038
1.96157e-07
0.00840104
4.41534e-07
0.00840193
9.96968e-07
2.27063e-06
0.00840553
0.00840003
4.02727e-16
0.00840003
3.07504e-15
0.00840003
9.47885e-15
0.00840003
2.7769e-14
0.00840003
6.6504e-14
0.00840003
1.68176e-13
0.00840003
3.77324e-13
0.00840003
9.21357e-13
0.00840003
2.03262e-12
0.00840003
4.90412e-12
0.00840003
1.07642e-11
0.00840003
2.58265e-11
0.00840003
5.65735e-11
0.00840003
1.35254e-10
0.00840003
2.95837e-10
0.00840003
7.05298e-10
0.00840003
1.54034e-09
0.00840004
3.66459e-09
0.00840004
7.99463e-09
0.00840006
1.89877e-08
0.0084001
4.14015e-08
0.00840017
9.78438e-08
0.00840037
2.14498e-07
0.00840068
4.86972e-07
1.12039e-06
0.00840164
0.00840003
-1.55854e-17
0.00840003
2.00388e-15
0.00840003
3.26757e-15
0.00840003
1.64965e-14
0.00840003
2.398e-14
0.00840003
9.80729e-14
0.00840003
1.35564e-13
0.00840003
5.343e-13
0.00840003
7.10361e-13
0.00840003
2.84319e-12
0.00840003
3.63458e-12
0.00840003
1.50297e-11
0.00840003
1.84017e-11
0.00840003
7.93003e-11
0.00840003
9.24803e-11
0.00840003
4.18574e-10
0.00840003
4.61357e-10
0.00840003
2.21603e-09
0.00840004
2.27693e-09
0.00840004
1.17963e-08
0.00840007
1.08557e-08
0.00840008
6.40893e-08
0.00840023
4.48697e-08
0.00840021
3.7143e-07
1.02683e-07
0.00840111
0.00840003
1.56423e-16
0.00840003
6.71663e-17
0.00840003
2.85441e-15
0.00840003
2.6287e-15
0.00840003
1.87172e-14
0.00840003
1.63926e-14
0.00840003
1.03873e-13
0.00840003
8.44317e-14
0.00840003
5.58392e-13
0.00840003
4.11787e-13
0.00840003
2.95719e-12
0.00840003
1.93233e-12
0.00840003
1.55423e-11
0.00840003
8.71574e-12
0.00840003
8.11751e-11
0.00840003
3.71664e-11
0.00840003
4.21744e-10
0.00840003
1.26524e-10
0.00840003
2.19034e-09
0.00840004
1.01913e-10
0.00840003
1.16769e-08
0.00840009
-4.4214e-09
0.00840001
7.38958e-08
0.00840043
-9.80851e-08
5.77006e-07
0.00839956
0.00840003
0.00840003
0.00840003
0.00840003
0.00840003
0.00840003
0.00840003
0.00840003
0.00840003
0.00840003
0.00840003
0.00840003
0.00840003
0.00840003
0.00840003
0.00840003
0.00840003
0.00840003
0.00840003
0.00840003
0.00840004
0.00840001
0.00840006
0.00839983
0.00840028
0.0047496
0.00409393
0.00312333
0.0016271
0.00243279
0.00069097
0.00215906
0.000273754
0.0021354
2.3577e-05
0.00229125
-0.000156095
0.00248538
-0.000194735
0.00260124
-0.000116429
0.00264322
-4.26069e-05
0.00263947
3.07158e-06
0.00261503
2.35346e-05
0.00259997
1.40554e-05
0.00259567
2.93161e-06
0.00260177
-7.77753e-06
0.00260967
-1.05964e-05
0.00260842
-4.23966e-06
0.00257972
1.74264e-05
0.00249848
5.76754e-05
0.00231835
0.000135566
0.00189725
0.000310015
0.00101393
0.000717485
0.000190159
0.000783939
-0.000486923
0.000677195
-0.00107725
0.00058291
-0.00158351
0.000496577
-0.00198073
0.000401688
-0.00225956
0.00028551
-0.00243378
0.000169288
-0.00253035
9.70954e-05
-0.00259652
6.72251e-05
-0.00265936
5.98331e-05
-0.00269674
3.5067e-05
-0.002704
2.19383e-06
-0.00268316
-2.93946e-05
-0.00261258
-8.22221e-05
-0.00246708
-0.000160664
-0.00224562
-0.00023665
-0.00196671
-0.000294513
-0.00165203
-0.000328827
-0.00129858
-0.000365311
-0.000940401
-0.000367798
-0.000581713
-0.000366151
-0.00022173
-0.000365577
0.000139421
-0.000365373
0.000470348
-0.00033397
0.000776386
-0.000308426
0.00106358
-0.000289417
0.00133272
-0.000271615
0.00158297
-0.000253273
0.0018142
-0.000234605
0.00203276
-0.000222273
0.00224499
-0.000216392
0.0024448
-0.000204084
0.00263009
-0.000189813
0.0028025
-0.000177289
0.00296271
-0.000165345