/*--------------------------------*- C++ -*----------------------------------*\
| =========                 |                                                 |
| \\      /  F ield         | OpenFOAM: The Open Source CFD Toolbox           |
|  \\    /   O peration     | Version:  2412                                  |
|   \\  /    A nd           | Website:  www.openfoam.com                      |
|    \\/     M anipulation  |                                                 |
\*---------------------------------------------------------------------------*/
FoamFile
{
    version     2.0;
    format      ascii;
    arch        "LSB;label=32;scalar=64";
    class       volScalarField;
    location    "3.5";
    object      T;
}
// * * * * * * * * * * * * * * * * * * * * * * * * * * * * * * * * * * * * * //

dimensions      [0 0 0 1 0 0 0];

internalField   nonuniform List<scalar> 
5250
(
1.00001
1.00002
1.00006
1.00012
1.00038
1.0007
1.00205
1.00432
1.01104
1.02938
1.06559
1.20365
1.46792
2.25311
2.65391
2.73822
2.73439
2.73454
2.74873
2.76209
2.77503
2.78255
2.79029
2.79242
2.78841
1.00001
1.00002
1.00006
1.00012
1.00037
1.00069
1.00202
1.00425
1.01087
1.02888
1.06453
1.20001
1.45943
2.23836
2.64919
2.73827
2.73406
2.73394
2.74783
2.76092
2.77368
2.78101
2.78812
2.78955
2.78537
1.00001
1.00002
1.00006
1.00011
1.00036
1.00066
1.00195
1.0041
1.0105
1.02782
1.06234
1.19222
1.44097
2.20433
2.63658
2.73684
2.73242
2.73135
2.74531
2.75842
2.77057
2.7779
2.78571
2.78741
2.78264
1.00001
1.00002
1.00006
1.00011
1.00034
1.00063
1.00187
1.00387
1.01005
1.02608
1.05905
1.18021
1.41297
2.14906
2.61594
2.73354
2.72895
2.72589
2.74008
2.75327
2.76656
2.77365
2.77997
2.78254
2.77865
1.00001
1.00002
1.00006
1.0001
1.00032
1.00059
1.00179
1.00358
1.00952
1.02377
1.05481
1.1645
1.37661
2.06833
2.5869
2.72825
2.72439
2.71755
2.73237
2.74315
2.75615
2.76658
2.77444
2.77447
2.76956
1.00001
1.00001
1.00005
1.00009
1.0003
1.00054
1.00167
1.00325
1.00887
1.02113
1.0499
1.14646
1.33454
1.97239
2.54472
2.71592
2.71334
2.70718
2.72395
2.73546
2.74633
2.75128
2.76065
2.76568
2.76093
1.00001
1.00001
1.00005
1.00008
1.00027
1.00049
1.00154
1.0029
1.00821
1.01836
1.04506
1.12765
1.29176
1.80949
2.52541
2.69447
2.68705
2.68324
2.70146
2.71826
2.73536
2.74103
2.74696
2.7472
2.74199
1.00001
1.00001
1.00004
1.00008
1.00025
1.00045
1.00141
1.00262
1.00763
1.01627
1.04142
1.11218
1.26096
1.7074
2.5266
2.68259
2.67436
2.66747
2.68734
2.69481
2.71009
2.71766
2.72511
2.72824
2.71943
1.00001
1.00001
1.00004
1.00007
1.00022
1.0004
1.00128
1.00235
1.0071
1.0144
1.03832
1.09826
1.23423
1.64987
2.50511
2.65622
2.65108
2.65325
2.66101
2.67846
2.69333
2.69716
2.69618
2.68968
2.66794
1
1.00001
1.00003
1.00006
1.00019
1.00035
1.0011
1.00208
1.00606
1.01284
1.03326
1.08902
1.20427
1.59402
2.44548
2.63119
2.64582
2.6387
2.63869
2.64955
2.65926
2.6668
2.663
2.64517
2.58665
1
1.00001
1.00002
1.00006
1.00012
1.00033
1.00073
1.00179
1.00472
1.01054
1.03075
1.06409
1.21027
1.47655
2.24799
2.60214
2.65018
2.63657
2.62626
2.62755
2.63152
2.62794
2.61057
2.56279
2.36805
1
1.00001
1.00002
1.00005
1.00014
1.00027
1.00081
1.00158
1.00434
1.00995
1.02414
1.0681
1.14648
1.46495
2.17002
2.51772
2.63725
2.62844
2.61205
2.60439
2.60088
2.59171
2.56459
2.50436
2.30499
1
1.00001
1.00002
1.00004
1.00013
1.00023
1.00074
1.00135
1.00419
1.00803
1.02261
1.05273
1.12738
1.35844
2.0041
2.44998
2.61873
2.6117
2.60181
2.58488
2.57067
2.54731
2.51218
2.45544
2.30509
1
1.00001
1.00002
1.00003
1.00011
1.0002
1.00062
1.00112
1.00349
1.00659
1.0191
1.04118
1.10737
1.27039
1.81367
2.34709
2.57558
2.57175
2.5746
2.56764
2.55114
2.52311
2.47176
2.42291
2.31199
1
1
1.00001
1.00003
1.00009
1.00016
1.0005
1.00091
1.00281
1.00533
1.01502
1.03416
1.08192
1.22991
1.58998
2.30277
2.54664
2.546
2.54105
2.53535
2.5234
2.49907
2.4415
2.38774
2.30776
1
1
1.00001
1.00002
1.00007
1.00012
1.00039
1.00071
1.00209
1.0043
1.01107
1.0285
1.06431
1.19475
1.44388
2.14762
2.48991
2.5372
2.5197
2.51175
2.49482
2.47862
2.43533
2.36969
2.29711
1
1
1.00001
1.00002
1.00006
1.0001
1.00032
1.00057
1.00177
1.00336
1.0093
1.02149
1.05138
1.14897
1.34014
1.94363
2.38366
2.51656
2.5093
2.49281
2.46528
2.43668
2.41411
2.3631
2.29502
1
1
1.00001
1.00001
1.00004
1.00008
1.00024
1.00044
1.00137
1.00253
1.00739
1.01555
1.03957
1.1057
1.24117
1.66252
2.25093
2.45749
2.48094
2.47592
2.4574
2.41992
2.38149
2.34355
2.2897
1
1
1.00001
1.00001
1.00003
1.00006
1.00018
1.00033
1.00103
1.00192
1.00556
1.01169
1.02999
1.07991
1.17795
1.52317
2.21093
2.39557
2.43224
2.43039
2.42659
2.40821
2.37037
2.32543
2.2765
1
1
1
1.00001
1.00002
1.00005
1.0001
1.00031
1.00058
1.00162
1.00356
1.00873
1.02338
1.05168
1.15555
1.34961
1.96736
2.34106
2.41747
2.41317
2.39421
2.38058
2.35619
2.31795
2.27029
1
1
1
1.00001
1.00001
1.00004
1.00008
1.00024
1.00044
1.00135
1.00251
1.00721
1.01541
1.03869
1.10389
1.23673
1.62707
2.18368
2.38771
2.38671
2.37537
2.35102
2.32393
2.29876
2.26289
1
1
1
1
1.00001
1.00002
1.00007
1.00014
1.00041
1.00077
1.00229
1.00451
1.01248
1.02797
1.06948
1.17782
1.49257
2.00225
2.3206
2.36785
2.36103
2.34272
2.30967
2.27588
2.24339
1
1
1
1
1.00001
1.00002
1.00004
1.00012
1.00023
1.0007
1.00132
1.00381
1.00789
1.02051
1.05177
1.11903
1.3329
1.89371
2.17192
2.3078
2.32965
2.32433
2.30597
2.27154
2.23441
1
1
1
1
1.00001
1.00001
1.00004
1.00007
1.0002
1.00037
1.00111
1.00216
1.00595
1.01308
1.03236
1.0864
1.19524
1.52616
2.11951
2.25132
2.2755
2.27822
2.27554
2.26121
2.23013
1
1
1
1
1
1.00001
1.00002
1.00006
1.00011
1.00033
1.00061
1.00179
1.00361
1.00944
1.02286
1.05301
1.15087
1.34061
1.88087
2.20324
2.26271
2.25913
2.24573
2.23375
2.21655
1
1
1
1
1
1.00001
1.00001
1.00004
1.00007
1.00023
1.00042
1.00128
1.00237
1.00701
1.01396
1.03703
1.0899
1.21677
1.54137
2.04068
2.23298
2.2367
2.22993
2.20923
2.18667
1
1
1
1
1
1
1.00001
1.00002
1.00006
1.00012
1.00036
1.00068
1.00199
1.00388
1.01075
1.02356
1.05848
1.14659
1.3897
1.83756
2.15683
2.21904
2.21681
2.20209
2.17859
1
1
1
1
1
1
1.00001
1.00002
1.00003
1.0001
1.00019
1.00056
1.00106
1.0031
1.00614
1.01664
1.03736
1.09273
1.231
1.65567
1.99424
2.16701
2.18711
2.18314
2.16858
1
1
1
1
1
1
1.00001
1.00001
1.00003
1.00005
1.00016
1.00029
1.00085
1.00162
1.00452
1.00961
1.0238
1.06248
1.1335
1.39232
1.88295
2.09577
2.15655
2.15942
2.15249
1
1
1
1
1
1
1
1.00001
1.00002
1.00003
1.0001
1.00019
1.00057
1.00105
1.00316
1.00599
1.01682
1.03607
1.09137
1.22217
1.63592
1.95489
2.11221
2.1298
2.128
1
1
1
1
1
1
1
1
1.00001
1.00003
1.00005
1.00015
1.00027
1.00081
1.00154
1.00429
1.00911
1.0225
1.05875
1.12549
1.36775
1.83069
2.03885
2.10464
2.10529
1
1
1
1
1
1
1
1
1.00001
1.00002
1.00003
1.0001
1.00017
1.00053
1.00097
1.0029
1.00548
1.01536
1.03245
1.08298
1.19548
1.56374
1.88661
2.06081
2.08228
1
1
1
1
1
1
1
1
1
1.00001
1.00002
1.00004
1.00013
1.00025
1.00073
1.00139
1.00382
1.00819
1.02009
1.05235
1.11304
1.32864
1.76843
1.98162
2.0487
1
1
1
1
1
1
1
1
1
1.00001
1.00001
1.00004
1.00007
1.00019
1.00036
1.00106
1.002
1.00564
1.01166
1.0294
1.07171
1.16796
1.41604
1.85582
2.00989
1
1
1
1
1
1
1
1
1
1
1.00001
1.00002
1.00004
1.00012
1.00022
1.00067
1.00121
1.00362
1.00687
1.01871
1.04229
1.09769
1.26451
1.6473
1.92056
1
1
1
1
1
1
1
1
1
1
1
1.00001
1.00002
1.00007
1.00013
1.0004
1.00073
1.00216
1.00407
1.01157
1.02324
1.06288
1.13611
1.4109
1.72487
1
1
1
1
1
1
1
1
1
1
1
1.00001
1.00002
1.00003
1.0001
1.00018
1.00053
1.00099
1.00286
1.00555
1.01489
1.03288
1.07831
1.19597
1.50895
1
1
1
1
1
1
1
1
1
1
1
1
1.00001
1.00002
1.00006
1.00011
1.00032
1.00058
1.0017
1.0032
1.009
1.01822
1.0474
1.10644
1.28391
1
1
1
1
1
1
1
1
1
1
1
1
1
1.00001
1.00003
1.00008
1.00014
1.00041
1.00077
1.00219
1.0043
1.0116
1.02426
1.06334
1.13895
1
1
1
1
1
1
1
1
1
1
1
1
1
1.00001
1.00002
1.00003
1.0001
1.00019
1.00055
1.00102
1.00292
1.00565
1.01506
1.03336
1.07779
1
1
1
1
1
1
1
1
1
1
1
1
1
1
1.00001
1.00002
1.00006
1.00011
1.00031
1.00057
1.00168
1.00315
1.00881
1.01766
1.04634
1
1
1
1
1
1
1
1
1
1
1
1
1
1
1
1.00001
1.00003
1.00007
1.00014
1.00039
1.00074
1.00207
1.00406
1.01089
1.02271
1
1
1
1
1
1
1
1
1
1
1
1
1
1
1
1.00001
1.00002
1.00003
1.00009
1.00017
1.0005
1.00093
1.00262
1.00511
1.01346
1
1
1
1
1
1
1
1
1
1
1
1
1
1
1
1
1.00001
1.00002
1.00004
1.00012
1.00022
1.00064
1.00119
1.00332
1.00666
1
1
1
1
1
1
1
1
1
1
1
1
1
1
1
1
1
1.00001
1.00002
1.00007
1.00013
1.00037
1.00068
1.00199
1.00374
1
1
1
1
1
1
1
1
1
1
1
1
1
1
1
1
1
1.00001
1.00002
1.00003
1.0001
1.00018
1.00054
1.001
1.00289
1
1
1
1
1
1
1
1
1
1
1
1
1
1
1
1
1
1
1.00001
1.00002
1.00008
1.00014
1.00043
1.00077
1.00239
1
1
1
1
1
1
1
1
1
1
1
1
1
1
1
1
1
1
1.00001
1.00002
1.00006
1.00011
1.00034
1.00067
1.00181
1
1
1
1
1
1
1
1
1
1
1
1
1
1
1
1
1
1
1.00001
1.00002
1.00004
1.00013
1.00026
1.00069
1.00171
1
1
1
1
1
1
1
1
1
1
1
1
1
1
1
1
1
1
1.00001
1.00002
1.00006
1.0001
1.00031
1.00064
1.00169
2.33666
2.23885
2.23882
2.27664
2.35772
2.41378
2.46095
2.48573
2.48733
2.48438
2.48418
2.48521
2.48848
2.49393
2.50203
2.51714
2.54458
2.60102
2.70848
2.89273
3.09058
3.2009
3.26126
3.27301
3.20553
3.14538
3.12544
3.10322
3.07463
3.06358
3.05245
3.04095
3.03801
3.03704
3.04359
3.0579
3.07194
3.08786
3.09494
3.10068
3.10259
3.10343
3.09744
3.09582
3.08184
3.07737
3.06626
3.06096
3.04932
3.04368
3.03178
3.02441
3.00857
3.00088
2.98524
2.97773
2.96244
2.95503
2.94006
2.93274
2.91801
2.91061
2.89632
2.88858
2.87543
2.8668
2.85526
2.84607
2.83534
2.82627
2.81577
2.80684
2.79641
2.7876
2.77712
2.76846
2.75778
2.74916
2.73829
2.72968
2.71864
2.71003
2.69898
2.69037
2.67942
2.67085
2.66005
2.6516
2.64082
2.63264
2.62174
2.61389
2.6029
2.59537
2.5845
2.57741
2.56723
2.56151
2.55429
2.55245
2.20092
2.1217
2.07769
2.05421
2.02294
1.99425
1.97988
1.98079
1.98982
2.00396
2.02049
2.02779
2.02933
2.03037
2.03354
2.04167
2.06204
2.10888
2.20867
2.39783
2.71271
2.89104
3.0132
3.14674
3.21816
3.25439
3.28205
3.3075
3.31634
3.31193
3.29069
3.26809
3.26408
3.26717
3.25797
3.23756
3.20936
3.18459
3.15163
3.12115
3.06142
3.02775
2.98448
2.96079
2.92526
2.90583
2.87579
2.8572
2.8312
2.81449
2.79155
2.77663
2.75457
2.74126
2.72137
2.70983
2.6914
2.68041
2.66341
2.65254
2.63686
2.62601
2.61124
2.60052
2.58631
2.57591
2.56205
2.55213
2.53846
2.52902
2.51552
2.50631
2.49306
2.48383
2.47087
2.46154
2.44895
2.43962
2.42741
2.41829
2.40635
2.3976
2.38577
2.3774
2.36563
2.35749
2.34578
2.33775
2.32613
2.31818
2.30666
2.29878
2.28741
2.27972
2.26866
2.26157
2.2514
2.24584
2.23858
2.237
2.19545
2.1141
2.03877
1.9648
1.89729
1.84699
1.81979
1.81679
1.81994
1.82953
1.84306
1.85536
1.86303
1.86718
1.86995
1.8756
1.88767
1.9159
1.97255
2.13353
2.32025
2.52838
2.70364
2.78119
2.86305
2.97495
3.07712
3.16639
3.23539
3.29297
3.32924
3.354
3.37012
3.37392
3.33825
3.28433
3.21582
3.13814
3.06392
2.99472
2.93948
2.89654
2.85737
2.82721
2.79608
2.77381
2.74801
2.73065
2.70927
2.69467
2.67591
2.66323
2.64524
2.63291
2.61624
2.60541
2.58975
2.57928
2.56415
2.55356
2.53923
2.52874
2.51521
2.50499
2.49188
2.48199
2.46898
2.45941
2.44648
2.43707
2.42447
2.41504
2.40291
2.39331
2.38142
2.37158
2.35959
2.34952
2.33742
2.32728
2.31534
2.30534
2.2939
2.28414
2.27329
2.26378
2.25331
2.24389
2.23353
2.22418
2.21374
2.20443
2.19392
2.1847
2.17429
2.16542
2.15573
2.14799
2.14096
2.13682
2.19826
2.10676
2.02705
1.95456
1.89047
1.83775
1.79588
1.76771
1.75089
1.74711
1.74805
1.75303
1.76089
1.76955
1.77623
1.78145
1.78925
1.80677
1.84246
1.93526
2.0686
2.34028
2.47864
2.50486
2.58259
2.68125
2.73516
2.8127
2.90901
2.99698
3.08093
3.14167
3.19259
3.18088
3.13996
3.06196
2.97769
2.9001
2.82769
2.77738
2.73605
2.70683
2.68132
2.66219
2.64269
2.62792
2.61137
2.59963
2.58549
2.57678
2.56392
2.55474
2.54067
2.53057
2.51738
2.50849
2.49593
2.48736
2.47478
2.46623
2.45352
2.44464
2.43214
2.4231
2.41131
2.40232
2.39122
2.38224
2.37151
2.36241
2.35177
2.34241
2.33181
2.32213
2.31176
2.30194
2.29193
2.28222
2.27238
2.26289
2.25293
2.24362
2.23343
2.22431
2.21408
2.20508
2.19508
2.18628
2.1766
2.16785
2.15836
2.14962
2.14015
2.13149
2.12201
2.11364
2.10455
2.09711
2.09023
2.0863
2.2114
2.11489
2.03345
1.96244
1.89844
1.84308
1.79407
1.75429
1.72283
1.70282
1.69385
1.69402
1.69553
1.70018
1.7075
1.71436
1.7228
1.73472
1.75919
1.80647
1.9295
2.0838
2.28054
2.37868
2.42904
2.45713
2.51505
2.575
2.62743
2.69271
2.76811
2.81869
2.8753
2.87199
2.84466
2.78578
2.72838
2.66923
2.6297
2.60807
2.59196
2.58107
2.57042
2.56355
2.55316
2.54617
2.53555
2.52857
2.51859
2.5125
2.50367
2.49729
2.48602
2.47585
2.46278
2.45345
2.44213
2.43382
2.42293
2.41432
2.40257
2.39348
2.38138
2.37262
2.36101
2.35262
2.34113
2.33216
2.32047
2.31109
2.2997
2.2904
2.2794
2.27004
2.25889
2.24919
2.23768
2.22785
2.21641
2.20684
2.19586
2.1865
2.17592
2.16647
2.15605
2.1464
2.1359
2.12611
2.11549
2.10575
2.09523
2.08569
2.07554
2.0663
2.05676
2.0479
2.03923
2.03121
2.02458
2.01997
2.21437
2.13357
2.05426
1.98304
1.91828
1.86132
1.81049
1.76748
1.73066
1.70174
1.6793
1.66528
1.65903
1.65914
1.66032
1.66468
1.67047
1.68074
1.69548
1.72643
1.78828
1.92659
2.12211
2.22942
2.29031
2.34539
2.37686
2.40739
2.45395
2.50796
2.56353
2.61275
2.66934
2.67476
2.65506
2.61267
2.56677
2.52411
2.49693
2.4797
2.46943
2.46455
2.4636
2.46113
2.45783
2.45522
2.44989
2.44504
2.43537
2.42781
2.41895
2.41389
2.40697
2.40076
2.39066
2.38183
2.37102
2.36261
2.35285
2.3457
2.33657
2.32876
2.31844
2.30925
2.2985
2.2895
2.2795
2.27119
2.26118
2.25243
2.24162
2.23239
2.22162
2.21277
2.20276
2.19429
2.1845
2.17568
2.1654
2.15598
2.14537
2.13596
2.12572
2.11675
2.10701
2.09838
2.08883
2.08022
2.07058
2.06183
2.05209
2.04323
2.03346
2.02462
2.01496
2.00638
1.99721
1.9895
1.9823
1.97808
2.21922
2.14471
2.07212
2.00448
1.94217
1.8853
1.83427
1.78843
1.74853
1.71361
1.68459
1.66123
1.64476
1.63429
1.63131
1.63161
1.63345
1.63771
1.64699
1.66646
1.70365
1.79634
1.91505
2.12187
2.21072
2.23373
2.27272
2.30783
2.34568
2.38074
2.44667
2.50785
2.55497
2.56105
2.54058
2.502
2.46074
2.42049
2.39472
2.37851
2.36971
2.37159
2.37777
2.38569
2.38884
2.39221
2.39067
2.38842
2.38362
2.38017
2.37534
2.37259
2.36797
2.36399
2.35589
2.34773
2.33782
2.32953
2.32007
2.31244
2.30348
2.2961
2.28682
2.2786
2.26832
2.25909
2.24835
2.23899
2.22865
2.21961
2.20952
2.20025
2.18977
2.17997
2.16923
2.15953
2.1491
2.13991
2.12969
2.12072
2.11019
2.10096
2.09
2.0806
2.06983
2.06073
2.05067
2.042
2.03257
2.02409
2.01481
2.00632
1.99698
1.98853
1.97932
1.97114
1.96248
1.95507
1.94813
1.94408
2.22357
2.15564
2.08917
2.02539
1.96568
1.91047
1.85963
1.81361
1.77204
1.73512
1.70322
1.6755
1.65292
1.63465
1.62244
1.61489
1.61346
1.61472
1.61843
1.62751
1.65026
1.69189
1.80639
1.92327
2.10524
2.1867
2.20312
2.2241
2.26939
2.31746
2.38317
2.45355
2.49736
2.50026
2.47703
2.44115
2.39691
2.35542
2.32683
2.31527
2.30743
2.30367
2.30913
2.32054
2.32953
2.33614
2.33947
2.33945
2.33655
2.33318
2.3282
2.32437
2.31933
2.31495
2.30796
2.30052
2.29105
2.28299
2.27354
2.26562
2.25616
2.24806
2.23831
2.22962
2.21933
2.21012
2.19956
2.1904
2.18006
2.17134
2.1614
2.15299
2.14312
2.1345
2.12431
2.11513
2.10462
2.09521
2.08495
2.0759
2.06624
2.05774
2.04844
2.04014
2.03068
2.02218
2.01241
2.00378
1.9941
1.98581
1.97665
1.96898
1.96034
1.95314
1.94472
1.93762
1.92936
1.92245
1.91549
1.91141
2.22142
2.16157
2.10085
2.04258
1.98646
1.93375
1.88489
1.83893
1.79798
1.75924
1.72603
1.69479
1.66913
1.64597
1.62753
1.6131
1.60326
1.59983
1.60073
1.60409
1.61325
1.63753
1.68454
1.81399
1.94608
2.08873
2.15725
2.1845
2.2171
2.27973
2.37248
2.45406
2.48013
2.4735
2.44603
2.40967
2.36037
2.32035
2.29152
2.2762
2.26505
2.25985
2.25789
2.26352
2.27575
2.28439
2.29269
2.29387
2.2938
2.29138
2.28676
2.28374
2.27901
2.27553
2.26931
2.26294
2.2534
2.24502
2.23501
2.22678
2.21695
2.20891
2.19929
2.19131
2.18165
2.17335
2.16331
2.15448
2.144
2.1348
2.12418
2.11504
2.10476
2.09598
2.08612
2.07766
2.06808
2.05966
2.04993
2.04133
2.03142
2.02286
2.01312
2.00502
1.99575
1.9882
1.97932
1.97199
1.96317
1.95567
1.94677
1.93901
1.93027
1.9225
1.9142
1.90678
1.89906
1.89247
1.88598
1.88263
2.21883
2.16409
2.10869
2.05379
2.00201
1.95159
1.90539
1.86104
1.82044
1.78284
1.74786
1.7169
1.68777
1.66342
1.64052
1.62318
1.6068
1.59672
1.59016
1.59068
1.59426
1.60391
1.62985
1.68297
1.82409
1.96915
2.08375
2.1408
2.20575
2.2876
2.39936
2.47412
2.48165
2.46874
2.43671
2.39313
2.34446
2.30526
2.27462
2.25191
2.23521
2.22757
2.22431
2.22357
2.22756
2.23637
2.24399
2.24918
2.25112
2.25091
2.24764
2.24476
2.23902
2.23515
2.22861
2.22325
2.21439
2.20648
2.19648
2.18815
2.17806
2.16959
2.15962
2.15141
2.14188
2.13399
2.12469
2.11682
2.10742
2.09927
2.08954
2.08099
2.07096
2.0622
2.05224
2.04377
2.03422
2.02621
2.01711
2.00938
2.00045
1.99269
1.98366
1.97579
1.9667
1.95892
1.95003
1.9426
1.93408
1.92702
1.91882
1.91195
1.90388
1.89704
1.88904
1.88219
1.8744
1.86788
1.86121
1.85753
2.2164
2.16661
2.11603
2.06446
2.01501
1.96701
1.92171
1.87931
1.83902
1.80196
1.76743
1.73503
1.70648
1.6787
1.65584
1.63319
1.61612
1.5993
1.58873
1.58063
1.58089
1.5849
1.59465
1.62415
1.68438
1.82259
1.99791
2.10727
2.18316
2.33639
2.45841
2.49951
2.49623
2.4747
2.44095
2.38909
2.34301
2.30503
2.27296
2.2444
2.22221
2.20709
2.19998
2.19428
2.19264
2.18863
2.19188
2.19767
2.20125
2.20328
2.20266
2.19968
2.19441
2.19018
2.18423
2.1799
2.17275
2.16633
2.15735
2.15025
2.14132
2.13423
2.12526
2.11785
2.1087
2.10105
2.09186
2.08411
2.07495
2.06727
2.05823
2.05056
2.04151
2.0338
2.0247
2.01691
2.00781
2.0001
1.99119
1.98376
1.97516
1.96802
1.95968
1.95269
1.94448
1.93745
1.92926
1.92208
1.91389
1.90658
1.89846
1.89113
1.88319
1.87596
1.86826
1.86128
1.85389
1.8475
1.8411
1.83764
2.20765
2.16548
2.11994
2.07376
2.02746
1.98265
1.93847
1.89743
1.85752
1.82084
1.78572
1.7538
1.72308
1.69624
1.66969
1.64784
1.6258
1.60891
1.59211
1.58113
1.57308
1.5736
1.57825
1.59083
1.62417
1.69972
1.84017
2.05757
2.19787
2.38871
2.52289
2.53328
2.52216
2.49005
2.443
2.39735
2.35834
2.31885
2.28181
2.24523
2.21611
2.19333
2.17715
2.1648
2.15461
2.14398
2.13944
2.13915
2.14304
2.1492
2.15072
2.15152
2.14866
2.14605
2.14087
2.13808
2.13256
2.12824
2.12073
2.11465
2.1068
2.10073
2.09293
2.08652
2.07832
2.07142
2.06295
2.05567
2.04698
2.03943
2.03064
2.02309
2.01448
2.00708
1.99858
1.99127
1.98279
1.97552
1.96706
1.95984
1.95145
1.94431
1.93603
1.92896
1.92083
1.91381
1.90587
1.89894
1.89123
1.8844
1.87688
1.87009
1.86266
1.85586
1.84845
1.84173
1.83442
1.82817
1.82174
1.8183
2.19631
2.15738
2.11842
2.07684
2.03491
1.99378
1.95328
1.91383
1.87643
1.8399
1.80622
1.7734
1.74364
1.71473
1.68912
1.66406
1.64267
1.62186
1.60438
1.58897
1.57638
1.57147
1.57362
1.57952
1.59774
1.64682
1.73815
1.96341
2.18135
2.47196
2.5749
2.56903
2.54252
2.50492
2.46031
2.4177
2.37358
2.32918
2.28253
2.24153
2.20346
2.17538
2.15085
2.13234
2.11562
2.10562
2.09521
2.09186
2.08991
2.09346
2.09745
2.10233
2.10368
2.10407
2.10173
2.09928
2.09527
2.0923
2.08675
2.08135
2.07401
2.06791
2.0605
2.0542
2.04656
2.04008
2.03229
2.02568
2.01769
2.01078
2.00261
1.99563
1.98744
1.98039
1.97211
1.965
1.95671
1.94971
1.94158
1.93483
1.92691
1.92039
1.91257
1.90613
1.89834
1.89188
1.88419
1.87771
1.87024
1.86379
1.85652
1.85012
1.84294
1.83656
1.82937
1.82304
1.8159
1.80995
1.8036
1.80029
2.1943
2.15497
2.11637
2.07744
2.03819
1.99873
1.96163
1.92398
1.88929
1.85421
1.82233
1.79023
1.76154
1.73264
1.70728
1.68175
1.65985
1.63782
1.61966
1.6015
1.58815
1.57762
1.57801
1.58296
1.59706
1.63116
1.7132
1.87424
2.19319
2.52142
2.59891
2.57315
2.54295
2.50688
2.45661
2.39749
2.34234
2.2955
2.25562
2.21668
2.17996
2.14656
2.12012
2.09806
2.08235
2.06772
2.05912
2.04996
2.04558
2.04356
2.04554
2.0507
2.0567
2.06003
2.06162
2.06081
2.05814
2.05621
2.05243
2.04934
2.04322
2.03805
2.03122
2.0255
2.01848
2.01245
2.00515
1.99891
1.99129
1.98497
1.9773
1.97098
1.96326
1.95681
1.94897
1.94236
1.93439
1.92775
1.91973
1.91321
1.90523
1.89889
1.89103
1.88482
1.87709
1.87092
1.86339
1.85721
1.84993
1.84377
1.83668
1.83059
1.82356
1.81757
1.81051
1.80461
1.79761
1.79203
1.78578
1.78269
2.1894
2.15506
2.11652
2.08023
2.04302
2.0047
1.9682
1.93231
1.89819
1.86505
1.83374
1.80324
1.77497
1.74697
1.72206
1.69638
1.67499
1.65175
1.63396
1.61407
1.60046
1.5888
1.5893
1.59411
1.60797
1.64204
1.71321
1.85397
2.08143
2.32809
2.50452
2.50813
2.48173
2.45045
2.39909
2.34289
2.29416
2.25717
2.22645
2.19379
2.16052
2.1291
2.10264
2.07924
2.05967
2.04316
2.03022
2.02026
2.01341
2.00769
2.00622
2.00578
2.00945
2.01371
2.01945
2.02182
2.02423
2.02326
2.02116
2.01935
2.01554
2.01161
2.00515
1.99986
1.99315
1.98768
1.9809
1.97517
1.96823
1.96239
1.95531
1.94935
1.942
1.93591
1.92828
1.92206
1.91423
1.90795
1.90006
1.89383
1.88601
1.87982
1.87218
1.86601
1.8586
1.85243
1.8452
1.83905
1.83193
1.82585
1.81881
1.81287
1.80592
1.80013
1.79328
1.78763
1.7809
1.77556
1.76951
1.76657
2.16734
2.14723
2.11564
2.07946
2.04596
2.01104
1.97505
1.94076
1.90704
1.87441
1.84437
1.81357
1.78717
1.75853
1.73496
1.70926
1.68782
1.6655
1.64616
1.62807
1.61283
1.60549
1.60766
1.61654
1.63449
1.6809
1.77582
1.9118
2.03105
2.16997
2.33703
2.41579
2.42137
2.40033
2.37914
2.33709
2.28479
2.24451
2.21245
2.18113
2.14929
2.11986
2.09282
2.06883
2.04676
2.02749
2.01051
1.99711
1.98603
1.9786
1.97305
1.97174
1.97173
1.9741
1.97944
1.98471
1.98861
1.99129
1.99115
1.99003
1.98787
1.98563
1.981
1.97605
1.96965
1.96429
1.95769
1.95216
1.94549
1.94001
1.93334
1.92784
1.92106
1.91545
1.90851
1.90279
1.89568
1.88983
1.88253
1.87652
1.86915
1.86301
1.85571
1.84949
1.84231
1.83607
1.82897
1.82282
1.8158
1.80981
1.80292
1.79709
1.79036
1.78463
1.77805
1.77239
1.76593
1.7606
1.75474
1.75179
2.15029
2.12498
2.10655
2.07761
2.04462
2.01392
1.98119
1.94811
1.91671
1.88368
1.85472
1.82397
1.79704
1.76982
1.7445
1.7207
1.69736
1.67688
1.65622
1.64003
1.62678
1.62575
1.63116
1.64616
1.67924
1.75323
1.87024
1.95765
2.01849
2.06841
2.16583
2.27596
2.33905
2.35768
2.34503
2.32832
2.2863
2.24498
2.20869
2.17545
2.14347
2.11456
2.08725
2.06227
2.03862
2.01731
1.9978
1.98152
1.96792
1.95785
1.94983
1.94464
1.94144
1.94127
1.94186
1.94595
1.94983
1.95482
1.95701
1.95921
1.95831
1.95726
1.95489
1.95219
1.94671
1.94155
1.93523
1.92988
1.92371
1.91859
1.91259
1.90751
1.90135
1.89607
1.88962
1.88408
1.87741
1.87159
1.86481
1.85875
1.85195
1.8458
1.83902
1.83295
1.82615
1.82018
1.81336
1.80746
1.8007
1.79486
1.78824
1.78249
1.77603
1.77036
1.76401
1.75842
1.75215
1.74685
1.74112
1.73807
2.14184
2.11378
2.08697
2.06651
2.04064
2.01207
1.98373
1.95325
1.92482
1.89443
1.86556
1.83744
1.80918
1.78363
1.7574
1.73403
1.71049
1.68952
1.67037
1.65461
1.64909
1.65367
1.66532
1.69119
1.75517
1.85744
1.94844
1.9955
2.00891
2.02848
2.05845
2.12333
2.1928
2.26539
2.30327
2.29578
2.27528
2.24861
2.21456
2.17862
2.1446
2.11282
2.08431
2.05752
2.0328
2.01009
1.98979
1.97112
1.95556
1.94205
1.93188
1.92272
1.91644
1.9119
1.91083
1.91027
1.91207
1.91678
1.92046
1.92458
1.92622
1.92685
1.9256
1.92438
1.92169
1.91819
1.91254
1.9078
1.90195
1.89724
1.89147
1.88668
1.88085
1.87567
1.86964
1.86403
1.85784
1.85199
1.84566
1.83979
1.83328
1.82748
1.82083
1.81512
1.80842
1.80277
1.79612
1.79051
1.78399
1.77846
1.77211
1.7667
1.76052
1.7552
1.74913
1.74385
1.73787
1.73278
1.72729
1.72429
2.13624
2.10897
2.08027
2.05447
2.03037
2.00508
1.98004
1.95336
1.92615
1.89971
1.8724
1.84593
1.82018
1.79432
1.77039
1.74638
1.72465
1.70397
1.68688
1.67754
1.67973
1.68966
1.71298
1.76557
1.86186
1.95679
2.00291
2.01239
2.00657
2.00347
2.00819
2.027
2.07153
2.12568
2.20604
2.24415
2.24723
2.23296
2.21807
2.1862
2.15172
2.11612
2.08463
2.05517
2.02945
2.0056
1.98386
1.96392
1.94609
1.93022
1.91646
1.90503
1.89525
1.88722
1.88202
1.87929
1.87871
1.8791
1.88258
1.88571
1.89073
1.89306
1.89533
1.89494
1.89399
1.89252
1.8894
1.8855
1.88001
1.87524
1.86948
1.86474
1.85899
1.85418
1.8483
1.84331
1.83724
1.83204
1.82576
1.82036
1.81393
1.80842
1.80194
1.79644
1.79001
1.78462
1.77832
1.77304
1.76691
1.76167
1.7557
1.75047
1.74463
1.73943
1.73369
1.72858
1.72291
1.71808
1.71284
1.7101
2.11813
2.10124
2.0765
2.05132
2.02675
2.00229
1.97731
1.95237
1.92738
1.90139
1.87703
1.85138
1.8271
1.80306
1.77966
1.75754
1.73639
1.7191
1.70734
1.7076
1.7165
1.73827
1.78258
1.87468
1.97316
2.02279
2.02889
2.01753
2.00339
1.98866
1.98349
1.9849
1.99579
2.02314
2.07268
2.13629
2.17794
2.2
2.19343
2.17782
2.15382
2.12231
2.09037
2.05813
2.02863
2.00305
1.97931
1.95782
1.93771
1.92027
1.90394
1.88993
1.87766
1.86764
1.8587
1.85245
1.84884
1.84812
1.84815
1.84985
1.85428
1.85768
1.86235
1.86404
1.86537
1.86457
1.86346
1.86165
1.85776
1.85345
1.84792
1.84328
1.83776
1.83313
1.82759
1.82286
1.81715
1.81227
1.80639
1.80143
1.79541
1.79045
1.78436
1.77942
1.77337
1.76839
1.76249
1.7574
1.75165
1.74653
1.74086
1.7358
1.73018
1.72517
1.71964
1.71463
1.7092
1.70434
1.69935
1.69641
2.09868
2.08519
2.06415
2.04238
2.02025
1.99699
1.97413
1.95016
1.92661
1.9032
1.87861
1.85575
1.8319
1.80913
1.78723
1.76646
1.74795
1.7355
1.73428
1.74294
1.76266
1.8043
1.88913
1.9889
2.04232
2.0499
2.03623
2.0208
2.0025
1.98019
1.96581
1.95976
1.96048
1.96561
1.98263
2.01937
2.06223
2.11656
2.14234
2.14526
2.13425
2.1212
2.09378
2.0631
2.03294
2.00466
1.9774
1.95351
1.93217
1.91234
1.89453
1.87821
1.86387
1.85113
1.8406
1.83128
1.82419
1.81985
1.81812
1.81815
1.81885
1.82157
1.82578
1.83016
1.8329
1.83506
1.83493
1.83426
1.83276
1.83055
1.82602
1.82178
1.81652
1.81197
1.8068
1.80228
1.79711
1.79253
1.78727
1.78267
1.77722
1.77256
1.76688
1.76213
1.75636
1.7516
1.74592
1.74122
1.73565
1.73097
1.72546
1.72072
1.71525
1.7104
1.70501
1.70011
1.69484
1.69018
1.6854
1.68266
2.08509
2.074
2.05803
2.03576
2.01408
1.99236
1.97001
1.94804
1.92505
1.90262
1.88064
1.85747
1.83637
1.81419
1.79421
1.77581
1.7629
1.76025
1.76894
1.7873
1.82995
1.90555
2.00655
2.065
2.07357
2.05943
2.04411
2.02211
1.99721
1.97418
1.95576
1.9426
1.93568
1.93486
1.93588
1.94442
1.96599
2.00245
2.04621
2.07817
2.09825
2.09235
2.07983
2.06522
2.03821
2.00905
1.9795
1.95383
1.9297
1.90776
1.88794
1.86959
1.8533
1.83834
1.82548
1.81412
1.80466
1.79659
1.79134
1.78849
1.78807
1.78805
1.78962
1.79349
1.79682
1.80147
1.80325
1.80499
1.80457
1.80388
1.80214
1.79947
1.79486
1.79061
1.78564
1.78134
1.77649
1.77223
1.76734
1.76302
1.75792
1.7535
1.74823
1.74372
1.73839
1.73386
1.72855
1.72404
1.71877
1.71431
1.70908
1.70465
1.69946
1.69502
1.6899
1.68547
1.68051
1.67639
1.672
1.66977
2.05786
2.05376
2.04502
2.02714
2.00777
1.98747
1.96632
1.94468
1.92318
1.90108
1.87976
1.8591
1.8378
1.8188
1.80034
1.78772
1.78463
1.7935
1.81144
1.85195
1.92429
2.02731
2.09012
2.09938
2.08518
2.06695
2.04465
2.01731
1.99277
1.97138
1.95151
1.9352
1.92112
1.91369
1.90709
1.90759
1.90947
1.92073
1.94466
1.97701
2.01775
2.03852
2.04767
2.04149
2.03011
2.01075
1.98394
1.95783
1.93083
1.90619
1.88418
1.86358
1.84508
1.82798
1.81285
1.79925
1.78772
1.77767
1.76919
1.76292
1.75915
1.75772
1.75768
1.75851
1.7609
1.76567
1.76961
1.77342
1.77517
1.77619
1.77581
1.77487
1.77259
1.76916
1.76461
1.76055
1.7559
1.75187
1.74735
1.74332
1.7387
1.73455
1.72975
1.72551
1.72056
1.71631
1.71128
1.70708
1.70206
1.69794
1.69296
1.6889
1.684
1.68001
1.67526
1.67145
1.66692
1.66358
1.65973
1.6582
2.03168
2.03198
2.02307
2.01416
1.99727
1.98052
1.96232
1.94241
1.9219
1.90105
1.87988
1.85971
1.84083
1.82278
1.81076
1.80717
1.81672
1.83478
1.87397
1.94676
2.04657
2.11065
2.12129
2.10755
2.08914
2.06605
2.03845
2.01409
1.99109
1.97043
1.95004
1.93197
1.91465
1.90047
1.889
1.8821
1.87553
1.87625
1.87954
1.8924
1.91688
1.94541
1.97812
1.99472
1.99646
1.98924
1.97871
1.95903
1.93355
1.90821
1.88342
1.86045
1.83939
1.82031
1.8027
1.78724
1.77318
1.76159
1.75077
1.74232
1.73467
1.73046
1.7279
1.7279
1.72824
1.73
1.73401
1.73814
1.74287
1.74497
1.74701
1.74689
1.74639
1.74513
1.74226
1.73882
1.73447
1.73067
1.72631
1.7226
1.71818
1.71444
1.70985
1.70605
1.70143
1.69762
1.69308
1.68929
1.68479
1.6811
1.67657
1.67306
1.66849
1.66517
1.66072
1.65768
1.65377
1.65143
1.6487
1.6478
2.01449
2.01491
2.01105
1.9963
1.98178
1.96429
1.94954
1.93551
1.91855
1.90016
1.88092
1.86201
1.84468
1.83222
1.82814
1.83845
1.85687
1.89555
1.97004
2.06717
2.13303
2.14427
2.13167
2.11301
2.08811
2.06041
2.03522
2.01285
1.99076
1.9699
1.94981
1.92956
1.91194
1.89313
1.87822
1.86432
1.85404
1.84648
1.84055
1.84107
1.84508
1.85838
1.88253
1.90804
1.93213
1.94717
1.94449
1.93784
1.92732
1.90892
1.88413
1.85997
1.83612
1.81509
1.7953
1.77799
1.76167
1.74765
1.73505
1.72423
1.71524
1.70735
1.70243
1.69903
1.69856
1.69876
1.7
1.70285
1.70789
1.71187
1.71582
1.71745
1.71885
1.71863
1.7178
1.71614
1.71264
1.7093
1.70512
1.70157
1.69747
1.69397
1.68987
1.68637
1.68221
1.67878
1.67451
1.67122
1.66686
1.66381
1.65944
1.65663
1.65242
1.64993
1.64622
1.6445
1.64163
1.64043
1.63834
1.63834
1.95088
1.99801
1.99787
1.99115
1.97516
1.95611
1.93736
1.92099
1.90731
1.89314
1.87891
1.86383
1.8529
1.84979
1.86098
1.87992
1.91966
1.99531
2.09231
2.15826
2.17021
2.158
2.13947
2.11284
2.08308
2.05704
2.03389
2.01173
1.9906
1.96897
1.94846
1.9278
1.90808
1.88895
1.86999
1.85331
1.83689
1.82499
1.81352
1.80576
1.80114
1.80169
1.80624
1.81937
1.84279
1.86703
1.88546
1.89903
1.89467
1.88902
1.87847
1.86089
1.8367
1.81309
1.79169
1.77191
1.75399
1.73733
1.72327
1.71009
1.69953
1.68964
1.68214
1.6761
1.67249
1.67125
1.67148
1.67224
1.67485
1.67827
1.68305
1.68681
1.68968
1.69124
1.69148
1.69116
1.68994
1.6879
1.68414
1.68088
1.67675
1.67366
1.6695
1.66661
1.66238
1.65967
1.65542
1.65286
1.64863
1.64619
1.64219
1.64006
1.63669
1.63528
1.63292
1.63201
1.63017
1.63022
1.63026
1.6309
1.81134
1.95997
1.97716
1.97711
1.96834
1.95356
1.93441
1.91569
1.89867
1.88587
1.87207
1.86576
1.86617
1.88027
1.9011
1.94405
2.02203
2.12092
2.1844
2.19457
2.18091
2.1627
2.135
2.10431
2.07715
2.05311
2.03112
2.00953
1.98798
1.9662
1.94459
1.92348
1.90233
1.88234
1.86179
1.8429
1.82417
1.80768
1.79336
1.78146
1.77131
1.76443
1.76218
1.7631
1.76817
1.78134
1.80407
1.82668
1.84189
1.85389
1.85011
1.84438
1.83381
1.81611
1.7951
1.77178
1.75046
1.73195
1.71575
1.70121
1.688
1.67705
1.66708
1.6596
1.6529
1.64924
1.64675
1.64687
1.64743
1.64908
1.65237
1.65674
1.66082
1.66414
1.66605
1.66707
1.66702
1.66637
1.66427
1.66206
1.65794
1.65523
1.65088
1.64839
1.64415
1.64182
1.63777
1.63553
1.63184
1.6298