/*--------------------------------*- C++ -*----------------------------------*\
| =========                 |                                                 |
| \\      /  F ield         | OpenFOAM: The Open Source CFD Toolbox           |
|  \\    /   O peration     | Version:  2412                                  |
|   \\  /    A nd           | Website:  www.openfoam.com                      |
|    \\/     M anipulation  |                                                 |
\*---------------------------------------------------------------------------*/
FoamFile
{
    version     2.0;
    format      ascii;
    arch        "LSB;label=32;scalar=64";
    class       volVectorField;
    location    "3.5";
    object      U;
}
// * * * * * * * * * * * * * * * * * * * * * * * * * * * * * * * * * * * * * //

dimensions      [0 1 -1 0 0 0 0];

internalField   nonuniform List<vector> 
5250
(
(2.99999 1.29631e-08 0)
(2.99998 1.00444e-07 0)
(2.99996 3.09229e-07 0)
(2.9999 9.33577e-07 0)
(2.99974 2.2054e-06 0)
(2.99944 5.94111e-06 0)
(2.99848 1.30754e-05 0)
(2.99686 3.62836e-05 0)
(2.99049 7.54495e-05 0)
(2.98052 0.000228338 0)
(2.93948 0.000473146 0)
(2.84834 0.00157316 0)
(2.5779 0.00368408 0)
(1.71795 0.0120648 0)
(0.831652 0.0295874 0)
(0.474711 0.026807 0)
(0.534758 0.0260136 0)
(0.545733 0.0273867 0)
(0.489808 0.0288788 0)
(0.399972 0.0305602 0)
(0.317044 0.0326197 0)
(0.249464 0.0349818 0)
(0.181354 0.0372679 0)
(0.105179 0.0391331 0)
(0.0416849 0.0398055 0)
(2.99999 3.85534e-08 0)
(2.99998 2.99674e-07 0)
(2.99996 9.21713e-07 0)
(2.9999 2.78925e-06 0)
(2.99975 6.58756e-06 0)
(2.99945 1.78282e-05 0)
(2.9985 3.91907e-05 0)
(2.99691 0.000109791 0)
(2.99065 0.000227805 0)
(2.98085 0.000698474 0)
(2.94055 0.00144545 0)
(2.85119 0.00487267 0)
(2.58574 0.0114793 0)
(1.73989 0.0375558 0)
(0.843953 0.0900865 0)
(0.47062 0.0767458 0)
(0.534257 0.0708399 0)
(0.546871 0.0722655 0)
(0.490873 0.0741283 0)
(0.401285 0.0766382 0)
(0.318506 0.0795954 0)
(0.250653 0.082702 0)
(0.182111 0.0852037 0)
(0.105411 0.0865589 0)
(0.041262 0.0850396 0)
(3 6.07916e-08 0)
(2.99999 4.72076e-07 0)
(2.99996 1.45162e-06 0)
(2.99991 4.39233e-06 0)
(2.99976 1.03359e-05 0)
(2.99947 2.82629e-05 0)
(2.99855 6.05887e-05 0)
(2.99701 0.000178878 0)
(2.99097 0.000351394 0)
(2.98154 0.00117983 0)
(2.9428 0.00237057 0)
(2.85729 0.00823819 0)
(2.60272 0.0195415 0)
(1.78928 0.0640346 0)
(0.87356 0.155385 0)
(0.466578 0.129993 0)
(0.53771 0.118587 0)
(0.553901 0.121344 0)
(0.498071 0.125238 0)
(0.409038 0.130691 0)
(0.326266 0.136355 0)
(0.257646 0.142076 0)
(0.18788 0.147001 0)
(0.109332 0.149879 0)
(0.0427422 0.147769 0)
(3 7.83685e-08 0)
(2.99999 6.0728e-07 0)
(2.99996 1.86711e-06 0)
(2.99991 5.64507e-06 0)
(2.99977 1.32329e-05 0)
(2.99949 3.65699e-05 0)
(2.99863 7.61204e-05 0)
(2.99715 0.00023829 0)
(2.99147 0.000437125 0)
(2.98255 0.00162805 0)
(2.94616 0.00316542 0)
(2.86654 0.011283 0)
(2.62839 0.0269308 0)
(1.86575 0.0880807 0)
(0.920616 0.218207 0)
(0.464111 0.182924 0)
(0.54637 0.166126 0)
(0.568191 0.170204 0)
(0.51265 0.176274 0)
(0.424212 0.185183 0)
(0.340911 0.193859 0)
(0.271051 0.202534 0)
(0.199241 0.210619 0)
(0.117095 0.216136 0)
(0.0458741 0.2143 0)
(3 9.43719e-08 0)
(2.99999 7.31941e-07 0)
(2.99996 2.24985e-06 0)
(2.99992 6.80916e-06 0)
(2.99978 1.59763e-05 0)
(2.99952 4.41939e-05 0)
(2.99872 9.20559e-05 0)
(2.99731 0.000289059 0)
(2.99212 0.000523607 0)
(2.98384 0.00198222 0)
(2.9505 0.00382258 0)
(2.87853 0.0136416 0)
(2.66166 0.0326475 0)
(1.96787 0.106563 0)
(0.987851 0.271823 0)
(0.470179 0.235048 0)
(0.563102 0.214306 0)
(0.591173 0.218386 0)
(0.535897 0.226035 0)
(0.447947 0.238811 0)
(0.363263 0.251259 0)
(0.291347 0.263785 0)
(0.216715 0.275959 0)
(0.129522 0.285339 0)
(0.0513539 0.285009 0)
(3 1.06533e-07 0)
(2.99999 8.26874e-07 0)
(2.99997 2.54262e-06 0)
(2.99992 7.69716e-06 0)
(2.9998 1.81209e-05 0)
(2.99956 4.97142e-05 0)
(2.99883 0.000105709 0)
(2.99751 0.000320587 0)
(2.99288 0.000592987 0)
(2.98533 0.00217783 0)
(2.9555 0.00422048 0)
(2.8922 0.0147897 0)
(2.69992 0.0363316 0)
(2.08957 0.116201 0)
(1.07692 0.307766 0)
(0.495679 0.289214 0)
(0.591197 0.269557 0)
(0.62408 0.270873 0)
(0.569717 0.278038 0)
(0.482497 0.294072 0)
(0.395569 0.310494 0)
(0.320704 0.327758 0)
(0.242108 0.345748 0)
(0.147844 0.361508 0)
(0.0598785 0.365387 0)
(3 1.08459e-07 0)
(2.99999 8.39145e-07 0)
(2.99997 2.58343e-06 0)
(2.99993 7.78395e-06 0)
(2.99982 1.83749e-05 0)
(2.9996 4.94433e-05 0)
(2.99895 0.000107923 0)
(2.99772 0.00030694 0)
(2.99366 0.000597429 0)
(2.98689 0.00204026 0)
(2.96065 0.0039033 0)
(2.90697 0.013562 0)
(2.73999 0.0336778 0)
(2.22026 0.101959 0)
(1.20818 0.280013 0)
(0.557625 0.323707 0)
(0.636453 0.32378 0)
(0.668209 0.323554 0)
(0.616034 0.331364 0)
(0.530351 0.351624 0)
(0.440214 0.373236 0)
(0.361416 0.396408 0)
(0.278352 0.421978 0)
(0.175733 0.447607 0)
(0.0739692 0.461249 0)
(3 1.05941e-07 0)
(2.99999 8.15613e-07 0)
(2.99997 2.51333e-06 0)
(2.99994 7.51902e-06 0)
(2.99983 1.77255e-05 0)
(2.99963 4.67496e-05 0)
(2.99905 0.000103514 0)
(2.99792 0.000277099 0)
(2.99431 0.000563544 0)
(2.98811 0.00177527 0)
(2.9648 0.00328447 0)
(2.91836 0.0114682 0)
(2.76762 0.0278833 0)
(2.3091 0.0770432 0)
(1.33492 0.22453 0)
(0.604587 0.358913 0)
(0.658989 0.383855 0)
(0.693687 0.377516 0)
(0.656388 0.387436 0)
(0.580422 0.409728 0)
(0.492094 0.438529 0)
(0.412103 0.470071 0)
(0.326472 0.506119 0)
(0.216707 0.54714 0)
(0.0974518 0.582311 0)
(3 1.16125e-07 0)
(2.99999 8.87936e-07 0)
(2.99997 2.73999e-06 0)
(2.99994 8.15967e-06 0)
(2.99985 1.93073e-05 0)
(2.99967 5.05026e-05 0)
(2.99914 0.000112946 0)
(2.9981 0.000291433 0)
(2.99491 0.000627919 0)
(2.98917 0.00172734 0)
(2.96849 0.00354528 0)
(2.92838 0.0104601 0)
(2.7898 0.0258031 0)
(2.38991 0.0694331 0)
(1.49348 0.198967 0)
(0.682806 0.405329 0)
(0.668079 0.434161 0)
(0.69846 0.4281 0)
(0.683574 0.44244 0)
(0.624314 0.466448 0)
(0.546534 0.50362 0)
(0.470749 0.545941 0)
(0.388622 0.595812 0)
(0.279617 0.662077 0)
(0.139509 0.744432 0)
(3 5.61042e-08 0)
(2.99999 1.40827e-06 0)
(2.99998 2.88434e-06 0)
(2.99995 1.25118e-05 0)
(2.99987 2.09047e-05 0)
(2.99971 8.03082e-05 0)
(2.99925 0.000115614 0)
(2.99835 0.000490209 0)
(2.99551 0.000535283 0)
(2.99055 0.00287772 0)
(2.97191 0.00206243 0)
(2.93761 0.0173944 0)
(2.81258 0.0129344 0)
(2.46227 0.0984806 0)
(1.64965 0.177124 0)
(0.778286 0.445888 0)
(0.673774 0.465144 0)
(0.704949 0.467927 0)
(0.706444 0.488436 0)
(0.664437 0.518842 0)
(0.602874 0.563924 0)
(0.537439 0.618242 0)
(0.469535 0.689423 0)
(0.381248 0.800725 0)
(0.21734 1.00425 0)
(3 1.01374e-07 0)
(2.99999 7.91609e-07 0)
(2.99998 2.43536e-06 0)
(2.99996 7.36462e-06 0)
(2.99991 1.74682e-05 0)
(2.99975 4.64965e-05 0)
(2.99948 0.000105245 0)
(2.99845 0.000270879 0)
(2.99689 0.000618268 0)
(2.99046 0.00157059 0)
(2.9802 0.00351824 0)
(2.93815 0.009812 0)
(2.84525 0.0236735 0)
(2.56347 0.0667804 0)
(1.71542 0.195483 0)
(0.895167 0.477285 0)
(0.677701 0.49051 0)
(0.713355 0.499184 0)
(0.729958 0.524122 0)
(0.7041 0.562886 0)
(0.66053 0.614477 0)
(0.615867 0.680337 0)
(0.583067 0.771683 0)
(0.57835 0.913814 0)
(0.610123 1.15207 0)
(3 1.43991e-07 0)
(2.99999 1.41861e-07 0)
(2.99998 1.88913e-06 0)
(2.99996 1.85527e-06 0)
(2.9999 1.31191e-05 0)
(2.99978 9.93844e-06 0)
(2.99943 8.71247e-05 0)
(2.99878 3.94514e-05 0)
(2.99659 0.000623261 0)
(2.99296 0.000304759 0)
(2.97877 0.00453102 0)
(2.95425 0.00284111 0)
(2.85937 0.0324971 0)
(2.61259 0.0480494 0)
(1.98334 0.198986 0)
(1.02019 0.519609 0)
(0.692659 0.523558 0)
(0.729382 0.530902 0)
(0.757901 0.554292 0)
(0.746318 0.59805 0)
(0.720273 0.654721 0)
(0.700291 0.728273 0)
(0.704895 0.827948 0)
(0.761804 0.966904 0)
(0.903456 1.14694 0)
(3 7.77028e-08 0)
(2.99999 6.06342e-07 0)
(2.99999 1.86301e-06 0)
(2.99997 5.65104e-06 0)
(2.99991 1.33281e-05 0)
(2.99981 3.58851e-05 0)
(2.9995 7.97869e-05 0)
(2.9989 0.000219162 0)
(2.99711 0.000446613 0)
(2.99372 0.00144606 0)
(2.98243 0.00259104 0)
(2.96155 0.0100171 0)
(2.88683 0.0192288 0)
(2.69287 0.0751732 0)
(2.19407 0.184131 0)
(1.17856 0.538792 0)
(0.732123 0.563221 0)
(0.759664 0.572707 0)
(0.79416 0.585986 0)
(0.794653 0.627626 0)
(0.782609 0.686083 0)
(0.784001 0.760458 0)
(0.81595 0.855169 0)
(0.900752 0.970846 0)
(1.0674 1.08538 0)
(3 8.47861e-08 0)
(3 6.60747e-07 0)
(2.99999 2.03169e-06 0)
(2.99997 6.15309e-06 0)
(2.99993 1.46e-05 0)
(2.99984 3.90883e-05 0)
(2.99959 8.82584e-05 0)
(2.99908 0.000232008 0)
(2.99761 0.000516489 0)
(2.99475 0.00138293 0)
(2.98583 0.00301539 0)
(2.96835 0.00863604 0)
(2.91084 0.0191844 0)
(2.76526 0.0604316 0)
(2.38318 0.151479 0)
(1.37953 0.461055 0)
(0.82587 0.581984 0)
(0.81288 0.612467 0)
(0.838955 0.62362 0)
(0.850562 0.656784 0)
(0.84831 0.710846 0)
(0.862327 0.779668 0)
(0.908983 0.86083 0)
(1.00242 0.950055 0)
(1.16337 1.0243 0)
(3 8.18336e-08 0)
(3 6.37786e-07 0)
(2.99999 1.96254e-06 0)
(2.99998 5.93669e-06 0)
(2.99994 1.41043e-05 0)
(2.99987 3.76252e-05 0)
(2.99966 8.51568e-05 0)
(2.99926 0.000220608 0)
(2.99807 0.000502762 0)
(2.9958 0.00125194 0)
(2.98843 0.00298986 0)
(2.97524 0.00705278 0)
(2.92788 0.0177915 0)
(2.81255 0.0454324 0)
(2.49985 0.120195 0)
(1.57759 0.3437 0)
(0.921137 0.612142 0)
(0.852025 0.651953 0)
(0.87385 0.667675 0)
(0.898041 0.687446 0)
(0.908925 0.731432 0)
(0.931816 0.790521 0)
(0.984631 0.856995 0)
(1.07762 0.924102 0)
(1.22423 0.974758 0)
(3 6.87816e-08 0)
(3 5.32854e-07 0)
(2.99999 1.64149e-06 0)
(2.99998 4.93674e-06 0)
(2.99995 1.17032e-05 0)
(2.9999 3.09641e-05 0)
(2.99974 6.97e-05 0)
(2.99943 0.000180089 0)
(2.99847 0.000400202 0)
(2.99683 0.00103708 0)
(2.99063 0.00230113 0)
(2.98084 0.00615676 0)
(2.94145 0.0137491 0)
(2.8553 0.039388 0)
(2.5994 0.101999 0)
(1.80441 0.300028 0)
(1.07128 0.654545 0)
(0.882386 0.685198 0)
(0.897473 0.701282 0)
(0.930948 0.71188 0)
(0.95922 0.746373 0)
(0.991088 0.795405 0)
(1.04653 0.849785 0)
(1.13518 0.901058 0)
(1.26546 0.937139 0)
(3 5.59214e-08 0)
(3 4.31178e-07 0)
(2.99999 1.32897e-06 0)
(2.99999 3.97995e-06 0)
(2.99996 9.40666e-06 0)
(2.99992 2.47651e-05 0)
(2.99979 5.53485e-05 0)
(2.99953 0.000144111 0)
(2.99878 0.00030756 0)
(2.99739 0.00086765 0)
(2.99266 0.00168683 0)
(2.98486 0.00556753 0)
(2.9544 0.0108626 0)
(2.89019 0.0368285 0)
(2.69454 0.0876896 0)
(2.07124 0.279883 0)
(1.26756 0.681088 0)
(0.933346 0.718234 0)
(0.930766 0.72739 0)
(0.964117 0.732392 0)
(1.00404 0.755705 0)
(1.04238 0.795599 0)
(1.09833 0.840444 0)
(1.18123 0.880873 0)
(1.29624 0.907964 0)
(3 4.90536e-08 0)
(3 3.78876e-07 0)
(3 1.16795e-06 0)
(2.99999 3.50593e-06 0)
(2.99997 8.31394e-06 0)
(2.99994 2.1955e-05 0)
(2.99984 4.94019e-05 0)
(2.99964 0.000127661 0)
(2.99907 0.000282141 0)
(2.99798 0.000746341 0)
(2.99453 0.00157859 0)
(2.98855 0.00461901 0)
(2.96659 0.00934795 0)
(2.92283 0.0295329 0)
(2.78504 0.0719265 0)
(2.36437 0.216686 0)
(1.55529 0.586167 0)
(1.05234 0.72729 0)
(0.996976 0.749313 0)
(1.01206 0.757615 0)
(1.0522 0.768107 0)
(1.09337 0.797154 0)
(1.14584 0.832779 0)
(1.2208 0.864623 0)
(1.32176 0.88517 0)
(3 2.68527e-08 0)
(3 3.57287e-07 0)
(3 8.79723e-07 0)
(2.99999 3.20655e-06 0)
(2.99998 6.3739e-06 0)
(2.99995 1.99869e-05 0)
(2.99988 3.8053e-05 0)
(2.99973 0.000116303 0)
(2.9993 0.000215683 0)
(2.99847 0.000681869 0)
(2.99588 0.0011475 0)
(2.99138 0.00419722 0)
(2.97462 0.00577066 0)
(2.94455 0.0261995 0)
(2.83553 0.0410739 0)
(2.53827 0.164764 0)
(1.84958 0.395138 0)
(1.16536 0.740667 0)
(1.04728 0.774458 0)
(1.05267 0.788506 0)
(1.09178 0.789798 0)
(1.13873 0.804923 0)
(1.18947 0.830299 0)
(1.2565 0.854303 0)
(1.34455 0.869156 0)
(3 1.99699e-08 0)
(3 2.68293e-07 0)
(3 6.58103e-07 0)
(2.99999 2.40696e-06 0)
(2.99999 4.76293e-06 0)
(2.99996 1.49549e-05 0)
(2.99992 2.83336e-05 0)
(2.99979 8.65624e-05 0)
(2.99954 0.000161487 0)
(2.99875 0.000500152 0)
(2.99745 0.000893884 0)
(2.99242 0.00304951 0)
(2.9845 0.00475185 0)
(2.95307 0.0199648 0)
(2.88643 0.0315462 0)
(2.68192 0.128327 0)
(2.08044 0.317879 0)
(1.35581 0.754467 0)
(1.0979 0.806517 0)
(1.08933 0.817271 0)
(1.12263 0.814628 0)
(1.17511 0.815966 0)
(1.22786 0.831069 0)
(1.28907 0.847958 0)
(1.36624 0.858375 0)
(3 3.69155e-08 0)
(3 1.34834e-07 0)
(3 6.37754e-07 0)
(3 1.34185e-06 0)
(2.99999 4.41172e-06 0)
(2.99997 8.40984e-06 0)
(2.99994 2.58488e-05 0)
(2.99984 4.77433e-05 0)
(2.99964 0.00014841 0)
(2.99908 0.000258304 0)
(2.998 0.0008952 0)
(2.9946 0.00137822 0)
(2.98871 0.00576273 0)
(2.96718 0.00850712 0)
(2.92448 0.0378001 0)
(2.7903 0.0731078 0)
(2.38193 0.261717 0)
(1.64555 0.64448 0)
(1.2119 0.80723 0)
(1.15086 0.833233 0)
(1.1636 0.838991 0)
(1.21085 0.832411 0)
(1.26467 0.836245 0)
(1.32093 0.845412 0)
(1.38869 0.851369 0)
(3 2.31288e-08 0)
(3 1.26172e-07 0)
(3 4.68541e-07 0)
(3 1.20281e-06 0)
(2.99999 3.29742e-06 0)
(2.99998 7.55508e-06 0)
(2.99995 1.95126e-05 0)
(2.99989 4.35786e-05 0)
(2.99972 0.000111348 0)
(2.99938 0.00024652 0)
(2.99838 0.000636439 0)
(2.99646 0.00137754 0)
(2.99046 0.003768 0)
(2.97912 0.00783117 0)
(2.94175 0.0230075 0)
(2.85257 0.0546905 0)
(2.60288 0.153009 0)
(1.91269 0.460626 0)
(1.34614 0.791091 0)
(1.20733 0.842518 0)
(1.20299 0.862132 0)
(1.24053 0.856753 0)
(1.29557 0.848307 0)
(1.35009 0.848357 0)
(1.41093 0.849288 0)
(3 1.38445e-08 0)
(3 1.07608e-07 0)
(3 3.31409e-07 0)
(3 9.98613e-07 0)
(2.99999 2.36789e-06 0)
(2.99999 6.2725e-06 0)
(2.99997 1.41301e-05 0)
(2.99992 3.65085e-05 0)
(2.99981 8.12592e-05 0)
(2.99952 0.000209864 0)
(2.99895 0.000464707 0)
(2.99721 0.0012146 0)
(2.99409 0.00268518 0)
(2.98314 0.00718903 0)
(2.96356 0.0163741 0)
(2.89418 0.0440756 0)
(2.71971 0.121404 0)
(2.25529 0.320672 0)
(1.52391 0.782933 0)
(1.2676 0.864699 0)
(1.24293 0.881853 0)
(1.26448 0.880244 0)
(1.31641 0.865374 0)
(1.37415 0.856787 0)
(1.43213 0.852492 0)
(3 1.33246e-08 0)
(3 7.15231e-08 0)
(3 2.67109e-07 0)
(3 6.8482e-07 0)
(3 1.88707e-06 0)
(2.99999 4.32352e-06 0)
(2.99998 1.12344e-05 0)
(2.99995 2.51177e-05 0)
(2.99986 6.45642e-05 0)
(2.9997 0.000143364 0)
(2.99922 0.00037026 0)
(2.99831 0.000813615 0)
(2.99544 0.00216854 0)
(2.99049 0.00462874 0)
(2.97253 0.0131642 0)
(2.93841 0.0294473 0)
(2.82593 0.0846444 0)
(2.51651 0.237322 0)
(1.85117 0.611622 0)
(1.37735 0.858554 0)
(1.29681 0.888205 0)
(1.29899 0.897126 0)
(1.3393 0.884342 0)
(1.39609 0.867581 0)
(1.45241 0.858289 0)
(3 5.24967e-09 0)
(3 6.06583e-08 0)
(3 1.57602e-07 0)
(3 5.48185e-07 0)
(3 1.1375e-06 0)
(2.99999 3.40276e-06 0)
(2.99998 6.76213e-06 0)
(2.99996 1.95814e-05 0)
(2.99991 3.84869e-05 0)
(2.99977 0.000111053 0)
(2.99951 0.000216542 0)
(2.9987 0.000635795 0)
(2.99727 0.00119843 0)
(2.9923 0.00381058 0)
(2.98414 0.00659387 0)
(2.95325 0.023866 0)
(2.88921 0.0450914 0)
(2.6918 0.152226 0)
(2.12856 0.411931 0)
(1.55158 0.8281 0)
(1.35313 0.896632 0)
(1.33556 0.910141 0)
(1.35892 0.902782 0)
(1.41206 0.881859 0)
(1.47053 0.866404 0)
(3 7.99095e-09 0)
(3 3.27157e-08 0)
(3 1.43567e-07 0)
(3 3.21707e-07 0)
(3 9.97496e-07 0)
(3 2.02491e-06 0)
(2.99999 5.85484e-06 0)
(2.99997 1.16205e-05 0)
(2.99994 3.31364e-05 0)
(2.99984 6.51846e-05 0)
(2.99966 0.000187101 0)
(2.99913 0.000360593 0)
(2.99809 0.00108504 0)
(2.99498 0.0019519 0)
(2.98925 0.00666096 0)
(2.97034 0.0111915 0)
(2.93111 0.0421643 0)
(2.81401 0.0846093 0)
(2.45821 0.291176 0)
(1.83436 0.681962 0)
(1.46197 0.872949 0)
(1.39299 0.905783 0)
(1.39333 0.914285 0)
(1.43254 0.899082 0)
(1.48799 0.876137 0)
(3 4.73219e-09 0)
(3 2.57953e-08 0)
(3 9.5693e-08 0)
(3 2.45646e-07 0)
(3 6.71411e-07 0)
(3 1.53783e-06 0)
(2.99999 3.94984e-06 0)
(2.99998 8.82325e-06 0)
(2.99996 2.23403e-05 0)
(2.9999 4.95481e-05 0)
(2.99975 0.000125295 0)
(2.99945 0.000276865 0)
(2.9986 0.000706149 0)
(2.99693 0.00154252 0)
(2.99186 0.00408391 0)
(2.98226 0.00866089 0)
(2.95149 0.0244071 0)
(2.87942 0.0572787 0)
(2.6767 0.160759 0)
(2.12037 0.463678 0)
(1.60536 0.835988 0)
(1.44877 0.90557 0)
(1.43052 0.922641 0)
(1.45108 0.91679 0)
(1.50087 0.892702 0)
(3 2.52046e-09 0)
(3 1.95567e-08 0)
(3 6.02789e-08 0)
(3 1.81042e-07 0)
(3 4.29139e-07 0)
(3 1.12918e-06 0)
(3 2.5406e-06 0)
(2.99999 6.49687e-06 0)
(2.99997 1.44385e-05 0)
(2.99993 3.67374e-05 0)
(2.99985 8.13194e-05 0)
(2.99961 0.000207515 0)
(2.99914 0.000457808 0)
(2.99779 0.00118144 0)
(2.99518 0.00259977 0)
(2.9872 0.00686369 0)
(2.97162 0.015424 0)
(2.92248 0.040952 0)
(2.80177 0.109358 0)
(2.47091 0.28912 0)
(1.83369 0.732644 0)
(1.52861 0.895994 0)
(1.47344 0.925764 0)
(1.47689 0.932996 0)
(1.51514 0.916165 0)
(3 2.58777e-09 0)
(3 1.09153e-08 0)
(3 4.69746e-08 0)
(3 1.07246e-07 0)
(3 3.27254e-07 0)
(3 6.76218e-07 0)
(3 1.92354e-06 0)
(2.99999 3.89155e-06 0)
(2.99998 1.08909e-05 0)
(2.99996 2.19149e-05 0)
(2.99989 6.11843e-05 0)
(2.99977 0.000122707 0)
(2.99941 0.000344315 0)
(2.99872 0.000685856 0)
(2.9966 0.0019645 0)
(2.99292 0.00384259 0)
(2.97987 0.0116001 0)
(2.95655 0.0229093 0)
(2.87573 0.071464 0)
(2.66744 0.175676 0)
(2.17037 0.49 0)
(1.66146 0.860183 0)
(1.52488 0.928485 0)
(1.50826 0.943999 0)
(1.52703 0.937173 0)
(3 9.29049e-10 0)
(3 9.61543e-09 0)
(3 2.60947e-08 0)
(3 8.70412e-08 0)
(3 1.86863e-07 0)
(3 5.37443e-07 0)
(3 1.10257e-06 0)
(2.99999 3.06504e-06 0)
(2.99999 6.22557e-06 0)
(2.99997 1.71626e-05 0)
(2.99993 3.47283e-05 0)
(2.99985 9.57397e-05 0)
(2.99961 0.000192802 0)
(2.99914 0.000538489 0)
(2.99781 0.00105385 0)
(2.99523 0.00315226 0)
(2.98745 0.00567677 0)
(2.97206 0.0193689 0)
(2.9248 0.0348409 0)
(2.80676 0.124086 0)
(2.49893 0.291632 0)
(1.89857 0.738589 0)
(1.60746 0.909477 0)
(1.5502 0.942081 0)
(1.55042 0.94986 0)
(3 6.37006e-10 0)
(3 6.4462e-09 0)
(3 1.76207e-08 0)
(3 5.83731e-08 0)
(3 1.25994e-07 0)
(3 3.60401e-07 0)
(3 7.43162e-07 0)
(3 2.05609e-06 0)
(2.99999 4.19902e-06 0)
(2.99998 1.15229e-05 0)
(2.99996 2.34745e-05 0)
(2.9999 6.43462e-05 0)
(2.99978 0.000130765 0)
(2.99943 0.000359855 0)
(2.99878 0.000727406 0)
(2.99677 0.00203467 0)
(2.99328 0.00404826 0)
(2.98098 0.0118533 0)
(2.95916 0.0239213 0)
(2.8834 0.0724233 0)
(2.6914 0.178197 0)
(2.23184 0.487927 0)
(1.74423 0.865082 0)
(1.60242 0.939209 0)
(1.58142 0.955827 0)
(3 7.40434e-10 0)
(3 3.26518e-09 0)
(3 1.36558e-08 0)
(3 3.17979e-08 0)
(3 9.47379e-08 0)
(3 1.98998e-07 0)
(3 5.52524e-07 0)
(3 1.1353e-06 0)
(3 3.09764e-06 0)
(2.99999 6.3323e-06 0)
(2.99997 1.7199e-05 0)
(2.99993 3.50596e-05 0)
(2.99986 9.52932e-05 0)
(2.99964 0.000193355 0)
(2.99921 0.000532319 0)
(2.99799 0.00105023 0)
(2.99562 0.00309023 0)
(2.98862 0.00563024 0)
(2.97453 0.0188067 0)
(2.93278 0.0341099 0)
(2.82918 0.119291 0)
(2.55884 0.279617 0)
(1.99425 0.712612 0)
(1.6932 0.903241 0)
(1.62741 0.944901 0)
(3 4.18067e-10 0)
(3 2.27738e-09 0)
(3 8.43461e-09 0)
(3 2.16432e-08 0)
(3 5.89476e-08 0)
(3 1.34743e-07 0)
(3 3.44567e-07 0)
(3 7.67752e-07 0)
(3 1.9345e-06 0)
(2.99999 4.28438e-06 0)
(2.99998 1.07581e-05 0)
(2.99996 2.37782e-05 0)
(2.99991 5.96999e-05 0)
(2.9998 0.00013171 0)
(2.99949 0.000331607 0)
(2.9989 0.000729348 0)
(2.9971 0.00185575 0)
(2.99399 0.00406055 0)
(2.98294 0.0105504 0)
(2.96382 0.0240769 0)
(2.89606 0.0634383 0)
(2.73086 0.167712 0)
(2.32159 0.434871 0)
(1.83027 0.843471 0)
(1.6765 0.934567 0)
(3 1.62797e-10 0)
(3 1.61645e-09 0)
(3 4.4575e-09 0)
(3 1.46483e-08 0)
(3 3.18109e-08 0)
(3 9.00851e-08 0)
(3 1.86569e-07 0)
(3 5.10133e-07 0)
(3 1.04528e-06 0)
(3 2.8314e-06 0)
(2.99999 5.78563e-06 0)
(2.99998 1.56305e-05 0)
(2.99995 3.18692e-05 0)
(2.99987 8.61937e-05 0)
(2.99971 0.000175003 0)
(2.99926 0.000479715 0)
(2.99839 0.000949486 0)
(2.99585 0.00276784 0)
(2.99118 0.00514425 0)
(2.97615 0.0167219 0)
(2.94578 0.0312726 0)
(2.85522 0.105141 0)
(2.60664 0.258474 0)
(2.1191 0.646295 0)
(1.78146 0.888151 0)
(3 1.62104e-10 0)
(3 8.7568e-10 0)
(3 3.24567e-09 0)
(3 8.32221e-09 0)
(3 2.26317e-08 0)
(3 5.16665e-08 0)
(3 1.3175e-07 0)
(3 2.92994e-07 0)
(3 7.35525e-07 0)
(3 1.62516e-06 0)
(2.99999 4.06314e-06 0)
(2.99998 8.95819e-06 0)
(2.99997 2.23783e-05 0)
(2.99992 4.92477e-05 0)
(2.99982 0.000123179 0)
(2.99955 0.000270464 0)
(2.99901 0.00068143 0)
(2.99748 0.00148093 0)
(2.99457 0.00386718 0)
(2.9855 0.00810841 0)
(2.96889 0.0226106 0)
(2.91402 0.0504845 0)
(2.77767 0.144749 0)
(2.4394 0.376008 0)
(1.95318 0.785707 0)
(3 1.15199e-10 0)
(3 5.27568e-10 0)
(3 2.15994e-09 0)
(3 5.10284e-09 0)
(3 1.49497e-08 0)
(3 3.17773e-08 0)
(3 8.67827e-08 0)
(3 1.80301e-07 0)
(3 4.83906e-07 0)
(3 1.00056e-06 0)
(3 2.67218e-06 0)
(2.99999 5.52103e-06 0)
(2.99998 1.47196e-05 0)
(2.99995 3.03986e-05 0)
(2.99989 8.105e-05 0)
(2.99973 0.000167065 0)
(2.9994 0.000447152 0)
(2.9985 0.000916294 0)
(2.99671 0.0025016 0)
(2.99164 0.00499921 0)
(2.98115 0.0146964 0)
(2.9516 0.0284881 0)
(2.88059 0.0904843 0)
(2.69134 0.212475 0)
(2.22675 0.579809 0)
(3 7.028e-11 0)
(3 3.22508e-10 0)
(3 1.31736e-09 0)
(3 3.12024e-09 0)
(3 9.11894e-09 0)
(3 1.94274e-08 0)
(3 5.29097e-08 0)
(3 1.10148e-07 0)
(3 2.94752e-07 0)
(3 6.10558e-07 0)
(3 1.62582e-06 0)
(3 3.36455e-06 0)
(2.99999 8.94558e-06 0)
(2.99997 1.85015e-05 0)
(2.99993 4.92066e-05 0)
(2.99985 0.000101609 0)
(2.99963 0.000271109 0)
(2.99919 0.000558072 0)
(2.99797 0.00150159 0)
(2.99561 0.00309238 0)
(2.98858 0.0084339 0)
(2.97509 0.017872 0)
(2.93381 0.0494379 0)
(2.83447 0.117808 0)
(2.56928 0.327512 0)
(3 2.54057e-11 0)
(3 2.40466e-10 0)
(3 6.77154e-10 0)
(3 2.17714e-09 0)
(3 4.8048e-09 0)
(3 1.33295e-08 0)
(3 2.80094e-08 0)
(3 7.50305e-08 0)
(3 1.55909e-07 0)
(3 4.13717e-07 0)
(3 8.57556e-07 0)
(3 2.26845e-06 0)
(2.99999 4.69912e-06 0)
(2.99998 1.24139e-05 0)
(2.99996 2.56933e-05 0)
(2.99991 6.78781e-05 0)
(2.99978 0.000140184 0)
(2.99953 0.000371521 0)
(2.99882 0.000762928 0)
(2.99742 0.00205279 0)
(2.99346 0.00415245 0)
(2.98543 0.0116644 0)
(2.96272 0.0236366 0)
(2.90987 0.0688543 0)
(2.76673 0.163841 0)
(3 1.79592e-11 0)
(3 1.37658e-10 0)
(3 4.25273e-10 0)
(3 1.26374e-09 0)
(3 2.99136e-09 0)
(3 7.75473e-09 0)
(3 1.73782e-08 0)
(3 4.36359e-08 0)
(3 9.65134e-08 0)
(3 2.40364e-07 0)
(3 5.2986e-07 0)
(3 1.31648e-06 0)
(3 2.89882e-06 0)
(2.99999 7.19702e-06 0)
(2.99998 1.58315e-05 0)
(2.99995 3.9317e-05 0)
(2.99988 8.63394e-05 0)
(2.99971 0.000214897 0)
(2.99937 0.000470764 0)
(2.99844 0.00117983 0)
(2.99657 0.00257998 0)
(2.99134 0.00654776 0)
(2.98043 0.0146967 0)
(2.95024 0.0375678 0)
(2.87827 0.0933286 0)
(3 1.46408e-11 0)
(3 6.72913e-11 0)
(3 2.73306e-10 0)
(3 6.5166e-10 0)
(3 1.88923e-09 0)
(3 4.04614e-09 0)
(3 1.0914e-08 0)
(3 2.28158e-08 0)
(3 6.04114e-08 0)
(3 1.25578e-07 0)
(3 3.30702e-07 0)
(3 6.86574e-07 0)
(3 1.80447e-06 0)
(2.99999 3.74463e-06 0)
(2.99999 9.83508e-06 0)
(2.99997 2.03925e-05 0)
(2.99993 5.36006e-05 0)
(2.99985 0.000110958 0)
(2.99962 0.000292766 0)
(2.99917 0.00060384 0)
(2.99793 0.00160811 0)
(2.99553 0.00332907 0)
(2.98841 0.00894302 0)
(2.97491 0.0192036 0)
(2.93354 0.0518046 0)
(3 5.32492e-12 0)
(3 4.90468e-11 0)
(3 1.39531e-10 0)
(3 4.44103e-10 0)
(3 9.87386e-10 0)
(3 2.71043e-09 0)
(3 5.73021e-09 0)
(3 1.51782e-08 0)
(3 3.17115e-08 0)
(3 8.31813e-08 0)
(3 1.73314e-07 0)
(3 4.53135e-07 0)
(3 9.43647e-07 0)
(3 2.46334e-06 0)
(2.99999 5.1291e-06 0)
(2.99998 1.33773e-05 0)
(2.99996 2.78361e-05 0)
(2.99991 7.26059e-05 0)
(2.99979 0.000150799 0)
(2.99953 0.000394445 0)
(2.99884 0.000815047 0)
(2.99745 0.00216255 0)
(2.99362 0.00440125 0)
(2.98576 0.012208 0)
(2.96397 0.0247108 0)
(3 3.55523e-12 0)
(3 2.72361e-11 0)
(3 8.41359e-11 0)
(3 2.49442e-10 0)
(3 5.90205e-10 0)
(3 1.52488e-09 0)
(3 3.41353e-09 0)
(3 8.53586e-09 0)
(3 1.885e-08 0)
(3 4.67343e-08 0)
(3 1.02841e-07 0)
(3 2.54335e-07 0)
(3 5.59104e-07 0)
(3 1.38145e-06 0)
(3 3.03525e-06 0)
(2.99999 7.49729e-06 0)
(2.99998 1.64595e-05 0)
(2.99995 4.06745e-05 0)
(2.99989 8.9161e-05 0)
(2.99973 0.000220817 0)
(2.9994 0.000483004 0)
(2.99852 0.00120328 0)
(2.99675 0.00263338 0)
(2.99187 0.00662032 0)
(2.98166 0.0148633 0)
(3 2.48567e-12 0)
(3 1.3614e-11 0)
(3 5.03236e-11 0)
(3 1.29115e-10 0)
(3 3.49096e-10 0)
(3 7.95261e-10 0)
(3 2.01106e-09 0)
(3 4.45544e-09 0)
(3 1.10749e-08 0)
(3 2.43608e-08 0)
(3 6.02632e-08 0)
(3 1.32294e-07 0)
(3 3.26753e-07 0)
(3 7.16785e-07 0)
(3 1.76929e-06 0)
(3 3.8787e-06 0)
(2.99999 9.57391e-06 0)
(2.99997 2.09657e-05 0)
(2.99994 5.18005e-05 0)
(2.99986 0.000113275 0)
(2.99965 0.000280802 0)
(2.99925 0.000612507 0)
(2.99813 0.00152841 0)
(2.99595 0.00336201 0)
(2.98966 0.00838063 0)
(3 9.43657e-13 0)
(3 8.80103e-12 0)
(3 2.50093e-11 0)
(3 7.9506e-11 0)
(3 1.76737e-10 0)
(3 4.83289e-10 0)
(3 1.02094e-09 0)
(3 2.69064e-09 0)
(3 5.61341e-09 0)
(3 1.46427e-08 0)
(3 3.04471e-08 0)
(3 7.91543e-08 0)
(3 1.64427e-07 0)
(3 4.26806e-07 0)
(3 8.86224e-07 0)
(3 2.298e-06 0)
(2.99999 4.76923e-06 0)
(2.99998 1.23582e-05 0)
(2.99997 2.56209e-05 0)
(2.99992 6.63976e-05 0)
(2.99982 0.000137361 0)
(2.99956 0.000356935 0)
(2.99904 0.000734717 0)
(2.99757 0.00193336 0)
(2.99492 0.00393049 0)
(3 8.65013e-13 0)
(3 3.96606e-12 0)
(3 1.60208e-11 0)
(3 3.81929e-11 0)
(3 1.10012e-10 0)
(3 2.35214e-10 0)
(3 6.29066e-10 0)
(3 1.31054e-09 0)
(3 3.43755e-09 0)
(3 7.10983e-09 0)
(3 1.85473e-08 0)
(3 3.82617e-08 0)
(3 9.96389e-08 0)
(3 2.05252e-07 0)
(3 5.34122e-07 0)
(3 1.09889e-06 0)
(3 2.8584e-06 0)
(2.99999 5.87157e-06 0)
(2.99998 1.52715e-05 0)
(2.99995 3.12867e-05 0)
(2.9999 8.14605e-05 0)
(2.99974 0.000166104 0)
(2.99944 0.000435687 0)
(2.99862 0.0008732 0)
(2.99697 0.00237907 0)
(3 4.61832e-13 0)
(3 2.06776e-12 0)
(3 8.56377e-12 0)
(3 2.01034e-11 0)
(3 5.86742e-11 0)
(3 1.23451e-10 0)
(3 3.3428e-10 0)
(3 6.83852e-10 0)
(3 1.81654e-09 0)
(3 3.68056e-09 0)
(3 9.73553e-09 0)
(3 1.96224e-08 0)
(3 5.19032e-08 0)
(3 1.04148e-07 0)
(3 2.75884e-07 0)
(3 5.50937e-07 0)
(3 1.46271e-06 0)
(2.99999 2.90403e-06 0)
(2.99999 7.7347e-06 0)
(2.99997 1.52357e-05 0)
(2.99993 4.07814e-05 0)
(2.99985 7.94165e-05 0)
(2.99963 0.000214428 0)
(2.99919 0.000410411 0)
(2.99797 0.00112657 0)
(3 1.75141e-13 0)
(3 1.25789e-12 0)
(3 3.90012e-12 0)
(3 1.14536e-11 0)
(3 2.70844e-11 0)
(3 6.91507e-11 0)
(3 1.54054e-10 0)
(3 3.79216e-10 0)
(3 8.3136e-10 0)
(3 2.02217e-09 0)
(3 4.41033e-09 0)
(3 1.06708e-08 0)
(3 2.32207e-08 0)
(3 5.59779e-08 0)
(3 1.21621e-07 0)
(3 2.92169e-07 0)
(3 6.33839e-07 0)
(3 1.51672e-06 0)
(2.99999 3.28598e-06 0)
(2.99998 7.82361e-06 0)
(2.99995 1.69331e-05 0)
(2.99989 3.99373e-05 0)
(2.99972 8.68538e-05 0)
(2.99938 0.000197504 0)
(2.99838 0.000448258 0)
(3 5.05573e-14 0)
(3 7.41568e-13 0)
(3 1.72575e-12 0)
(3 6.32181e-12 0)
(3 1.22402e-11 0)
(3 3.78834e-11 0)
(3 6.90904e-11 0)
(3 2.06814e-10 0)
(3 3.66765e-10 0)
(3 1.10018e-09 0)
(3 1.90878e-09 0)
(3 5.80403e-09 0)
(3 9.84785e-09 0)
(3 3.05233e-08 0)
(3 5.05272e-08 0)
(3 1.6037e-07 0)
(3 2.58013e-07 0)
(3 8.43756e-07 0)
(2.99999 1.31045e-06 0)
(2.99998 4.45779e-06 0)
(2.99996 6.54027e-06 0)
(2.99991 2.3865e-05 0)
(2.99976 2.9875e-05 0)
(2.99949 0.00013165 0)
(2.99855 0.000103937 0)
(3 1.46854e-14 0)
(3 2.65707e-13 0)
(3 8.09835e-13 0)
(3 2.42623e-12 0)
(3 5.66334e-12 0)
(3 1.42941e-11 0)
(3 3.15274e-11 0)
(3 7.61488e-11 0)
(3 1.65401e-10 0)
(3 3.93558e-10 0)
(3 8.49116e-10 0)
(3 2.00624e-09 0)
(3 4.31248e-09 0)
(3 1.01306e-08 0)
(3 2.17153e-08 0)
(3 5.06916e-08 0)
(3 1.08435e-07 0)
(3 2.50996e-07 0)
(2.99999 5.36607e-07 0)
(2.99998 1.22489e-06 0)
(2.99997 2.61898e-06 0)
(2.99991 5.7495e-06 0)
(2.99981 1.28155e-05 0)
(2.99944 2.41341e-05 0)
(2.99886 5.97366e-05 0)
(3 2.59517e-14 0)
(3 -2.39385e-14 0)
(3 4.49989e-13 0)
(3 8.35722e-14 0)
(3 2.90178e-12 0)
(3 4.87356e-13 0)
(3 1.61671e-11 0)
(3 1.24836e-12 0)
(3 8.805e-11 0)
(3 -4.15537e-12 0)
(3 4.73334e-10 0)
(3 -9.61196e-11 0)
(3 2.52596e-09 0)
(3 -9.92765e-10 0)
(3 1.33782e-08 0)
(3 -8.45331e-09 0)
(3 7.03241e-08 0)
(3 -6.66964e-08 0)
(2.99999 3.69062e-07 0)
(2.99999 -5.07835e-07 0)
(2.99996 2.0146e-06 0)
(2.99992 -4.11568e-06 0)
(2.99978 1.40853e-05 0)
(2.99953 -3.97824e-05 0)
(2.9986 0.000127394 0)
(1.27847 1.06253 0)
(1.70886 0.866557 0)
(1.91092 0.603842 0)
(1.9475 0.339959 0)
(1.90207 0.125009 0)
(1.81021 -0.0155955 0)
(1.71369 -0.0523603 0)
(1.66283 -0.02369 0)
(1.6536 0.0170684 0)
(1.65637 0.039698 0)
(1.65853 0.0392859 0)
(1.65786 0.0287463 0)
(1.65462 0.0179284 0)
(1.6477 0.00970074 0)
(1.63484 0.00670047 0)
(1.61398 0.0100955 0)
(1.57592 0.0177805 0)
(1.49698 0.0303493 0)
(1.32738 0.051938 0)
(0.968612 0.0906671 0)
(0.502936 0.158991 0)
(0.14398 0.180874 0)
(-0.0513075 0.149351 0)
(-0.283759 0.0969861 0)
(-0.469033 0.0469925 0)
(-0.617667 0.0146225 0)
(-0.734283 -0.00432858 0)
(-0.815552 -0.0072151 0)
(-0.867373 0.00491529 0)
(-0.901988 0.0168582 0)
(-0.923233 0.0223287 0)
(-0.934291 0.0196537 0)
(-0.935717 0.0128549 0)
(-0.919092 0.00334457 0)
(-0.877144 -0.00553434 0)
(-0.806674 -0.0140503 0)
(-0.713892 -0.0224246 0)
(-0.609278 -0.0304967 0)
(-0.501457 -0.0374553 0)
(-0.390528 -0.0460542 0)
(-0.286502 -0.0490085 0)
(-0.187984 -0.0502409 0)
(-0.0969107 -0.0517378 0)
(-0.00669124 -0.0540576 0)
(0.0821585 -0.0458187 0)
(0.154845 -0.0408776 0)
(0.224526 -0.0378652 0)
(0.288691 -0.0354308 0)
(0.346922 -0.0328168 0)
(0.399883 -0.0303287 0)
(0.453016 -0.0290433 0)
(0.506835 -0.0289901 0)
(0.557418 -0.0275425 0)
(0.604699 -0.0257126 0)
(0.649541 -0.024118 0)
(0.692288 -0.022718 0)
(0.733271 -0.0214728 0)
(0.772566 -0.0202975 0)
(0.810365 -0.0192102 0)
(0.846729 -0.0181632 0)
(0.881824 -0.017189 0)
(0.915716 -0.0162389 0)
(0.948554 -0.01535 0)
(0.980395 -0.0144818 0)
(1.01137 -0.0136684 0)
(1.04151 -0.012887 0)
(1.0709 -0.0121554 0)
(1.09956 -0.0114645 0)
(1.12755 -0.0108174 0)
(1.15487 -0.0102065 0)
(1.18157 -0.00963187 0)
(1.20766 -0.00908199 0)
(1.23317 -0.00855917 0)
(1.25813 -0.00805089 0)
(1.28256 -0.00756258 0)
(1.30649 -0.00708316 0)
(1.32995 -0.00662049 0)
(1.35295 -0.00616593 0)
(1.3755 -0.00572862 0)
(1.39763 -0.00530137 0)
(1.41934 -0.00489346 0)
(1.44065 -0.00449704 0)
(1.46157 -0.00411996 0)
(1.48211 -0.00375362 0)
(1.5023 -0.00340739 0)
(1.52213 -0.00306647 0)
(1.54163 -0.0027405 0)
(1.56081 -0.00241881 0)
(1.57967 -0.00211361 0)
(1.5982 -0.00182437 0)
(1.61641 -0.00156985 0)
(1.63429 -0.00134074 0)
(1.6518 -0.00115099 0)
(1.66889 -0.000968627 0)
(1.68549 -0.000752604 0)
(1.70145 -0.000478275 0)
(1.71642 -0.000137845 0)
(1.72983 0.000300987 0)
(1.74026 0.00091681 0)
(1.74763 0.00162396 0)
(1.36483 0.979755 0)
(1.68151 0.707865 0)
(1.8616 0.404805 0)
(1.95184 0.143407 0)
(2.00272 -0.0423659 0)
(2.03191 -0.142478 0)
(2.04182 -0.153835 0)
(2.04082 -0.118646 0)