/*--------------------------------*- C++ -*----------------------------------*\
| =========                 |                                                 |
| \\      /  F ield         | OpenFOAM: The Open Source CFD Toolbox           |
|  \\    /   O peration     | Version:  2412                                  |
|   \\  /    A nd           | Website:  www.openfoam.com                      |
|    \\/     M anipulation  |                                                 |
\*---------------------------------------------------------------------------*/
FoamFile
{
    version     2.0;
    format      ascii;
    arch        "LSB;label=32;scalar=64";
    class       volScalarField;
    location    "1";
    object      Ma;
}
// * * * * * * * * * * * * * * * * * * * * * * * * * * * * * * * * * * * * * //

dimensions      [0 0 0 0 0 0 0];

internalField   nonuniform List<scalar> 
1250
(
1.72268
1.72258
1.72237
1.72206
1.72164
1.72111
1.72045
1.71967
1.71874
1.71767
1.71643
1.71501
1.71337
1.71149
1.70934
1.70687
1.70402
1.70072
1.69686
1.69231
1.68686
1.68026
1.67208
1.66165
1.66004
1.72336
1.72326
1.72307
1.72278
1.72239
1.72189
1.72129
1.72057
1.71972
1.71874
1.71762
1.71634
1.71489
1.71324
1.71139
1.70929
1.70693
1.70429
1.70133
1.69805
1.69442
1.69047
1.68633
1.68217
1.69723
1.72466
1.72458
1.72441
1.72416
1.72382
1.7234
1.72288
1.72227
1.72156
1.72074
1.71982
1.71878
1.71763
1.71634
1.71493
1.71338
1.7117
1.7099
1.708
1.70605
1.70408
1.70221
1.70058
1.69932
1.71605
1.72651
1.72645
1.72631
1.72611
1.72584
1.7255
1.72509
1.72461
1.72407
1.72345
1.72276
1.722
1.72117
1.72027
1.71931
1.7183
1.71725
1.71619
1.71514
1.71415
1.71328
1.7126
1.7122
1.7121
1.72894
1.7288
1.72875
1.72865
1.7285
1.7283
1.72806
1.72776
1.72743
1.72705
1.72662
1.72616
1.72567
1.72514
1.72459
1.72402
1.72345
1.7229
1.72239
1.72194
1.72159
1.72138
1.72136
1.72157
1.722
1.73865
1.73142
1.73138
1.73131
1.73122
1.73109
1.73093
1.73075
1.73054
1.73031
1.73006
1.7298
1.72953
1.72926
1.72899
1.72874
1.72851
1.72832
1.7282
1.72815
1.72821
1.7284
1.72874
1.72928
1.72997
1.7464
1.73424
1.73422
1.73419
1.73414
1.73407
1.73399
1.7339
1.73381
1.73371
1.73361
1.73351
1.73342
1.73335
1.7333
1.73328
1.7333
1.73337
1.73351
1.73373
1.73405
1.73448
1.73504
1.73576
1.73658
1.7528
1.73718
1.73718
1.73717
1.73716
1.73714
1.73713
1.73712
1.73712
1.73712
1.73714
1.73717
1.73722
1.7373
1.73742
1.73757
1.73776
1.73802
1.73833
1.73873
1.73921
1.73979
1.74048
1.7413
1.74219
1.75824
1.74015
1.74016
1.74017
1.74019
1.74022
1.74026
1.74031
1.74038
1.74047
1.74057
1.7407
1.74086
1.74106
1.74129
1.74156
1.74188
1.74225
1.74269
1.74319
1.74378
1.74445
1.74522
1.74609
1.74702
1.76292
1.74309
1.7431
1.74313
1.74318
1.74324
1.74332
1.74342
1.74354
1.74369
1.74386
1.74406
1.7443
1.74457
1.74489
1.74524
1.74565
1.7461
1.74662
1.7472
1.74785
1.74857
1.74938
1.75028
1.75122
1.76702
1.74593
1.74596
1.746
1.74606
1.74615
1.74626
1.74639
1.74655
1.74674
1.74696
1.74722
1.74751
1.74784
1.74821
1.74862
1.74908
1.74959
1.75016
1.75078
1.75147
1.75222
1.75305
1.75396
1.7549
1.77062
1.74865
1.74867
1.74872
1.7488
1.7489
1.74903
1.74919
1.74938
1.74961
1.74986
1.75015
1.75048
1.75084
1.75125
1.7517
1.7522
1.75274
1.75333
1.75398
1.75469
1.75546
1.75629
1.7572
1.75813
1.77381
1.7512
1.75123
1.75129
1.75137
1.75149
1.75163
1.75181
1.75202
1.75226
1.75254
1.75285
1.7532
1.75359
1.75402
1.75449
1.75501
1.75557
1.75618
1.75684
1.75756
1.75833
1.75916
1.76006
1.76098
1.77663
1.75357
1.7536
1.75366
1.75375
1.75388
1.75403
1.75422
1.75444
1.75469
1.75498
1.75531
1.75568
1.75608
1.75652
1.75701
1.75753
1.7581
1.75872
1.75938
1.7601
1.76086
1.76168
1.76257
1.76347
1.77913
1.75575
1.75578
1.75584
1.75594
1.75606
1.75622
1.75642
1.75664
1.75691
1.7572
1.75754
1.75791
1.75832
1.75877
1.75926
1.75978
1.76035
1.76097
1.76163
1.76233
1.76309
1.7639
1.76476
1.76564
1.78133
1.75772
1.75775
1.75782
1.75791
1.75804
1.7582
1.7584
1.75863
1.75889
1.75919
1.75953
1.7599
1.76031
1.76076
1.76125
1.76177
1.76233
1.76294
1.76359
1.76428
1.76503
1.76582
1.76666
1.76752
1.78326
1.75948
1.75952
1.75958
1.75968
1.7598
1.75997
1.76016
1.76039
1.76066
1.76095
1.76129
1.76166
1.76206
1.76251
1.76299
1.7635
1.76406
1.76465
1.76529
1.76597
1.76669
1.76746
1.76829
1.76912
1.78494
1.76104
1.76107
1.76113
1.76123
1.76136
1.76152
1.76171
1.76194
1.7622
1.76249
1.76282
1.76319
1.76359
1.76402
1.76449
1.765
1.76554
1.76612
1.76674
1.7674
1.7681
1.76885
1.76965
1.77046
1.78639
1.76239
1.76242
1.76248
1.76257
1.7627
1.76286
1.76305
1.76327
1.76353
1.76381
1.76414
1.76449
1.76488
1.76531
1.76576
1.76626
1.76678
1.76735
1.76795
1.76859
1.76927
1.76999
1.77076
1.77154
1.7876
1.76353
1.76356
1.76362
1.76371
1.76384
1.76399
1.76418
1.76439
1.76464
1.76492
1.76524
1.76559
1.76596
1.76638
1.76682
1.76729
1.7678
1.76835
1.76893
1.76954
1.7702
1.77089
1.77163
1.77239
1.7886
1.76447
1.7645
1.76456
1.76465
1.76477
1.76492
1.7651
1.76532
1.76556
1.76583
1.76614
1.76647
1.76684
1.76724
1.76767
1.76812
1.76861
1.76914
1.76969
1.77028
1.77091
1.77157
1.77228
1.773
1.78939
1.76522
1.76525
1.76531
1.76539
1.76551
1.76566
1.76583
1.76604
1.76628
1.76654
1.76684
1.76716
1.76752
1.7679
1.76832
1.76876
1.76922
1.76972
1.77025
1.77081
1.77141
1.77204
1.77271
1.77339
1.78998
1.76577
1.7658
1.76586
1.76594
1.76606
1.7662
1.76638
1.76658
1.76681
1.76707
1.76735
1.76767
1.76801
1.76838
1.76878
1.7692
1.76965
1.77013
1.77063
1.77116
1.77172
1.77231
1.77294
1.77357
1.79038
1.76614
1.76617
1.76622
1.76631
1.76642
1.76656
1.76673
1.76693
1.76716
1.76741
1.76769
1.768
1.76834
1.7687
1.76908
1.76949
1.76992
1.77037
1.77085
1.77135
1.77187
1.77242
1.77299
1.77356
1.79061
1.76632
1.76635
1.76641
1.76649
1.7666
1.76674
1.76691
1.76711
1.76733
1.76758
1.76786
1.76816
1.76849
1.76885
1.76922
1.76962
1.77004
1.77048
1.77094
1.77142
1.77191
1.77242
1.77293
1.77342
1.79067
1.7613
1.85397
1.86982
1.88008
1.89077
1.90216
1.91367
1.92489
1.93566
1.94596
1.95583
1.96534
1.97454
1.98349
1.99226
2.00088
2.00938
2.01779
2.02614
2.03442
2.04263
2.05073
2.05865
2.0662
2.07321
1.60855
1.64579
1.65518
1.66781
1.68087
1.69335
1.70498
1.7158
1.72591
1.73545
1.74453
1.75322
1.7616
1.76973
1.77767
1.78545
1.79312
1.80069
1.80818
1.8156
1.82295
1.83018
1.83725
1.84407
1.8506
1.63672
1.67133
1.67628
1.68429
1.69372
1.7036
1.71344
1.72302
1.73228
1.74122
1.74987
1.75826
1.76641
1.77439
1.78222
1.78994
1.79757
1.80514
1.81265
1.82012
1.82754
1.83489
1.84216
1.84931
1.85637
1.655
1.68839
1.69165
1.6972
1.70424
1.7121
1.72035
1.72873
1.73708
1.74533
1.75347
1.76146
1.76932
1.77708
1.78475
1.79235
1.7999
1.80742
1.81493
1.82242
1.8299
1.83737
1.84482
1.85227
1.85976
1.66898
1.70164
1.70422
1.70846
1.71398
1.7204
1.72738
1.73471
1.7422
1.74978
1.75738
1.76495
1.77249
1.78
1.78749
1.79495
1.80241
1.80988
1.81736
1.82488
1.83242
1.84
1.84763
1.85534
1.86318
1.68031
1.71245
1.71473
1.71824
1.72281
1.72821
1.73423
1.74069
1.74744
1.7544
1.76148
1.76864
1.77585
1.78309
1.79037
1.79769
1.80504
1.81245
1.81992
1.82744
1.83504
1.84273
1.85052
1.85845
1.86659
1.68981
1.72158
1.72371
1.72679
1.73074
1.73543
1.74073
1.74649
1.75263
1.75903
1.76564
1.77241
1.77929
1.78629
1.79336
1.80052
1.80777
1.81511
1.82255
1.83008
1.83773
1.8455
1.85344
1.86157
1.86993
1.69797
1.72945
1.7315
1.73432
1.73786
1.74205
1.7468
1.75203
1.75765
1.76358
1.76978
1.77619
1.78278
1.78952
1.7964
1.80341
1.81055
1.81782
1.82522
1.83275
1.84044
1.8483
1.85635
1.86465
1.87322
1.70506
1.73633
1.73835
1.74099
1.74424
1.74807
1.75242
1.75722
1.76243
1.76797
1.77382
1.77991
1.78622
1.79274
1.79943
1.80629
1.81333
1.82053
1.82789
1.83542
1.84314
1.85107
1.85923
1.86766
1.87639
1.71128
1.74241
1.7444
1.74693
1.74998
1.75354
1.75758
1.76206
1.76693
1.77215
1.77769
1.78351
1.78959
1.79589
1.80241
1.80914
1.81608
1.82321
1.83053
1.83805
1.8458
1.85379
1.86203
1.87058
1.87946
1.71675
1.74781
1.74978
1.75222
1.75513
1.75849
1.7623
1.76651
1.77111
1.77607
1.78136
1.78694
1.7928
1.79893
1.8053
1.81191
1.81875
1.82582
1.8331
1.84062
1.84839
1.85642
1.86475
1.87339
1.88238
1.72158
1.7526
1.75457
1.75695
1.75974
1.76296
1.76658
1.77059
1.77497
1.77971
1.78479
1.79017
1.79586
1.80182
1.80806
1.81456
1.82132
1.82832
1.83557
1.84308
1.85087
1.85896
1.86734
1.87607
1.88517
1.72582
1.75687
1.75883
1.76115
1.76386
1.76696
1.77044
1.77429
1.7785
1.78306
1.78796
1.79318
1.79871
1.80454
1.81066
1.81706
1.82374
1.83069
1.83792
1.84543
1.85324
1.86136
1.86981
1.87861
1.88779
1.72953
1.76065
1.76259
1.76488
1.76752
1.77052
1.77389
1.77761
1.78168
1.78609
1.79085
1.79593
1.80133
1.80704
1.81305
1.81938
1.826
1.83291
1.84011
1.84763
1.85546
1.86362
1.87212
1.88099
1.89025
1.73274
1.76397
1.7659
1.76816
1.77074
1.77367
1.77694
1.78055
1.78451
1.78881
1.79344
1.79841
1.80369
1.8093
1.81523
1.82149
1.82806
1.83494
1.84214
1.84966
1.85751
1.86571
1.87426
1.88319
1.89252
1.73547
1.76687
1.76879
1.77101
1.77354
1.7764
1.7796
1.78312
1.78699
1.79119
1.79573
1.80059
1.80579
1.81131
1.81717
1.82337
1.8299
1.83677
1.84396
1.85149
1.85938
1.86761
1.87622
1.88521
1.89462
1.73775
1.76935
1.77125
1.77344
1.77593
1.77874
1.78187
1.78532
1.78911
1.79323
1.79769
1.80248
1.8076
1.81306
1.81886
1.82502
1.83152
1.83837
1.84557
1.85312
1.86104
1.86932
1.87798
1.88704
1.89651
1.73959
1.77144
1.77332
1.77548
1.77793
1.78068
1.78375
1.78715
1.79087
1.79493
1.79932
1.80405
1.80911
1.81452
1.82028
1.8264
1.83288
1.83973
1.84695
1.85453
1.86249
1.87082
1.87953
1.88866
1.89821
1.741
1.77315
1.775
1.77711
1.77952
1.78223
1.78525
1.78859
1.79226
1.79627
1.80061
1.80529
1.81031
1.81568
1.82141
1.82751
1.83399
1.84084
1.84809
1.8557
1.8637
1.87208
1.88087
1.89007
1.8997
1.742
1.77448
1.77628
1.77835
1.78071
1.78337
1.78635
1.78964
1.79327
1.79723
1.80154
1.80618
1.81118
1.81653
1.82225
1.82834
1.83482
1.8417
1.84897
1.85663
1.86468
1.87312
1.88197
1.89126
1.90099
1.74258
1.77543
1.77718
1.77919
1.7815
1.78411
1.78704
1.7903
1.79389
1.79782
1.8021
1.80673
1.81171
1.81705
1.82276
1.82886
1.83536
1.84227
1.84958
1.85729
1.86539
1.87391
1.88285
1.89222
1.90205
1.74276
1.77601
1.77767
1.77962
1.78187
1.78443
1.78732
1.79055
1.79411
1.79802
1.80229
1.8069
1.81188
1.81723
1.82295
1.82907
1.8356
1.84255
1.84991
1.85768
1.86585
1.87445
1.88347
1.89296
1.9029
1.74252
1.77618
1.77775
1.77961
1.7818
1.78432
1.78717
1.79037
1.79392
1.79782
1.80208
1.8067
1.81169
1.81706
1.82281
1.82896
1.83554
1.84253
1.84995
1.85778
1.86604
1.87472
1.88386
1.89345
1.90351
1.74186
1.77593
1.77735
1.77913
1.78126
1.78374
1.78657
1.78976
1.79331
1.79721
1.80148
1.80611
1.81112
1.81652
1.82231
1.82851
1.83514
1.8422
1.84968
1.8576
1.86594
1.87473
1.88398
1.8937
1.9039
1.74071
1.77514
1.77642
1.77813
1.78022
1.78268
1.7855
1.78869
1.79225
1.79617
1.80046
1.80512
1.81017
1.81561
1.82146
1.82772
1.83441
1.84154
1.84911
1.85711
1.86557
1.87447
1.88384
1.89371
1.90406
)
;

boundaryField
{
    inlet
    {
        type            calculated;
        value           uniform 1.90944;
    }
    sym
    {
        type            calculated;
        value           nonuniform List<scalar> 
25
(
1.72268
1.72258
1.72237
1.72206
1.72164
1.72111
1.72045
1.71967
1.71874
1.71767
1.71643
1.715
1.71337
1.71149
1.70934
1.70687
1.70402
1.70071
1.69685
1.6923
1.68685
1.68023
1.67204
1.66158
1.65992
)
;
    }
    wedge
    {
        type            calculated;
        value           nonuniform List<scalar> 
25
(
1.67247
1.76428
1.78158
1.79253
1.80335
1.81454
1.82569
1.83647
1.84678
1.8566
1.866
1.87503
1.88376
1.89224
1.90054
1.9087
1.91674
1.92469
1.93258
1.94041
1.94817
1.95584
1.96334
1.97053
1.97727
)
;
    }
    top
    {
        type            calculated;
        value           nonuniform List<scalar> 
50
(
1.76632
1.76635
1.76641
1.76649
1.7666
1.76674
1.76691
1.76711
1.76733
1.76758
1.76786
1.76816
1.76849
1.76885
1.76922
1.76962
1.77004
1.77048
1.77094
1.77142
1.77191
1.77242
1.77293
1.77342
1.79067
1.7407
1.77514
1.77642
1.77812
1.78021
1.78268
1.7855
1.78869
1.79224
1.79616
1.80045
1.80512
1.81017
1.81561
1.82145
1.82772
1.83441
1.84154
1.8491
1.85711
1.86556
1.87446
1.88384
1.8937
1.90405
)
;
    }
    back
    {
        type            empty;
    }
    front
    {
        type            empty;
    }
    outlet
    {
        type            calculated;
        value           nonuniform List<scalar> 
25
(
2.30324
1.8506
1.85637
1.85976
1.86318
1.86659
1.86993
1.87322
1.87639
1.87946
1.88238
1.88517
1.88779
1.89025
1.89252
1.89462
1.89651
1.89821
1.8997
1.90099
1.90205
1.9029
1.90351
1.9039
1.90406
)
;
    }
}


// ************************************************************************* //
