/*--------------------------------*- C++ -*----------------------------------*\
| =========                 |                                                 |
| \\      /  F ield         | OpenFOAM: The Open Source CFD Toolbox           |
|  \\    /   O peration     | Version:  2412                                  |
|   \\  /    A nd           | Website:  www.openfoam.com                      |
|    \\/     M anipulation  |                                                 |
\*---------------------------------------------------------------------------*/
FoamFile
{
    version     2.0;
    format      ascii;
    arch        "LSB;label=32;scalar=64";
    class       volScalarField;
    location    "1";
    object      p;
}
// * * * * * * * * * * * * * * * * * * * * * * * * * * * * * * * * * * * * * //

dimensions      [1 -1 -2 0 0 0 0];

internalField   nonuniform List<scalar> 
1250
(
151941
253217
354557
456057
557735
659693
761950
864620
967726
1.0714e+06
1.17567e+06
1.28068e+06
1.3865e+06
1.49329e+06
1.60114e+06
1.71026e+06
1.82079e+06
1.93301e+06
2.04712e+06
2.16353e+06
2.28257e+06
2.40489e+06
2.53111e+06
2.66231e+06
2.79987e+06
151759
252666
353634
454750
556034
657578
759399
861600
964204
1.06732e+06
1.17099e+06
1.27533e+06
1.38038e+06
1.4863e+06
1.59314e+06
1.70108e+06
1.81019e+06
1.9207e+06
2.03269e+06
2.14642e+06
2.262e+06
2.3797e+06
2.49961e+06
2.62188e+06
2.74644e+06
151405
251602
351852
452233
552757
653507
754494
855808
957459
1.05955e+06
1.16208e+06
1.26518e+06
1.36884e+06
1.4732e+06
1.57826e+06
1.68416e+06
1.79092e+06
1.89866e+06
2.00739e+06
2.11723e+06
2.22812e+06
2.34014e+06
2.45314e+06
2.56703e+06
2.68153e+06
150904
250098
349329
448671
548125
647763
747586
847670
948012
1.04869e+06
1.14971e+06
1.25115e+06
1.353e+06
1.45535e+06
1.55818e+06
1.66159e+06
1.76554e+06
1.87012e+06
1.97525e+06
2.081e+06
2.18725e+06
2.294e+06
2.40107e+06
2.50835e+06
2.61563e+06
150285
248235
346209
444271
542410
640690
739098
837700
936478
1.0355e+06
1.13474e+06
1.23427e+06
1.33407e+06
1.43419e+06
1.53459e+06
1.63534e+06
1.73639e+06
1.83777e+06
1.9394e+06
2.04131e+06
2.14336e+06
2.24555e+06
2.3477e+06
2.44974e+06
2.55151e+06
149577
246110
342651
439258
535908
632658
729482
826437
923491
1.0207e+06
1.11803e+06
1.21554e+06
1.31317e+06
1.41099e+06
1.50893e+06
1.60705e+06
1.70526e+06
1.80361e+06
1.90199e+06
2.00042e+06
2.09878e+06
2.19706e+06
2.2951e+06
2.39286e+06
2.49022e+06
148812
243810
338804
433843
528896
624011
719152
814369
909620
1.00495e+06
1.10032e+06
1.19577e+06
1.29125e+06
1.38679e+06
1.48234e+06
1.57793e+06
1.67348e+06
1.76901e+06
1.86444e+06
1.95977e+06
2.05489e+06
2.14979e+06
2.24435e+06
2.33853e+06
2.43225e+06
148016
241419
334806
428221
521623
615056
708476
801926
895357
988811
1.08223e+06
1.17566e+06
1.26904e+06
1.36239e+06
1.45566e+06
1.54888e+06
1.64196e+06
1.73492e+06
1.82768e+06
1.92025e+06
2.01252e+06
2.10449e+06
2.19605e+06
2.28718e+06
2.37782e+06
147211
239001
330766
422545
514290
606041
697748
789448
881088
972704
1.06424e+06
1.15572e+06
1.24709e+06
1.33838e+06
1.42952e+06
1.52053e+06
1.61134e+06
1.70197e+06
1.79233e+06
1.88243e+06
1.97218e+06
2.06159e+06
2.15054e+06
2.23903e+06
2.32702e+06
146415
236615
326779
416948
507067
597172
687208
777211
867121
956972
1.0467e+06
1.13634e+06
1.22583e+06
1.31518e+06
1.40434e+06
1.49333e+06
1.58207e+06
1.67058e+06
1.75877e+06
1.84668e+06
1.93419e+06
2.02134e+06
2.10801e+06
2.1942e+06
2.27988e+06
145644
234300
322917
411529
500079
588601
677036
765417
853683
941863
1.0299e+06
1.11781e+06
1.20554e+06
1.2931e+06
1.38044e+06
1.46757e+06
1.55443e+06
1.64102e+06
1.72728e+06
1.81322e+06
1.89875e+06
1.98389e+06
2.06854e+06
2.15272e+06
2.23638e+06
144909
232093
319234
406365
493424
580446
667368
754221
840942
927560
1.01401e+06
1.10032e+06
1.18643e+06
1.27235e+06
1.35802e+06
1.44347e+06
1.52861e+06
1.61348e+06
1.698e+06
1.78218e+06
1.86595e+06
1.94931e+06
2.03219e+06
2.11459e+06
2.19648e+06
144217
230017
315770
401510
487173
572790
658299
743728
829015
914187
999179
1.08402e+06
1.16863e+06
1.25306e+06
1.33722e+06
1.42114e+06
1.50475e+06
1.58807e+06
1.67103e+06
1.75365e+06
1.83584e+06
1.91764e+06
1.99895e+06
2.07978e+06
2.16011e+06
143574
228089
312554
397004
481372
565691
649895
734014
817983
901829
985487
1.06898e+06
1.15225e+06
1.23531e+06
1.31811e+06
1.40066e+06
1.48289e+06
1.56483e+06
1.6464e+06
1.72763e+06
1.80844e+06
1.88885e+06
1.96878e+06
2.04824e+06
2.12721e+06
142985
226319
309604
392871
476056
559187
642200
725125
807895
890538
972990
1.05527e+06
1.13733e+06
1.21917e+06
1.30075e+06
1.38207e+06
1.46307e+06
1.54378e+06
1.62413e+06
1.70414e+06
1.78373e+06
1.86292e+06
1.94165e+06
2.01991e+06
2.09769e+06
142450
224715
306931
389127
471240
553298
635238
717086
798778
880342
961713
1.04291e+06
1.12388e+06
1.20465e+06
1.28514e+06
1.36537e+06
1.4453e+06
1.52493e+06
1.60421e+06
1.68314e+06
1.76167e+06
1.8398e+06
1.91748e+06
1.99471e+06
2.07146e+06
141972
223281
304540
385780
466936
548037
629019
709910
790645
871251
951666
1.03191e+06
1.11193e+06
1.19174e+06
1.27128e+06
1.35057e+06
1.42955e+06
1.50825e+06
1.58659e+06
1.6646e+06
1.74221e+06
1.81944e+06
1.89622e+06
1.97256e+06
2.04844e+06
141551
222016
302433
382829
463143
543402
623544
703594
783491
863260
942840
1.02225e+06
1.10144e+06
1.18042e+06
1.25914e+06
1.33762e+06
1.41579e+06
1.49368e+06
1.57123e+06
1.64845e+06
1.72529e+06
1.80175e+06
1.87778e+06
1.95338e+06
2.02853e+06
141185
220920
300607
380274
459859
539391
618806
698132
777307
856357
935221
1.01392e+06
1.0924e+06
1.17068e+06
1.2487e+06
1.32649e+06
1.40398e+06
1.4812e+06
1.55808e+06
1.63465e+06
1.71084e+06
1.78667e+06
1.86208e+06
1.93708e+06
2.01164e+06
140876
219991
299058
378106
457075
535990
614792
693506
772073
850517
928780
1.00688e+06
1.08477e+06
1.16247e+06
1.23991e+06
1.31713e+06
1.39406e+06
1.47072e+06
1.54706e+06
1.6231e+06
1.69878e+06
1.77411e+06
1.84903e+06
1.92356e+06
1.99767e+06
140620
219224
297781
376321
454781
533190
611487
689700
767769
845718
923491
1.00111e+06
1.07852e+06
1.15574e+06
1.23272e+06
1.30948e+06
1.38596e+06
1.46219e+06
1.53811e+06
1.61374e+06
1.68902e+06
1.76396e+06
1.83852e+06
1.91271e+06
1.98649e+06
140418
218617
296770
374906
452965
530973
608873
686690
764367
841928
919317
996557
1.07359e+06
1.15045e+06
1.22707e+06
1.30348e+06
1.37962e+06
1.45552e+06
1.53113e+06
1.60646e+06
1.68145e+06
1.75614e+06
1.83045e+06
1.90441e+06
1.97798e+06
140268
218166
296020
373856
451616
529328
606933
684458
761845
839119
916226
993189
1.06995e+06
1.14654e+06
1.22291e+06
1.29907e+06
1.37497e+06
1.45064e+06
1.52603e+06
1.60116e+06
1.67598e+06
1.7505e+06
1.82468e+06
1.89852e+06
1.97201e+06
140168
217867
295523
373161
450725
528240
605651
682982
760179
837265
914187
990967
1.06756e+06
1.14397e+06
1.22017e+06
1.29617e+06
1.37193e+06
1.44746e+06
1.52272e+06
1.59774e+06
1.67246e+06
1.74691e+06
1.82104e+06
1.89487e+06
1.96838e+06
140115
217723
295272
372819
450278
527703
605010
682253
759348
836348
913172
989869
1.06636e+06
1.1427e+06
1.21881e+06
1.29474e+06
1.37042e+06
1.4459e+06
1.5211e+06
1.59607e+06
1.67076e+06
1.7452e+06
1.81933e+06
1.89322e+06
1.96683e+06
2.99912e+06
3.18801e+06
3.35537e+06
3.5047e+06
3.63949e+06
3.76237e+06
3.87518e+06
3.9792e+06
4.07537e+06
4.1643e+06
4.24648e+06
4.32227e+06
4.39193e+06
4.4557e+06
4.51372e+06
4.56609e+06
4.61291e+06
4.65424e+06
4.69011e+06
4.72055e+06
4.74558e+06
4.76524e+06
4.77959e+06
4.78879e+06
4.79319e+06
2.90545e+06
3.0651e+06
3.21647e+06
3.3574e+06
3.48792e+06
3.60875e+06
3.72074e+06
3.82466e+06
3.92114e+06
4.01066e+06
4.09361e+06
4.17029e+06
4.24096e+06
4.30579e+06
4.36492e+06
4.41846e+06
4.46648e+06
4.50902e+06
4.54612e+06
4.5778e+06
4.60406e+06
4.62493e+06
4.64044e+06
4.65068e+06
4.65577e+06
2.82523e+06
2.96884e+06
3.10793e+06
3.24039e+06
3.36534e+06
3.48262e+06
3.59244e+06
3.69509e+06
3.79092e+06
3.88024e+06
3.9633e+06
4.04032e+06
4.11148e+06
4.17696e+06
4.23683e+06
4.29119e+06
4.34009e+06
4.38356e+06
4.42161e+06
4.45425e+06
4.48147e+06
4.50327e+06
4.51963e+06
4.53057e+06
4.5361e+06
2.74919e+06
2.8817e+06
3.01113e+06
3.13591e+06
3.2551e+06
3.36821e+06
3.47508e+06
3.57571e+06
3.67021e+06
3.7587e+06
3.84133e+06
3.91821e+06
3.98948e+06
4.05523e+06
4.11552e+06
4.1704e+06
4.21991e+06
4.26406e+06
4.30283e+06
4.33621e+06
4.36417e+06
4.38667e+06
4.40367e+06
4.41512e+06
4.42093e+06
2.67746e+06
2.80159e+06
2.92328e+06
3.04141e+06
3.15517e+06
3.26401e+06
3.3676e+06
3.46577e+06
3.55847e+06
3.64569e+06
3.72746e+06
3.80383e+06
3.87485e+06
3.94055e+06
4.00097e+06
4.05611e+06
4.10599e+06
4.15057e+06
4.18984e+06
4.22375e+06
4.25225e+06
4.27527e+06
4.29274e+06
4.30455e+06
4.31057e+06
2.6101e+06
2.72751e+06
2.84282e+06
2.95522e+06
3.06404e+06
3.16876e+06
3.269e+06
3.36452e+06
3.45515e+06
3.5408e+06
3.62141e+06
3.69696e+06
3.76744e+06
3.83283e+06
3.89312e+06
3.94829e+06
3.9983e+06
4.04313e+06
4.0827e+06
4.11695e+06
4.14582e+06
4.1692e+06
4.187e+06
4.19906e+06
4.20521e+06
2.54707e+06
2.65889e+06
2.76881e+06
2.87624e+06
2.98061e+06
3.08147e+06
3.17845e+06
3.27126e+06
3.35969e+06
3.44359e+06
3.52283e+06
3.59735e+06
3.66706e+06
3.73193e+06
3.79187e+06
3.84687e+06
3.89684e+06
3.94171e+06
3.98141e+06
4.01586e+06
4.04495e+06
4.06856e+06
4.08657e+06
4.09879e+06
4.10504e+06
2.48834e+06
2.59536e+06
2.70064e+06
2.8037e+06
2.90408e+06
3.00138e+06
3.09525e+06
3.1854e+06
3.2716e+06
3.35365e+06
3.4314e+06
3.50472e+06
3.57351e+06
3.63767e+06
3.69712e+06
3.75177e+06
3.80154e+06
3.84631e+06
3.886e+06
3.9205e+06
3.94969e+06
3.97343e+06
3.99155e+06
4.00387e+06
4.01017e+06
2.43381e+06
2.53665e+06
2.63786e+06
2.73705e+06
2.83384e+06
2.92787e+06
3.01883e+06
3.10642e+06
3.19042e+06
3.27059e+06
3.34678e+06
3.41882e+06
3.48657e+06
3.54991e+06
3.60872e+06
3.66291e+06
3.71234e+06
3.75689e+06
3.79645e+06
3.83089e+06
3.86008e+06
3.88385e+06
3.90202e+06
3.91438e+06
3.92071e+06
2.38339e+06
2.48253e+06
2.58013e+06
2.67587e+06
2.76942e+06
2.86046e+06
2.9487e+06
3.03388e+06
3.11574e+06
3.19407e+06
3.26867e+06
3.33938e+06
3.40602e+06
3.46846e+06
3.52656e+06
3.58017e+06
3.62917e+06
3.6734e+06
3.71274e+06
3.74704e+06
3.77614e+06
3.79987e+06
3.81802e+06
3.83038e+06
3.8367e+06
2.33698e+06
2.43283e+06
2.52721e+06
2.61985e+06
2.71046e+06
2.79877e+06
2.88449e+06
2.96739e+06
3.04721e+06
3.12375e+06
3.19679e+06
3.26616e+06
3.33167e+06
3.39316e+06
3.45047e+06
3.50345e+06
3.55193e+06
3.59578e+06
3.63482e+06
3.66891e+06
3.69786e+06
3.72149e+06
3.73958e+06
3.7519e+06
3.75822e+06
2.29449e+06
2.38737e+06
2.47886e+06
2.5687e+06
2.65665e+06
2.74246e+06
2.82586e+06
2.90663e+06
2.98453e+06
3.05935e+06
3.13088e+06
3.19893e+06
3.2633e+06
3.32381e+06
3.38031e+06
3.43261e+06
3.48055e+06
3.52395e+06
3.56265e+06
3.59647e+06
3.62523e+06
3.64871e+06
3.6667e+06
3.67897e+06
3.68524e+06
2.25581e+06
2.34601e+06
2.43489e+06
2.52221e+06
2.60774e+06
2.69126e+06
2.77253e+06
2.85133e+06
2.92743e+06
3.00063e+06
3.0707e+06
3.13746e+06
3.20071e+06
3.26027e+06
3.31594e+06
3.36755e+06
3.41491e+06
3.45783e+06
3.49616e+06
3.52968e+06
3.5582e+06
3.58151e+06
3.59938e+06
3.61156e+06
3.6178e+06
2.22084e+06
2.30862e+06
2.39513e+06
2.48016e+06
2.5635e+06
2.64494e+06
2.72426e+06
2.80124e+06
2.87567e+06
2.94733e+06
3.01604e+06
3.08157e+06
3.14375e+06
3.20235e+06
3.25722e+06
3.30813e+06
3.35491e+06
3.39736e+06
3.43528e+06
3.46848e+06
3.49675e+06
3.51986e+06
3.53758e+06
3.54968e+06
3.55586e+06
2.18946e+06
2.27506e+06
2.35943e+06
2.44239e+06
2.52374e+06
2.60329e+06
2.68082e+06
2.75613e+06
2.82902e+06
2.89927e+06
2.96669e+06
3.03107e+06
3.09221e+06
3.14993e+06
3.20401e+06
3.25425e+06
3.30045e+06
3.34242e+06
3.37994e+06
3.41281e+06
3.4408e+06
3.46371e+06
3.48128e+06
3.49326e+06
3.4994e+06
2.16159e+06
2.24521e+06
2.32765e+06
2.40874e+06
2.48829e+06
2.56612e+06
2.64203e+06
2.71583e+06
2.7873e+06
2.85625e+06
2.92248e+06
2.98579e+06
3.04597e+06
3.10284e+06
3.15617e+06
3.20577e+06
3.25142e+06
3.29291e+06
3.33004e+06
3.36258e+06
3.39031e+06
3.413e+06
3.43042e+06
3.4423e+06
3.44838e+06
2.13711e+06
2.21894e+06
2.29964e+06
2.37905e+06
2.45699e+06
2.53327e+06
2.60772e+06
2.68014e+06
2.75034e+06
2.81811e+06
2.88325e+06
2.94557e+06
3.00487e+06
3.06094e+06
3.11358e+06
3.16258e+06
3.2077e+06
3.24875e+06
3.2855e+06
3.31772e+06
3.3452e+06
3.36768e+06
3.38495e+06
3.39672e+06
3.40276e+06
2.11592e+06
2.19615e+06
2.27528e+06
2.35318e+06
2.42968e+06
2.50458e+06
2.57773e+06
2.64892e+06
2.71797e+06
2.78468e+06
2.84884e+06
2.91028e+06
2.96877e+06
3.02412e+06
3.07612e+06
3.12456e+06
3.16921e+06
3.20984e+06
3.24624e+06
3.27817e+06
3.30539e+06
3.32769e+06
3.3448e+06
3.35649e+06
3.36247e+06
2.09792e+06
2.1767e+06
2.25445e+06
2.33101e+06
2.40622e+06
2.47991e+06
2.55191e+06
2.62202e+06
2.69005e+06
2.75582e+06
2.81913e+06
2.87977e+06
2.93755e+06
2.99226e+06
3.04369e+06
3.09162e+06
3.13583e+06
3.17609e+06
3.21217e+06
3.24382e+06
3.27083e+06
3.29294e+06
3.30992e+06
3.32152e+06
3.32746e+06
2.08298e+06
2.16048e+06
2.237e+06
2.31239e+06
2.38649e+06
2.45912e+06
2.53011e+06
2.59929e+06
2.66645e+06
2.73141e+06
2.79397e+06
2.85393e+06
2.91109e+06
2.96524e+06
3.01617e+06
3.06366e+06
3.10749e+06
3.14742e+06
3.1832e+06
3.21462e+06
3.24142e+06
3.26338e+06
3.28024e+06
3.29176e+06
3.29765e+06
2.07099e+06
2.14737e+06
2.22282e+06
2.2972e+06
2.37034e+06
2.44208e+06
2.51223e+06
2.58061e+06
2.64704e+06
2.71132e+06
2.77325e+06
2.83264e+06
2.88927e+06
2.94295e+06
2.99346e+06
3.04058e+06
3.08408e+06
3.12372e+06
3.15926e+06
3.19047e+06
3.2171e+06
3.23892e+06
3.25569e+06
3.26714e+06
3.273e+06
2.06182e+06
2.13723e+06
2.21178e+06
2.2853e+06
2.35766e+06
2.42865e+06
2.49812e+06
2.56587e+06
2.6317e+06
2.69543e+06
2.75686e+06
2.81578e+06
2.872e+06
2.9253e+06
2.97546e+06
3.02228e+06
3.06551e+06
3.10491e+06
3.14025e+06
3.17129e+06
3.19779e+06
3.21951e+06
3.23619e+06
3.24759e+06
3.25342e+06
2.05532e+06
2.12991e+06
2.20371e+06
2.27657e+06
2.34831e+06
2.41874e+06
2.48768e+06
2.55494e+06
2.62033e+06
2.68365e+06
2.74469e+06
2.80327e+06
2.85917e+06
2.91218e+06
2.96209e+06
3.00867e+06
3.05169e+06
3.09092e+06
3.12611e+06
3.15702e+06
3.18342e+06
3.20505e+06
3.22168e+06
3.23303e+06
3.23884e+06
2.05129e+06
2.12523e+06
2.19848e+06
2.27087e+06
2.34217e+06
2.41222e+06
2.48081e+06
2.54774e+06
2.61283e+06
2.67587e+06
2.73666e+06
2.795e+06
2.85069e+06
2.90351e+06
2.95324e+06
2.99967e+06
3.04256e+06
3.08167e+06
3.11675e+06
3.14758e+06
3.17391e+06
3.19549e+06
3.21207e+06
3.2234e+06
3.2292e+06
2.04949e+06
2.123e+06
2.19594e+06
2.26806e+06
2.33915e+06
2.409e+06
2.47741e+06
2.54418e+06
2.60911e+06
2.67202e+06
2.73268e+06
2.79091e+06
2.84649e+06
2.89921e+06
2.94886e+06
2.99521e+06
3.03802e+06
3.07706e+06
3.1121e+06
3.14288e+06
3.16918e+06
3.19073e+06
3.2073e+06
3.21861e+06
3.2244e+06
)
;

boundaryField
{
    inlet
    {
        type            fixedValue;
        value           uniform 101325;
    }
    sym
    {
        type            slip;
    }
    wedge
    {
        type            slip;
    }
    top
    {
        type            slip;
    }
    back
    {
        type            empty;
    }
    front
    {
        type            empty;
    }
    outlet
    {
        type            zeroGradient;
    }
}


// ************************************************************************* //
