/*--------------------------------*- C++ -*----------------------------------*\
| =========                 |                                                 |
| \\      /  F ield         | OpenFOAM: The Open Source CFD Toolbox           |
|  \\    /   O peration     | Version:  2412                                  |
|   \\  /    A nd           | Website:  www.openfoam.com                      |
|    \\/     M anipulation  |                                                 |
\*---------------------------------------------------------------------------*/
FoamFile
{
    version     2.0;
    format      ascii;
    arch        "LSB;label=32;scalar=64";
    class       surfaceScalarField;
    location    "1";
    object      phi;
}
// * * * * * * * * * * * * * * * * * * * * * * * * * * * * * * * * * * * * * //

dimensions      [1 0 -1 0 0 0 0];

oriented        oriented;

internalField   nonuniform List<scalar> 
2425
(
26.4758
0.00363622
26.4676
0.0109792
26.4475
0.0183854
26.4249
0.0260294
26.3895
0.0338741
26.3516
0.0421366
26.2994
0.0508158
26.2443
0.0601601
26.1727
0.0701578
26.0973
0.0811457
26.0024
0.0931921
25.9017
0.106729
25.7778
0.121887
25.6446
0.139304
25.4826
0.159369
25.3057
0.183037
25.0912
0.211106
24.8523
0.245291
24.5613
0.287456
24.2279
0.340848
23.814
0.409852
23.3202
0.501802
22.69
0.627547
21.8863
0.805415
1.06442
20.8184
26.5225
0.00704395
26.5147
0.0211777
26.496
0.0354984
26.4747
0.0501481
26.442
0.0652945
26.4068
0.0810909
26.3587
0.0977125
26.3078
0.115387
26.2425
0.134363
26.1738
0.154926
26.0883
0.177394
25.998
0.202209
25.8884
0.22987
25.772
0.261003
25.6329
0.296344
25.4839
0.336906
25.3082
0.383905
25.12
0.438943
24.9004
0.503956
24.666
0.581557
24.398
0.674946
24.1187
0.788131
23.8195
0.925732
23.5311
1.09274
1.293
23.3006
26.6122
0.00997164
26.6056
0.0299778
26.589
0.0502533
26.5709
0.070945
26.5423
0.0922726
26.5123
0.114417
26.471
0.137618
26.4283
0.162115
26.3731
0.188202
26.3165
0.216192
26.2459
0.246454
26.1736
0.279421
26.0861
0.315588
25.9965
0.355546
25.8904
0.399959
25.7824
0.449647
25.6578
0.505516
25.5329
0.568662
25.3932
0.640249
25.2591
0.721629
25.1167
0.814122
24.9925
0.919028
24.8801
1.03722
24.8028
1.16887
1.31269
24.7816
26.7393
0.0123478
26.7344
0.0371073
26.7204
0.0621598
26.7063
0.0876622
26.6829
0.11385
26.6597
0.140908
26.6265
0.169086
26.594
0.198613
26.5508
0.229773
26.5087
0.262854
26.4553
0.298188
26.4033
0.336144
26.3398
0.377118
26.2785
0.421568
26.206
0.469971
26.1372
0.522876
26.0588
0.580825
25.9875
0.644423
25.91
0.714206
25.8465
0.790724
25.7829
0.874318
25.7431
0.965209
25.7161
1.06319
25.7161
1.16765
1.27737
25.75
26.8965
0.0140865
26.8935
0.0423287
26.8824
0.0708711
26.8726
0.0998547
26.8547
0.129509
26.8386
0.159998
26.814
0.191555
26.7918
0.224377
26.7609
0.258709
26.733
0.294788
26.6963
0.332878
26.6635
0.373261
26.6221
0.416219
26.5859
0.462076
26.542
0.511122
26.5052
0.563695
26.4626
0.620064
26.4307
0.680536
26.3959
0.745282
26.3773
0.814479
26.3601
0.88809
26.3653
0.966022
26.3795
1.04787
26.4129
1.13311
1.2209
26.4679
27.0758
0.0152501
27.0747
0.0458092
27.0665
0.0766387
27.061
0.107866
27.0483
0.139697
27.039
0.17227
27.0225
0.205786
27.0099
0.240402
26.99
0.276317
26.9749
0.313712
26.9527
0.352783
26.9363
0.39373
26.9133
0.436742
26.8973
0.482028
26.8758
0.529753
26.8632
0.580108
26.8466
0.633208
26.8418
0.689189
26.8353
0.748063
26.8448
0.809855
26.855
0.874408
26.8851
0.941579
26.9207
1.01099
26.9704
1.08227
1.15488
27.035
27.2699
0.0158585
27.2705
0.047634
27.2648
0.0796512
27.2631
0.11201
27.2552
0.144886
27.2518
0.178386
27.2423
0.212676
27.2379
0.247875
27.2275
0.284137
27.223
0.321592
27.2128
0.360379
27.2095
0.400637
27.2009
0.442483
27.2004
0.486049
27.1956
0.531415
27.2004
0.578693
27.2022
0.627904
27.2157
0.679109
27.2278
0.732247
27.2547
0.787294
27.2816
0.844078
27.3259
0.902473
27.3734
0.962172
27.4315
1.02292
1.08437
27.5006
27.4717
0.0160417
27.4738
0.0481659
27.4702
0.0804818
27.4719
0.113071
27.4679
0.146076
27.4696
0.179581
27.4658
0.213716
27.4682
0.248569
27.4653
0.284255
27.4694
0.320867
27.4684
0.358499
27.4752
0.397246
27.4776
0.437173
27.4885
0.478365
27.4958
0.520855
27.5129
0.564701
27.5273
0.60989
27.5531
0.656442
27.5773
0.704276
27.6153
0.753364
27.6524
0.803534
27.705
0.8547
27.7592
0.906616
27.8218
0.959113
1.01196
27.8927
27.6757
0.0158385
27.679
0.0475494
27.6772
0.0794136
27.6815
0.11149
27.6807
0.143892
27.6864
0.176679
27.6871
0.209952
27.6948
0.243775
27.6978
0.278229
27.7083
0.313381
27.7145
0.34929
27.7288
0.386023
27.7391
0.423611
27.7583
0.462112
27.7743
0.501524
27.7998
0.541887
27.8229
0.583158
27.8569
0.62535
27.8891
0.668373
27.9339
0.712201
27.9773
0.756696
28.0347
0.801794
28.0925
0.8473
28.1573
0.89311
0.939051
28.2288
27.8771
0.01536
27.8814
0.0461007
27.8809
0.0769521
27.8872
0.107961
27.8889
0.13921
27.8977
0.170747
27.9019
0.202642
27.9136
0.234944
27.9211
0.267708
27.9364
0.300981
27.9478
0.3348
27.9675
0.369208
27.9836
0.404219
28.0086
0.439868
28.0306
0.476143
28.0619
0.513063
28.0909
0.55059
28.1301
0.588723
28.1674
0.627382
28.2165
0.666554
28.2637
0.706107
28.3236
0.746007
28.3834
0.786097
28.4491
0.826306
0.866516
28.5202
28.0723
0.0146492
28.0773
0.0439643
28.0778
0.0733611
28.0857
0.102873
28.0892
0.132557
28.1002
0.162451
28.1071
0.1926
28.1217
0.223042
28.1324
0.25381
28.1511
0.28494
28.1663
0.316449
28.1898
0.348369
28.21
0.380698
28.239
0.413464
28.2651
0.446639
28.3002
0.480246
28.333
0.514229
28.3756
0.548595
28.4161
0.583271
28.4677
0.618241
28.5171
0.653412
28.5782
0.688759
28.6388
0.724153
28.7044
0.759555
0.794871
28.7747
28.2585
0.0137846
28.264
0.0413641
28.2652
0.0689977
28.2742
0.0967109
28.279
0.124542
28.2917
0.152517
28.3004
0.180667
28.3171
0.209018
28.3301
0.237588
28.3512
0.266403
28.369
0.295469
28.3951
0.324808
28.4181
0.35441
28.4496
0.384294
28.4785
0.414432
28.516
0.444835
28.5513
0.475461
28.5958
0.506314
28.6382
0.537326
28.691
0.5685
28.7416
0.599735
28.803
0.631027
28.8636
0.66227
28.9287
0.693434
0.724458
28.9978
28.4336
0.0128024
28.4395
0.0384155
28.4412
0.0640637
28.4509
0.089766
28.4567
0.115544
28.4704
0.141418
28.4804
0.167403
28.4985
0.193521
28.513
0.219775
28.5358
0.246188
28.5553
0.272752
28.5831
0.299488
28.6079
0.326376
28.641
0.353435
28.6715
0.380629
28.7105
0.407975
28.7472
0.435421
28.7928
0.462975
28.8362
0.49058
28.8894
0.518228
28.9403
0.545858
29.0014
0.573459
29.0615
0.600948
29.1257
0.628311
0.655491
29.1935
28.5962
0.0117471
28.6024
0.0352473
28.6044
0.058767
28.6146
0.0823203
28.621
0.105917
28.6354
0.129572
28.6463
0.153289
28.6652
0.177085
28.6808
0.200955
28.7045
0.224916
28.7251
0.248954
28.7538
0.273086
28.7797
0.297289
28.8137
0.321574
28.8452
0.345912
28.8848
0.370309
28.9222
0.394728
28.9681
0.419175
29.0117
0.443593
29.0648
0.467994
29.1156
0.4923
29.176
0.516517
29.2353
0.540571
29.2983
0.564452
0.588123
29.3646
28.7455
0.0106478
28.7517
0.0319481
28.754
0.0532554
28.7645
0.074582
28.7712
0.0959265
28.7861
0.117303
28.7974
0.138704
28.8168
0.160144
28.8329
0.181611
28.8572
0.20312
28.8783
0.22465
28.9075
0.246216
28.9339
0.267791
28.9683
0.289387
29.0001
0.310969
29.0399
0.332549
29.0774
0.354081
29.1231
0.375572
29.1667
0.396978
29.2192
0.418293
29.2694
0.439477
29.3287
0.460525
29.3869
0.481377
29.4486
0.502032
0.522453
29.5133
28.8807
0.00952337
28.887
0.0285747
28.8894
0.0476255
28.9
0.066684
28.9069
0.0857429
28.922
0.104811
28.9335
0.123878
28.9531
0.142953
28.9695
0.162021
28.9939
0.18109
29.0153
0.200141
29.0445
0.219182
29.0711
0.238187
29.1053
0.257162
29.1372
0.276078
29.1766
0.294937
29.2139
0.313708
29.2591
0.332393
29.3021
0.350948
29.3537
0.369383
29.403
0.387638
29.4611
0.405719
29.5181
0.423574
29.5783
0.441197
0.458567
29.6413
29.0017
0.00839822
29.008
0.0251976
29.0105
0.0419885
29.0211
0.0587791
29.028
0.0755559
29.043
0.0923273
29.0547
0.109077
29.0742
0.125812
29.0906
0.142514
29.1149
0.159191
29.1362
0.175817
29.1652
0.192401
29.1916
0.208914
29.2255
0.225362
29.2569
0.241712
29.2958
0.25797
29.3326
0.274097
29.3769
0.290095
29.4191
0.305928
29.4696
0.32159
29.5178
0.33705
29.5745
0.352303
29.63
0.367307
29.6886
0.382062
0.396541
29.7498
29.1084
0.00727496
29.1146
0.0218284
29.1171
0.0363708
29.1276
0.0509068
29.1345
0.0654207
29.1494
0.0799171
29.1609
0.0943784
29.1803
0.108809
29.1965
0.123188
29.2205
0.13752
29.2415
0.151781
29.2701
0.165973
29.296
0.180069
29.3293
0.194071
29.3602
0.20795
29.3982
0.221702
29.4342
0.235301
29.4774
0.248741
29.5186
0.261987
29.5678
0.275042
29.6147
0.287856
29.6698
0.300434
29.7237
0.312733
29.7806
0.324749
0.336468
29.8399
29.2008
0.00617352
29.207
0.0185221
29.2094
0.0308553
29.2198
0.043178
29.2266
0.0554718
29.2412
0.0677412
29.2526
0.0799659
29.2716
0.0921494
29.2875
0.104269
29.311
0.116328
29.3316
0.128301
29.3596
0.140188
29.3849
0.151962
29.4174
0.163622
29.4475
0.175137
29.4846
0.186505
29.5195
0.197689
29.5615
0.208684
29.6015
0.219459
29.6492
0.23
29.6946
0.24028
29.7479
0.250291
29.8
0.259996
29.855
0.269393
0.278462
29.9123
29.2793
0.00508752
29.2853
0.0152649
29.2877
0.0254276
29.2978
0.0355775
29.3045
0.0456971
29.3189
0.0557875
29.33
0.06583
29.3486
0.0758247
29.3641
0.0857511
29.387
0.0956076
29.4071
0.105371
29.4344
0.115038
29.459
0.124584
29.4905
0.134
29.5197
0.14326
29.5556
0.152353
29.5893
0.161249
29.63
0.169937
29.6684
0.178379
29.7145
0.186569
29.7581
0.19446
29.8095
0.202045
29.8597
0.209287
29.9126
0.216174
0.222693
29.9677
29.3439
0.00403109
29.3498
0.012094
29.3521
0.020141
29.3621
0.0281748
29.3686
0.0361781
29.3827
0.0441521
29.3934
0.0520785
29.4116
0.0599567
29.4267
0.0677672
29.449
0.0755072
29.4685
0.0831548
29.495
0.0907045
29.5188
0.0981314
29.5493
0.105426
29.5775
0.112559
29.6121
0.119519
29.6445
0.126267
29.6836
0.132788
29.7204
0.139044
29.7646
0.14501
29.8063
0.150651
29.8555
0.155943
29.9034
0.160846
29.954
0.165344
0.16941
30.0066
29.3951
0.0029926
29.4009
0.00898181
29.4031
0.014957
29.4129
0.0209224
29.4192
0.02686
29.433
0.032773
29.4435
0.038643
29.4612
0.0444714
29.4759
0.0502387
29.4976
0.0559435
29.5165
0.0615646
29.5421
0.0670973
29.5651
0.0725161
29.5946
0.0778122
29.6217
0.0829548
29.655
0.0879286
29.6859
0.0926964
29.7233
0.0972373
29.7583
0.101503
29.8004
0.105466
29.8399
0.109069
29.8867
0.112278
29.932
0.115029
29.9798
0.117298
0.119021
30.0296
29.4331
0.00197794
29.4389
0.00595442
29.441
0.00989559
29.4506
0.0138524
29.4568
0.0177657
29.4703
0.0216835
29.4805
0.0255473
29.4978
0.0294018
29.5121
0.0331888
29.5333
0.03695
29.5516
0.0406265
29.5766
0.044255
29.5988
0.0477742
29.6273
0.0512153
29.6532
0.0545106
29.6852
0.0576849
29.7148
0.0606614
29.7504
0.0634525
29.7835
0.0659714
29.8233
0.068209
29.8603
0.0700698
29.9041
0.0715049
29.9464
0.0724217
29.9907
0.0727275
0.0722694
30.037
29.4584
0.00106666
29.4639
0.00288382
29.4661
0.0049947
29.4755
0.00680291
29.4817
0.00889807
29.4948
0.0106913
29.5049
0.0127579
29.5219
0.0145227
29.536
0.0165458
29.5567
0.0182657
29.5746
0.0202244
29.5989
0.0218775
29.6206
0.0237422
29.6482
0.0252941
29.6734
0.027021
29.7041
0.0284233
29.7325
0.0299521
29.7664
0.0311265
29.7977
0.0323637
29.8351
0.0331702
29.8694
0.0339371
29.91
0.0340928
29.9483
0.0339816
29.9878
0.0328331
0.0309103
30.0297
29.4699
29.4773
29.4776
29.4888
29.4931
29.5079
29.5162
29.5347
29.5469
29.5691
29.5851
29.6108
29.6305
29.6592
29.6823
29.7139
29.74
29.7742
29.8028
29.84
29.8704
29.9093
29.9411
29.9756
30.0049
25.7431
-4.92549
28.7752
-3.03603
30.6844
-1.91106
31.9348
-1.2552
32.7965
-0.864428
33.4138
-0.62205
33.8735
-0.462663
34.2212
-0.352307
34.4898
-0.2711
34.6956
-0.209272
34.8529
-0.159838
34.969
-0.119328
35.0498
-0.0858934
35.1017
-0.057029
35.1289
-0.0318394
35.1328
-0.00981776
35.1167
0.010285
35.0818
0.0288126
35.0298
0.046684
34.9607
0.0645274
34.8737
0.0831934
34.7664
0.104123
34.6337
0.12999
34.463
0.16737
0.237185
23.1728
-4.79964
23.7424
-3.60849
24.4936
-2.6652
25.2138
-1.97901
25.8378
-1.49189
26.3565
-1.14478
26.7825
-0.892229
27.1302
-0.703648
27.4147
-0.558483
27.6466
-0.443859
27.8353
-0.350846
27.9857
-0.274319
28.1043
-0.209257
28.1956
-0.15395
28.2634
-0.1054
28.31
-0.0625198
28.3374
-0.0235407
28.3476
0.0124761
28.3418
0.0471596
28.3202
0.0815085
28.2825
0.117137
28.2272
0.156194
28.1518
0.202612
28.0535
0.263458
0.350209
24.6163
-4.6365
24.8037
-3.79841
25.1822
-3.04666
25.625
-2.42514
26.0612
-1.93153
26.4582
-1.54542
26.8057
-1.24318
27.1032
-1.00442
27.355
-0.813038
27.566
-0.657295
27.7407
-0.528734
27.8833
-0.4203
27.9964
-0.328915
28.0859
-0.249154
28.1532
-0.179399
28.2012
-0.116836
28.2311
-0.0603167
28.2454
-0.00760871
28.2446
0.042764
28.2294
0.0924285
28.1996
0.143242
28.155
0.197789
28.0953
0.259821
28.0204
0.334768
0.432038
25.5922
-4.48069
25.6284
-3.83712
25.8061
-3.22723
26.0625
-2.68466
26.3484
-2.22092
26.6329
-1.8333
26.8987
-1.51236
27.1382
-1.24689
27.3487
-1.02637
27.5304
-0.841904
27.6851
-0.685865
27.8125
-0.553567
27.917
-0.438938
28.0002
-0.338755
28.0646
-0.249876
28.1111
-0.17024
28.1421
-0.0976704
28.1589
-0.0298024
28.1622
0.0347366
28.1527
0.0980546
28.1306
0.161881
28.0966
0.228891
28.0511
0.302549
27.9967
0.387761
0.488082
26.3126
-4.32742
26.2769
-3.80384
26.3417
-3.29487
26.4764
-2.8225
26.6511
-2.39895
26.8423
-2.02786
27.0339
-1.70718
27.2158
-1.43195
27.3825
-1.19607
27.5315
-0.993529
27.6608
-0.819285
27.7708
-0.668013
27.8625
-0.535577
27.937
-0.418657
27.9955
-0.314325
28.0389
-0.219857
28.0694
-0.133294
28.0872
-0.0526136
28.0937
0.0243327
28.0889
0.0991097
28.0737
0.17375
28.0492
0.2507
28.0167
0.332863
27.9774
0.423202
0.527419
26.8773
-4.17182
26.8006
-3.7295
26.7969
-3.29401
26.8509
-2.87956
26.9448
-2.49607
27.0623
-2.1487
27.1905
-1.83867
27.32
-1.56453
27.4444
-1.32346
27.5594
-1.11187
27.6627
-0.925842
27.7529
-0.761897
27.8296
-0.616695
27.8933
-0.487131
27.9445
-0.369576
27.9832
-0.26398
28.0113
-0.165995
28.0293
-0.0745315
28.0376
0.012648
28.0365
0.09672
28.0272
0.179937
28.0109
0.264251
27.9886
0.352369
27.9635
0.447554
0.550144
27.338
-4.01134
27.2342
-3.6281
27.1856
-3.24815
27.1839
-2.88093
27.2186
-2.53394
27.2788
-2.21209
27.3548
-1.91779
27.4386
-1.65151
27.5241
-1.41214
27.6072
-1.19781
27.6844
-1.00634
27.7539
-0.834997
27.8145
-0.681197
27.8671
-0.541685
27.9081
-0.416925
27.9418
-0.301097
27.9665
-0.194558
27.9836
-0.0944033
27.9924
0.000418273
27.9941
0.0918093
27.9894
0.181368
27.9798
0.271264
27.9668
0.363474
27.951
0.459379
0.563413
27.7241
-3.84479
27.6005
-3.50688
27.5202
-3.17053
27.4785
-2.84222
27.4691
-2.52753
27.4845
-2.23064
27.5178
-1.95419
27.5628
-1.69936
27.6141
-1.46632
27.6676
-1.2543
27.7201
-1.06179
27.7694
-0.887302
27.8147
-0.728674
27.8526
-0.585198
27.886
-0.452374
27.9123
-0.331125
27.9333
-0.218121
27.9481
-0.11176
27.9568
-0.0113097
27.96
0.0852978
27.959
0.179362
27.9548
0.27279
27.9484
0.367266
27.9425
0.465183
0.565237
28.0536
-3.67166
27.9145
-3.37005
27.8105
-3.06912
27.7389
-2.77344
27.6957
-2.4872
27.6759
-2.21378
27.6745
-1.95566
27.6867
-1.71438
27.7082
-1.49048
27.7354
-1.2839
27.7652
-1.09421
27.7955
-0.920126
27.824
-0.760593
27.851
-0.613334
27.8734
-0.478854
27.893
-0.35326
27.9095
-0.235902
27.9212
-0.126068
27.929
-0.0217766
27.933
0.0779114
27.9347
0.174829
27.9348
0.270444
27.9347
0.366017
27.9341
0.461907
0.562009
28.3384
-3.49178
28.1864
-3.22028
28.0638
-2.94898
27.969
-2.68124
27.8993
-2.42019
27.8514
-2.16859
27.8217
-1.92858
27.8065
-1.70162
27.8024
-1.48871
27.8062
-1.29015
27.8154
-1.10559
27.8279
-0.934662
27.8422
-0.776369
27.8556
-0.630534
27.8695
-0.493637
27.8821
-0.367182
27.8929
-0.248211
27.9014
-0.136583
27.9076
-0.0305834
27.9119
0.0706469
27.9155
0.16887
27.919
0.264958
27.9227
0.360099
27.9291
0.456083
0.550721
28.5863
-3.30522
28.4233
-3.05941
28.2857
-2.81358
28.1722
-2.57022
28.0813
-2.33176
28.0107
-2.10036
27.9576
-1.87786
27.9193
-1.66571
27.8932
-1.46477
27.8768
-1.27555
27.8677
-1.09831
27.8641
-0.93267
27.8638
-0.778276
27.8674
-0.633293
27.8709
-0.499705
27.8769
-0.372937
27.882
-0.254811
27.8871
-0.143047
27.8911
-0.0373458
27.8955
0.0640639
27.9003
0.162021
27.9062
0.257622
27.9142
0.351562
27.9233
0.443557
0.537129
28.803
-3.11214
28.6304
-2.88881
28.4801
-2.66536
28.3514
-2.4437
28.2431
-2.2257
28.1537
-2.01312
28.0812
-1.8075
28.0236
-1.61001
27.9787
-1.42167
27.9445
-1.24304
27.9193
-1.07424
27.9012
-0.915375
27.8894
-0.765944
27.8804
-0.626854
27.877
-0.494655
27.8751
-0.371689
27.8753
-0.255656
27.8764
-0.145762
27.8787
-0.0415005
27.8826
0.0586168
27.8883
0.155101
27.8962
0.248752
27.9061
0.340122
27.9205
0.430672
0.517748
28.9925
-2.91276
28.8114
-2.70951
28.6502
-2.50612
28.5087
-2.30409
28.3859
-2.1049
28.2808
-1.90995
28.192
-1.72051
28.118
-1.53768
28.0571
-1.36219
28.0078
-1.19463
27.9684
-1.03547
27.9377
-0.884686
27.9134
-0.742624
27.8966
-0.60792
27.8837
-0.482404
27.8754
-0.36353
27.8709
-0.25095
27.8684
-0.144523
27.869
-0.0427758
27.8723
0.05455
27.8785
0.148379
27.8878
0.23926
27.9008
0.327562
27.9163
0.412608
0.497526
29.1577
-2.70734
28.9688
-2.52233
28.7982
-2.33724
28.6456
-2.15326
28.5106
-1.97157
28.3923
-1.7933
28.2897
-1.61949
28.2018
-1.45099
28.1273
-1.28857
28.0648
-1.13278
28.0132
-0.983916
27.9708
-0.842391
27.9374
-0.708015
27.9102
-0.581801
27.8905
-0.461708
27.8766
-0.348627
27.8673
-0.240939
27.8621
-0.138997
27.8609
-0.0413164
27.8636
0.0521564
27.8703
0.14223
27.8808
0.229056
27.8949
0.313002
27.9145
0.395169
0.47289
29.3007
-2.49613
29.1048
-2.32793
28.9258
-2.15978
28.7636
-1.99263
28.618
-1.82743
28.4884
-1.66508
28.3742
-1.50641
28.2745
-1.35217
28.1882
-1.20296
28.1145
-1.05928
28.0521
-0.921582
28.0001
-0.790074
27.9566
-0.66516
27.9225
-0.546211
27.8958
-0.434057
27.8773
-0.326775
27.8636
-0.226125
27.8561
-0.129166
27.8533
-0.0371291
27.8556
0.0513633
27.8626
0.136481
27.8742
0.218622
27.8908
0.297865
27.9112
0.373365
0.447787
29.4232
-2.27933
29.2208
-2.12684
29.0341
-1.97458
28.8635
-1.82333
28.7087
-1.67384
28.5694
-1.52685
28.4451
-1.38302
28.3353
-1.24292
28.2391
-1.1071
28.1557
-0.975991
28.0841
-0.849918
28.0232
-0.729145
27.9724
-0.613839
27.9308
-0.504115
27.8994
-0.399329
27.875
-0.300719
27.8592
-0.205926
27.849
-0.116631
27.8452
-0.0308761
27.8474
0.0516836
27.8551
0.131083
27.8679
0.207473
27.8855
0.280839
27.9095
0.352135
0.418882
29.5264
-2.05709
29.3177
-1.91941
29.1241
-1.78225
28.9459
-1.64622
28.7829
-1.51192
28.6352
-1.37992
28.5023
-1.25072
28.3838
-1.1248
28.2791
-1.00255
28.1874
-0.884335
28.108
-0.770432
28.0398
-0.661076
27.9823
-0.556285
27.9355
-0.456088
27.8982
-0.360817
27.8712
-0.269721
27.8515
-0.184175
27.8401
-0.101936
27.836
-0.0230331
27.8384
0.0527013
27.8468
0.125593
27.8609
0.195679
27.8811
0.263009
27.9062
0.326728
0.389019
29.6112
-1.82943
29.3965
-1.70589
29.1964
-1.58324
29.0111
-1.46197
28.8409
-1.34253
28.6857
-1.22533
28.5453
-1.11073
28.4194
-0.999066
28.3075
-0.890631
28.2089
-0.78569
28.1229
-0.684448
28.0488
-0.587047
27.9861
-0.493574
27.9343
-0.404055
27.8935
-0.318435
27.8622
-0.237504
27.8412
-0.159558
27.8289
-0.0856101
27.8247
-0.0144283
27.8278
0.053927
27.8375
0.119614
27.8533
0.182545
27.875
0.24277
27.904
0.301005
0.355371
29.6781
-1.59622
29.4575
-1.48631
29.251
-1.3778
29.0593
-1.27107
28.8824
-1.16638
28.7206
-1.06399
28.5737
-0.964091
28.4415
-0.866885
28.3235
-0.772548
28.2191
-0.681244
28.1279
-0.593111
28.0491
-0.508259
27.9821
-0.426705
27.9268
-0.348472
27.8823
-0.27375
27.8497
-0.201848
27.8269
-0.133992
27.8146
-0.0682952
27.8109
-0.00555037
27.8151
0.0547062
27.8263
0.112431
27.8442
0.167789
27.8691
0.220782
27.9002
0.270878
0.319598
29.7277
-1.3571
29.5008
-1.26046
29.2881
-1.16597
29.0901
-1.0738
28.9071
-0.98402
28.7394
-0.896656
28.5869
-0.811735
28.4494
-0.729307
28.3264
-0.649426
28.2175
-0.57217
28.1221
-0.497586
28.0397
-0.42572
27.9697
-0.356614
27.9117
-0.290224
27.8658
-0.22643
27.8311
-0.165759
27.8087
-0.106947
27.7966
-0.0510376
27.794
0.00268648
27.7997
0.0541544
27.8131
0.103411
27.8337
0.150468
27.8613
0.19543
27.8968
0.238893
0.279523
29.76
-1.1113
29.5264
-1.0278
29.3072
-0.947543
29.103
-0.870297
28.9144
-0.79589
28.7415
-0.72401
28.5842
-0.654549
28.4424
-0.587335
28.3155
-0.522363
28.2032
-0.459573
28.1048
-0.398989
28.0199
-0.340607
27.948
-0.284392
27.8888
-0.230336
27.8416
-0.178455
27.8075
-0.128343
27.7851
-0.0806337
27.7743
-0.0346048
27.7733
0.00939836
27.7812
0.0514818
27.7973
0.0916642
27.8212
0.130104
27.853
0.166974
27.8921
0.201856
0.235692
29.7749
-0.857331
29.5335
-0.787285
29.3073
-0.721999
29.097
-0.660594
28.9032
-0.602414
28.7258
-0.546797
28.5647
-0.493452
28.4196
-0.442029
28.29
-0.392484
28.1754
-0.344641
28.0753
-0.29854
27.9891
-0.254078
27.9165
-0.21127
27.8569
-0.170059
27.8104
-0.130295
27.7767
-0.0922514
27.7561
-0.0552991
27.747
-0.0201893
27.7484
0.0135678
27.7592
0.0456731
27.7788
0.0763582
27.8067
0.105729
27.8427
0.133742
27.8872
0.161005
0.18638
29.7716
-0.592113
29.5206
-0.537301
29.2868
-0.48858
29.0705
-0.445031
28.8722
-0.40419
28.6911
-0.366156
28.5274
-0.329544
28.3801
-0.294779
28.2491
-0.261086
28.1334
-0.228809
28.0328
-0.19761
27.9466
-0.16756
27.8744
-0.138668
27.8159
-0.110651
27.7706
-0.0838416
27.7392
-0.0575992
27.7205
-0.0327795
27.7143
-0.00858636
27.7189
0.0142365
27.7334
0.0360651
27.7572
0.0569017
27.7898
0.0767324
27.8314
0.0960315
27.8811
0.114047
0.131807
29.7468
-0.311073
29.4849
-0.274925
29.2423
-0.247812
29.0215
-0.223873
28.8191
-0.203071
28.6364
-0.183107
28.4709
-0.164747
28.3232
-0.14683
28.1918
-0.129895
28.0766
-0.113475
27.9767
-0.0976754
27.8916
-0.0825334
27.8213
-0.067734
27.7647
-0.0536222
27.7223
-0.0396986
27.6934
-0.0264595
27.6785
-0.0132652
27.6757
-0.000857293
27.6844
0.0109584
27.7036
0.0221109
27.7324
0.0326072
27.7708
0.0427647
27.818
0.0522851
27.8746
0.0617935
0.0708435
29.6947
29.4182
29.1708
28.9458
28.743
28.5592
28.3946
28.2475
28.1176
28.0041
27.9063
27.824
27.7563
27.7033
27.6644
27.64
27.6292
27.6311
27.6448
27.6694
27.7043
27.749
27.8033
27.8671
)
;

boundaryField
{
    inlet
    {
        type            calculated;
        value           nonuniform List<scalar> 
25
(
-26.4813
-26.5275
-26.617
-26.7436
-26.9004
-27.0794
-27.273
-27.4745
-27.6782
-27.8794
-28.0744
-28.2605
-28.4356
-28.5982
-28.7474
-28.8826
-29.0036
-29.1102
-29.2026
-29.281
-29.3457
-29.3969
-29.4349
-29.46
-29.4735
)
;
    }
    sym
    {
        type            calculated;
        value           uniform 0;
    }
    wedge
    {
        type            calculated;
        value           nonuniform List<scalar> 
25
(
-2.0854e-15
-5.33017e-36
-5.41546e-36
2.0854e-15
4.17079e-15
0
-5.49145e-36
0
2.0854e-15
0
-2.0854e-15
-5.52855e-36
0
-5.54378e-36
2.0854e-15
0
4.17079e-15
2.0854e-15
2.0854e-15
2.0854e-15
-5.60125e-36
-2.0854e-15
2.0854e-15
-5.6281e-36
0
)
;
    }
    top
    {
        type            calculated;
        value           uniform 0;
    }
    back
    {
        type            empty;
    }
    front
    {
        type            empty;
    }
    outlet
    {
        type            calculated;
        value           nonuniform List<scalar> 
25
(
34.2247
27.938
27.938
27.938
27.938
27.938
27.938
27.938
27.938
27.938
27.938
27.938
27.938
27.938
27.938
27.938
27.938
27.938
27.938
27.938
27.938
27.938
27.938
27.938
27.938
)
;
    }
}


// ************************************************************************* //
