/*--------------------------------*- C++ -*----------------------------------*\
| =========                 |                                                 |
| \\      /  F ield         | OpenFOAM: The Open Source CFD Toolbox           |
|  \\    /   O peration     | Version:  2412                                  |
|   \\  /    A nd           | Website:  www.openfoam.com                      |
|    \\/     M anipulation  |                                                 |
\*---------------------------------------------------------------------------*/
FoamFile
{
    version     2.0;
    format      ascii;
    arch        "LSB;label=32;scalar=64";
    class       volScalarField;
    location    "1";
    object      rho;
}
// * * * * * * * * * * * * * * * * * * * * * * * * * * * * * * * * * * * * * //

dimensions      [1 -3 0 0 0 0 0];

internalField   nonuniform List<scalar> 
1250
(
1.34991
1.70193
2.05418
2.40697
2.76039
3.11479
3.47022
3.82709
4.18547
4.54582
4.90824
5.27327
5.64106
6.01226
6.38712
6.76643
7.1506
7.54067
7.9373
8.34192
8.75571
9.18086
9.61959
10.0756
10.5538
1.34927
1.70001
2.05097
2.40243
2.75448
3.10744
3.46135
3.81659
4.17323
4.53166
4.89198
5.25465
5.6198
5.98796
6.35932
6.7345
7.11377
7.49787
7.88714
8.28245
8.6842
9.09331
9.51009
9.9351
10.368
1.34805
1.69632
2.04477
2.39368
2.74309
3.09329
3.4443
3.79646
4.14978
4.50463
4.86103
5.21936
5.57969
5.94242
6.30761
6.67571
7.04679
7.42128
7.79921
8.18098
8.56643
8.95579
9.34857
9.74443
10.1424
1.34631
1.69109
2.036
2.3813
2.72699
3.07332
3.42029
3.76817
4.11695
4.46691
4.81802
5.17061
5.52462
5.88038
6.23782
6.59726
6.95858
7.32206
7.6875
8.05507
8.42438
8.79544
9.16759
9.54049
9.91338
1.34415
1.68461
2.02516
2.36601
2.70713
3.04874
3.39079
3.73352
4.07685
4.42104
4.766
5.11196
5.45882
5.80682
6.15582
6.50602
6.85724
7.20962
7.56288
7.9171
8.27182
8.62702
8.98208
9.33675
9.6905
1.34169
1.67723
2.01279
2.34859
2.68453
3.02082
3.35737
3.69437
4.03171
4.36961
4.70791
5.04683
5.3862
5.7262
6.06664
6.40767
6.74905
7.09088
7.43284
7.77498
8.11687
8.45847
8.79925
9.13904
9.47747
1.33903
1.66924
1.99942
2.32976
2.66015
2.99076
3.32146
3.65242
3.9835
4.31487
4.64636
4.97813
5.30999
5.64209
5.9742
6.30645
6.63856
6.97063
7.30232
7.63368
7.9643
8.29418
8.62284
8.9502
9.27596
1.33627
1.66092
1.98552
2.31022
2.63487
2.95964
3.28435
3.60917
3.93392
4.25876
4.58348
4.90823
5.23279
5.55728
5.88148
6.20548
6.529
6.85213
7.17455
7.49631
7.81702
8.13671
8.45496
8.77172
9.08676
1.33347
1.65252
1.97148
2.29049
2.60939
2.9283
3.24706
3.5658
3.88433
4.20277
4.52093
4.83891
5.15651
5.47382
5.7906
6.10694
6.42259
6.73759
7.05167
7.36486
7.67682
7.98758
8.29677
8.60437
8.91019
1.3307
1.64422
1.95762
2.27104
2.58428
2.89747
3.21043
3.52326
3.83578
4.14809
4.45998
4.77156
5.0826
5.39319
5.70309
6.01239
6.32084
6.62848
6.93505
7.24059
7.54479
7.84768
8.14893
8.44854
8.74634
1.32802
1.63618
1.9442
2.2522
2.55999
2.86768
3.17507
3.48227
3.78907
4.09558
4.40156
4.70714
5.01207
5.31644
5.62001
5.92287
6.22477
6.52576
6.82558
7.12429
7.42158
7.71752
8.01177
8.30436
8.59515
1.32547
1.62851
1.9314
2.23425
2.53686
2.83934
3.14146
3.44335
3.74478
4.04586
4.34635
4.64635
4.94564
5.24429
5.54208
5.83908
6.13504
6.43004
6.72381
7.01642
7.30757
7.59734
7.88542
8.17183
8.45646
1.32306
1.62129
1.91936
2.21738
2.51513
2.81272
3.10994
3.40688
3.70333
3.99937
4.2948
4.58968
4.8838
5.17724
5.46977
5.76146
6.05208
6.34169
6.63005
6.91722
7.20293
7.48723
7.76986
8.05084
8.33005
1.32083
1.61459
1.90818
2.20171
2.49497
2.78805
3.08073
3.37312
3.66498
3.95642
4.2472
4.53742
4.82685
5.11557
5.40336
5.69028
5.97611
6.26091
6.54446
6.8268
7.10768
7.38718
7.66501
7.94121
8.21568
1.31878
1.60844
1.89793
2.18735
2.47649
2.76544
3.05399
3.34222
3.62992
3.91718
4.20377
4.48978
4.77498
5.05946
5.343
5.62566
5.90723
6.18777
6.46706
6.74514
7.02179
7.29705
7.57069
7.84272
8.11306
1.31692
1.60286
1.88863
2.17434
2.45975
2.74497
3.02978
3.31428
3.59823
3.88173
4.16457
4.44681
4.72826
5.00897
5.28874
5.56764
5.84545
6.12224
6.39779
6.67216
6.9451
7.2167
7.48669
7.75512
8.0219
1.31526
1.59788
1.88032
2.1627
2.44479
2.72669
3.00817
3.28933
3.56996
3.85014
4.12965
4.40857
4.6867
4.9641
5.24057
5.51618
5.79072
6.06425
6.33656
6.60771
6.87747
7.14591
7.41279
7.67814
7.94189
1.31379
1.59348
1.873
2.15245
2.43161
2.71058
2.98914
3.26738
3.54509
3.82236
4.09897
4.375
4.65025
4.92478
5.1984
5.47117
5.74289
6.01363
6.28318
6.55159
6.81866
7.08444
7.3487
7.61148
7.8727
1.31252
1.58967
1.86665
2.14356
2.42019
2.69663
2.97267
3.2484
3.5236
3.79837
4.07249
4.34604
4.61883
4.89092
5.16211
5.43248
5.70184
5.97023
6.23746
6.5036
6.76843
7.03201
7.29413
7.55482
7.81399
1.31145
1.58644
1.86127
2.13603
2.41051
2.68481
2.95872
3.23232
3.50541
3.77807
4.0501
4.32158
4.59231
4.86237
5.13156
5.39994
5.66734
5.93381
6.19917
6.46347
6.72651
6.98834
7.24877
7.50781
7.7654
1.31056
1.58378
1.85683
2.12982
2.40254
2.67508
2.94723
3.21909
3.49044
3.76139
4.03171
4.30151
4.57057
4.83899
5.10656
5.37336
5.63921
5.90416
6.16805
6.43092
6.69258
6.95309
7.21225
7.47009
7.72655
1.30986
1.58167
1.85332
2.12491
2.39623
2.66737
2.93814
3.20863
3.47862
3.74821
4.01721
4.28568
4.55345
4.82059
5.08692
5.3525
5.61717
5.88099
6.14379
6.40562
6.66629
6.92588
7.18418
7.44124
7.69699
1.30933
1.5801
1.85071
2.12126
2.39154
2.66166
2.9314
3.20087
3.46985
3.73845
4.00646
4.27397
4.5408
4.80701
5.07244
5.33716
5.601
5.86403
6.12608
6.38722
6.64726
6.90629
7.16411
7.42078
7.67622
1.30899
1.57906
1.84898
2.11884
2.38844
2.65787
2.92694
3.19574
3.46406
3.732
3.99937
4.26625
4.53246
4.79808
5.06293
5.3271
5.59042
5.85296
6.11457
6.37531
6.63503
6.89381
7.15148
7.40809
7.66361
1.3088
1.57856
1.84811
2.11765
2.38689
2.65601
2.92472
3.1932
3.46118
3.72882
3.99585
4.26244
4.52832
4.79366
5.05822
5.32214
5.58519
5.84753
6.10892
6.36953
6.62911
6.88786
7.14555
7.40236
7.65822
11.0208
11.0154
11.0754
11.2535
11.5029
11.781
12.0625
12.334
12.5896
12.8271
13.0458
13.2459
13.4279
13.5923
13.7396
13.8699
13.9837
14.0812
14.1625
14.2277
14.277
14.3105
14.3285
14.3315
14.3206
10.9207
11.4757
12.0018
12.4917
12.9453
13.3653
13.7546
14.1158
14.4511
14.7623
15.0506
15.3172
15.5628
15.7881
15.9937
16.1798
16.3467
16.4945
16.6235
16.7336
16.8249
16.8974
16.9513
16.9869
17.0046
10.6419
11.1411
11.6245
12.0849
12.5193
12.9269
13.3086
13.6654
13.9985
14.309
14.5977
14.8654
15.1128
15.3403
15.5484
15.7374
15.9073
16.0584
16.1907
16.3042
16.3988
16.4745
16.5314
16.5695
16.5887
10.3776
10.8382
11.2881
11.7218
12.1361
12.5292
12.9007
13.2505
13.5789
13.8865
14.1737
14.441
14.6887
14.9172
15.1268
15.3176
15.4896
15.6431
15.7779
15.8939
15.991
16.0693
16.1284
16.1682
16.1884
10.1283
10.5598
10.9827
11.3933
11.7887
12.167
12.5271
12.8683
13.1906
13.4937
13.778
14.0434
14.2903
14.5186
14.7286
14.9203
15.0937
15.2486
15.3851
15.503
15.602
15.6821
15.7428
15.7838
15.8047
9.89413
10.3022
10.703
11.0937
11.472
11.836
12.1844
12.5164
12.8314
13.1291
13.4093
13.6719
13.9169
14.1442
14.3538
14.5455
14.7194
14.8752
15.0127
15.1318
15.2321
15.3134
15.3752
15.4172
15.4385
9.67507
10.0637
10.4458
10.8192
11.182
11.5326
11.8697
12.1923
12.4996
12.7912
13.0667
13.3257
13.568
13.7935
14.0018
14.193
14.3667
14.5227
14.6607
14.7804
14.8815
14.9636
15.0261
15.0686
15.0904
9.47091
9.84291
10.2088
10.5671
10.916
11.2542
11.5805
11.8938
12.1934
12.4786
12.7489
13.0037
13.2428
13.4658
13.6725
13.8624
14.0354
14.1911
14.329
14.4489
14.5504
14.6329
14.6959
14.7387
14.7606
9.28137
9.63883
9.99062
10.3354
10.6718
10.9987
11.3148
11.6193
11.9112
12.1899
12.4547
12.7051
12.9406
13.1608
13.3652
13.5536
13.7254
13.8802
14.0177
14.1375
14.2389
14.3215
14.3847
14.4276
14.4496
9.10612
9.45073
9.78999
10.1228
10.4479
10.7644
11.0711
11.3671
11.6517
11.9239
12.1832
12.429
12.6607
12.8777
13.0796
13.266
13.4363
13.59
13.7268
13.846
13.9471
14.0296
14.0927
14.1357
14.1577
8.94483
9.27796
9.60603
9.92803
10.243
10.5499
10.8479
11.136
11.4135
11.6795
11.9334
12.1745
12.4022
12.616
12.8151
12.9993
13.1678
13.3202
13.4559
13.5744
13.6751
13.7572
13.8201
13.8629
13.8848
8.79713
9.11996
9.43796
9.75025
10.056
10.3542
10.6441
10.9248
11.1956
11.4557
11.7043
11.9408
12.1646
12.3749
12.5713
12.7531
12.9197
13.0706
13.2051
13.3226
13.4226
13.5042
13.5668
13.6094
13.6312
8.66268
8.97622
9.28513
9.58864
9.88594
10.1762
10.4587
10.7326
10.9971
11.2516
11.4951
11.7272
11.947
12.1541
12.3475
12.5269
12.6915
12.8408
12.974
13.0905
13.1896
13.2706
13.3328
13.3751
13.3968
8.54112
8.84624
9.14694
9.44249
9.73218
10.0152
10.2909
10.5585
10.8172
11.0663
11.3051
11.5329
11.749
11.9527
12.1434
12.3204
12.483
12.6305
12.7624
12.8778
12.976
13.0564
13.118
13.16
13.1815
8.43207
8.72959
9.02285
9.31121
9.59398
9.87047
10.14
10.4017
10.6551
10.8993
11.1336
11.3574
11.5699
11.7705
11.9585
12.1331
12.2937
12.4396
12.57
12.6842
12.7816
12.8612
12.9222
12.9639
12.9852
8.33519
8.62582
8.91238
9.19423
9.47076
9.74129
10.0051
10.2616
10.5101
10.7497
10.9799
11.2
11.4092
11.6068
11.7922
11.9646
12.1233
12.2675
12.3966
12.5097
12.6061
12.6849
12.7455
12.7868
12.8079
8.2501
8.53453
8.81503
9.09104
9.36194
9.62711
9.88588
10.1376
10.3816
10.6171
10.8436
11.0602
11.2663
11.4612
11.6442
11.8145
11.9713
12.114
12.2417
12.3538
12.4492
12.5274
12.5874
12.6283
12.6493
8.17646
8.45529
8.73037
9.00114
9.26701
9.52739
9.78163
10.0291
10.2691
10.5009
10.724
10.9375
11.1408
11.3332
11.514
11.6823
11.8375
11.9788
12.1053
12.2163
12.3109
12.3884
12.4479
12.4885
12.5093
8.11386
8.3877
8.65794
8.92406
9.18549
9.44163
9.69187
9.93556
10.172
10.4007
10.6207
10.8315
11.0323
11.2225
11.4012
11.5679
11.7215
11.8615
11.9869
12.0969
12.1907
12.2676
12.3266
12.3669
12.3876
8.06194
8.33134
8.59731
8.85935
9.11689
9.36936
9.61613
9.85657
10.09
10.3158
10.5332
10.7417
10.9403
11.1285
11.3056
11.4707
11.623
11.7618
11.8862
11.9954
12.0885
12.1649
12.2235
12.2635
12.284
8.02027
8.28577
8.54803
8.80655
9.06077
9.31011
9.55395
9.79165
10.0225
10.246
10.4612
10.6676
10.8645
11.0511
11.2266
11.3904
11.5416
11.6794
11.8029
11.9114
12.004
12.0799
12.1381
12.1779
12.1983
7.9884
8.25051
8.50962
8.7652
9.01668
9.26347
9.50492
9.7404
9.96923
10.1907
10.4043
10.6091
10.8045
10.9897
11.1641
11.3268
11.4771
11.6141
11.7369
11.8448
11.9369
12.0124
12.0704
12.11
12.1302
7.9658
8.22506
8.4816
8.73484
8.98419
9.229
9.46864
9.70243
9.92971
10.1498
10.362
10.5656
10.7599
10.9441
11.1176
11.2795
11.4291
11.5654
11.6877
11.7952
11.8869
11.9621
12.0199
12.0594
12.0796
7.95179
8.20881
8.46342
8.71501
8.96286
9.20634
9.44474
9.6774
9.90363
10.1227
10.3341
10.5368
10.7304
10.914
11.0869
11.2482
11.3973
11.5332
11.6552
11.7624
11.8539
11.9289
11.9865
12.0259
12.046
7.94552
8.20105
8.45459
8.70527
8.95236
9.19514
9.43293
9.66501
9.89072
10.1094
10.3202
10.5226
10.7158
10.8991
11.0716
11.2327
11.3815
11.5173
11.639
11.746
11.8374
11.9123
11.9699
12.0093
12.0294
)
;

boundaryField
{
    inlet
    {
        type            calculated;
        value           uniform 1.17397;
    }
    sym
    {
        type            calculated;
        value           nonuniform List<scalar> 
25
(
1.34991
1.70193
2.05418
2.40697
2.76039
3.11479
3.47022
3.82709
4.18547
4.54582
4.90824
5.27327
5.64106
6.01226
6.38712
6.76643
7.1506
7.54067
7.9373
8.34192
8.75571
9.18086
9.61959
10.0756
10.5538
)
;
    }
    wedge
    {
        type            calculated;
        value           nonuniform List<scalar> 
25
(
11.0208
11.0154
11.0754
11.2535
11.5029
11.781
12.0625
12.334
12.5896
12.8271
13.0458
13.2459
13.4279
13.5923
13.7396
13.8699
13.9837
14.0812
14.1625
14.2277
14.277
14.3105
14.3285
14.3315
14.3206
)
;
    }
    top
    {
        type            calculated;
        value           nonuniform List<scalar> 
50
(
1.3088
1.57856
1.84811
2.11765
2.38689
2.65601
2.92472
3.1932
3.46118
3.72882
3.99585
4.26244
4.52832
4.79366
5.05822
5.32214
5.58519
5.84753
6.10892
6.36953
6.62911
6.88786
7.14555
7.40236
7.65822
7.94552
8.20105
8.45459
8.70527
8.95236
9.19514
9.43293
9.66501
9.89072
10.1094
10.3202
10.5226
10.7158
10.8991
11.0716
11.2327
11.3815
11.5173
11.639
11.746
11.8374
11.9123
11.9699
12.0093
12.0294
)
;
    }
    back
    {
        type            empty;
    }
    front
    {
        type            empty;
    }
    outlet
    {
        type            calculated;
        value           nonuniform List<scalar> 
25
(
17.4823
17.0046
16.5887
16.1884
15.8047
15.4385
15.0904
14.7606
14.4496
14.1577
13.8848
13.6312
13.3968
13.1815
12.9852
12.8079
12.6493
12.5093
12.3876
12.284
12.1983
12.1302
12.0796
12.046
12.0294
)
;
    }
}


// ************************************************************************* //
