/*--------------------------------*- C++ -*----------------------------------*\
| =========                 |                                                 |
| \\      /  F ield         | OpenFOAM: The Open Source CFD Toolbox           |
|  \\    /   O peration     | Version:  2412                                  |
|   \\  /    A nd           | Website:  www.openfoam.com                      |
|    \\/     M anipulation  |                                                 |
\*---------------------------------------------------------------------------*/
FoamFile
{
    version     2.0;
    format      ascii;
    arch        "LSB;label=32;scalar=64";
    class       volVectorField;
    location    "1";
    object      U;
}
// * * * * * * * * * * * * * * * * * * * * * * * * * * * * * * * * * * * * * //

dimensions      [0 1 -1 0 0 0 0];

internalField   nonuniform List<vector> 
1250
(
(599.054 0.0232302 0)
(599.019 0.0701414 0)
(598.947 0.117456 0)
(598.839 0.16629 0)
(598.692 0.216406 0)
(598.506 0.269192 0)
(598.278 0.324639 0)
(598.006 0.384336 0)
(597.685 0.448207 0)
(597.312 0.518404 0)
(596.88 0.595363 0)
(596.384 0.681841 0)
(595.815 0.778679 0)
(595.163 0.889954 0)
(594.415 1.01813 0)
(593.555 1.16934 0)
(592.563 1.34866 0)
(591.414 1.56706 0)
(590.07 1.83643 0)
(588.487 2.17753 0)
(586.593 2.61836 0)
(584.292 3.20579 0)
(581.442 4.00912 0)
(577.807 5.14544 0)
(577.229 6.80011 0)
(599.289 0.0682308 0)
(599.257 0.205436 0)
(599.19 0.34424 0)
(599.088 0.486664 0)
(598.951 0.633544 0)
(598.779 0.787246 0)
(598.568 0.948881 0)
(598.317 1.12149 0)
(598.022 1.30659 0)
(597.683 1.50815 0)
(597.292 1.72865 0)
(596.846 1.97367 0)
(596.339 2.24721 0)
(595.766 2.55739 0)
(595.119 2.91135 0)
(594.388 3.32168 0)
(593.565 3.80126 0)
(592.643 4.37127 0)
(591.609 5.05598 0)
(590.458 5.89283 0)
(589.184 6.93029 0)
(587.797 8.24081 0)
(586.33 9.92321 0)
(584.84 12.1265 0)
(590.012 15.0605 0)
(599.744 0.108705 0)
(599.715 0.326809 0)
(599.656 0.547829 0)
(599.568 0.77361 0)
(599.449 1.00663 0)
(599.301 1.24901 0)
(599.12 1.50342 0)
(598.907 1.77284 0)
(598.659 2.06072 0)
(598.375 2.3709 0)
(598.053 2.70778 0)
(597.691 3.07692 0)
(597.286 3.48469 0)
(596.837 3.93886 0)
(596.341 4.44837 0)
(595.798 5.02493 0)
(595.208 5.68211 0)
(594.576 6.43714 0)
(593.905 7.30981 0)
(593.211 8.32548 0)
(592.51 9.51299 0)
(591.834 10.9063 0)
(591.234 12.5404 0)
(590.753 14.4484 0)
(596.514 16.6466 0)
(600.387 0.142589 0)
(600.363 0.428577 0)
(600.315 0.718157 0)
(600.244 1.01327 0)
(600.149 1.31683 0)
(600.031 1.63116 0)
(599.888 1.9594 0)
(599.721 2.30453 0)
(599.529 2.67025 0)
(599.313 3.06041 0)
(599.071 3.47948 0)
(598.804 3.93257 0)
(598.511 4.42539 0)
(598.195 4.96463 0)
(597.856 5.55759 0)
(597.497 6.21301 0)
(597.124 6.94015 0)
(596.745 7.74986 0)
(596.367 8.65301 0)
(596.01 9.66175 0)
(595.688 10.7867 0)
(595.426 12.0376 0)
(595.256 13.4186 0)
(595.188 14.927 0)
(601.001 16.5467 0)
(601.183 0.168877 0)
(601.165 0.507482 0)
(601.129 0.849875 0)
(601.077 1.19796 0)
(601.006 1.55472 0)
(600.92 1.92236 0)
(600.817 2.30398 0)
(600.698 2.7023 0)
(600.564 3.12069 0)
(600.415 3.56253 0)
(600.251 4.0316 0)
(600.075 4.53207 0)
(599.887 5.06828 0)
(599.69 5.64521 0)
(599.487 6.26776 0)
(599.282 6.94162 0)
(599.081 7.67194 0)
(598.892 8.46457 0)
(598.723 9.32402 0)
(598.588 10.2549 0)
(598.497 11.2592 0)
(598.466 12.3378 0)
(598.515 13.4866 0)
(598.636 14.6985 0)
(604.397 15.9603 0)
(602.091 0.187418 0)
(602.079 0.563074 0)
(602.055 0.942375 0)
(602.021 1.32704 0)
(601.975 1.71984 0)
(601.919 2.12271 0)
(601.853 2.53844 0)
(601.78 2.96927 0)
(601.697 3.41804 0)
(601.609 3.88744 0)
(601.514 4.38038 0)
(601.416 4.89996 0)
(601.316 5.44919 0)
(601.218 6.03146 0)
(601.123 6.64969 0)
(601.036 7.30725 0)
(600.962 8.0066 0)
(600.908 8.75056 0)
(600.879 9.54031 0)
(600.887 10.3772 0)
(600.937 11.2598 0)
(601.039 12.1868 0)
(601.205 13.1532 0)
(601.422 14.153 0)
(607.111 15.1778 0)
(603.074 0.198739 0)
(603.068 0.596967 0)
(603.055 0.998467 0)
(603.036 1.40469 0)
(603.012 1.81808 0)
(602.983 2.24019 0)
(602.95 2.67337 0)
(602.915 3.11938 0)
(602.878 3.58049 0)
(602.84 4.05867 0)
(602.802 4.55607 0)
(602.768 5.07486 0)
(602.738 5.61698 0)
(602.715 6.18461 0)
(602.702 6.77933 0)
(602.701 7.40306 0)
(602.718 8.05669 0)
(602.757 8.74145 0)
(602.822 9.45704 0)
(602.921 10.2035 0)
(603.057 10.9786 0)
(603.238 11.7808 0)
(603.47 12.6057 0)
(603.738 13.4491 0)
(609.361 14.3056 0)
(604.096 0.203796 0)
(604.095 0.612023 0)
(604.091 1.02302 0)
(604.086 1.43794 0)
(604.08 1.85883 0)
(604.074 2.28689 0)
(604.069 2.72403 0)
(604.065 3.17156 0)
(604.064 3.6312 0)
(604.067 4.10438 0)
(604.075 4.59259 0)
(604.09 5.09732 0)
(604.113 5.61973 0)
(604.147 6.16121 0)
(604.193 6.72248 0)
(604.255 7.30464 0)
(604.335 7.90772 0)
(604.437 8.53225 0)
(604.563 9.1773 0)
(604.721 9.84258 0)
(604.912 10.5259 0)
(605.139 11.2258 0)
(605.409 11.9389 0)
(605.705 12.6624 0)
(611.272 13.3925 0)
(605.13 0.203669 0)
(605.132 0.611483 0)
(605.136 1.0215 0)
(605.142 1.43462 0)
(605.151 1.85248 0)
(605.163 2.27599 0)
(605.18 2.70663 0)
(605.201 3.14537 0)
(605.228 3.59346 0)
(605.262 4.05192 0)
(605.305 4.52175 0)
(605.356 5.00396 0)
(605.419 5.49917 0)
(605.494 6.00829 0)
(605.583 6.53152 0)
(605.688 7.0695 0)
(605.812 7.62186 0)
(605.956 8.1888 0)
(606.124 8.76925 0)
(606.319 9.36284 0)
(606.543 9.96762 0)
(606.798 10.5826 0)
(607.09 11.205 0)
(607.401 11.833 0)
(612.921 12.4641 0)
(606.15 0.199313 0)
(606.156 0.598289 0)
(606.165 0.998951 0)
(606.18 1.40198 0)
(606.2 1.80861 0)
(606.227 2.21955 0)
(606.26 2.63588 0)
(606.3 3.05832 0)
(606.349 3.48774 0)
(606.407 3.92488 0)
(606.474 4.37035 0)
(606.553 4.82484 0)
(606.644 5.28864 0)
(606.748 5.76235 0)
(606.867 6.24588 0)
(607.002 6.73961 0)
(607.155 7.24301 0)
(607.328 7.75617 0)
(607.522 8.278 0)
(607.741 8.80825 0)
(607.985 9.3452 0)
(608.257 9.88821 0)
(608.56 10.4351 0)
(608.878 10.9846 0)
(614.363 11.535 0)
(607.14 0.191716 0)
(607.147 0.575386 0)
(607.161 0.960285 0)
(607.182 1.34692 0)
(607.211 1.7362 0)
(607.248 2.12865 0)
(607.293 2.52503 0)
(607.348 2.92587 0)
(607.412 3.33174 0)
(607.487 3.74319 0)
(607.573 4.16054 0)
(607.671 4.58428 0)
(607.781 5.01448 0)
(607.906 5.45156 0)
(608.046 5.89525 0)
(608.201 6.34581 0)
(608.373 6.80265 0)
(608.564 7.26582 0)
(608.775 7.73432 0)
(609.008 8.20798 0)
(609.264 8.68536 0)
(609.545 9.16608 0)
(609.853 9.64832 0)
(610.173 10.1314 0)
(615.633 10.6139 0)
(608.084 0.181651 0)
(608.092 0.545125 0)
(608.11 0.909467 0)
(608.135 1.27505 0)
(608.17 1.64249 0)
(608.215 2.01219 0)
(608.269 2.38464 0)
(608.333 2.76024 0)
(608.408 3.13932 0)
(608.495 3.52229 0)
(608.594 3.90927 0)
(608.705 4.30063 0)
(608.829 4.69628 0)
(608.968 5.09652 0)
(609.121 5.501 0)
(609.289 5.90993 0)
(609.474 6.32269 0)
(609.676 6.73935 0)
(609.896 7.159 0)
(610.138 7.58156 0)
(610.4 8.0058 0)
(610.684 8.43152 0)
(610.993 8.85724 0)
(611.312 9.2825 0)
(616.756 9.70632 0)
(608.971 0.169853 0)
(608.981 0.509676 0)
(609.001 0.85007 0)
(609.03 1.19132 0)
(609.069 1.5338 0)
(609.118 1.87783 0)
(609.178 2.22367 0)
(609.25 2.57164 0)
(609.332 2.92189 0)
(609.427 3.27472 0)
(609.534 3.63011 0)
(609.654 3.98835 0)
(609.787 4.34924 0)
(609.934 4.71302 0)
(610.095 5.07929 0)
(610.272 5.44822 0)
(610.463 5.81922 0)
(610.672 6.19236 0)
(610.897 6.56683 0)
(611.142 6.94262 0)
(611.406 7.31868 0)
(611.69 7.69492 0)
(611.998 8.07013 0)
(612.313 8.44404 0)
(617.751 8.81588 0)
(609.796 0.156835 0)
(609.806 0.470599 0)
(609.827 0.784711 0)
(609.858 1.09938 0)
(609.9 1.41481 0)
(609.953 1.73124 0)
(610.017 2.04876 0)
(610.093 2.36763 0)
(610.18 2.68785 0)
(610.28 3.00967 0)
(610.392 3.33295 0)
(610.517 3.65792 0)
(610.656 3.98432 0)
(610.807 4.31233 0)
(610.974 4.64155 0)
(611.154 4.97211 0)
(611.349 5.30345 0)
(611.56 5.63566 0)
(611.787 5.96801 0)
(612.032 6.30053 0)
(612.296 6.63233 0)
(612.577 6.96337 0)
(612.881 7.29266 0)
(613.191 7.62003 0)
(618.631 7.9449 0)
(610.553 0.143071 0)
(610.563 0.429282 0)
(610.585 0.715661 0)
(610.617 1.00238 0)
(610.661 1.28949 0)
(610.716 1.57717 0)
(610.782 1.86541 0)
(610.86 2.1544 0)
(610.95 2.44404 0)
(611.053 2.73453 0)
(611.168 3.02565 0)
(611.295 3.31759 0)
(611.436 3.61004 0)
(611.59 3.90316 0)
(611.758 4.19652 0)
(611.94 4.49025 0)
(612.136 4.78381 0)
(612.347 5.07728 0)
(612.573 5.37004 0)
(612.816 5.66209 0)
(613.077 5.95271 0)
(613.354 6.24188 0)
(613.652 6.52878 0)
(613.956 6.81329 0)
(619.408 7.09497 0)
(611.238 0.128864 0)
(611.249 0.386653 0)
(611.271 0.644483 0)
(611.304 0.902486 0)
(611.349 1.16061 0)
(611.404 1.41899 0)
(611.472 1.67752 0)
(611.551 1.93635 0)
(611.642 2.19531 0)
(611.745 2.45455 0)
(611.861 2.7138 0)
(611.99 2.97322 0)
(612.131 3.23247 0)
(612.285 3.49166 0)
(612.453 3.75038 0)
(612.634 4.00873 0)
(612.828 4.26621 0)
(613.037 4.52288 0)
(613.261 4.77817 0)
(613.501 5.03212 0)
(613.757 5.28407 0)
(614.029 5.53405 0)
(614.321 5.78133 0)
(614.618 6.02587 0)
(620.089 6.2673 0)
(611.852 0.114493 0)
(611.863 0.343528 0)
(611.885 0.572503 0)
(611.918 0.801528 0)
(611.963 1.03047 0)
(612.018 1.25943 0)
(612.086 1.48824 0)
(612.165 1.71702 0)
(612.256 1.94554 0)
(612.359 2.1739 0)
(612.475 2.40183 0)
(612.602 2.62942 0)
(612.743 2.85632 0)
(612.895 3.08263 0)
(613.061 3.30793 0)
(613.24 3.53228 0)
(613.431 3.75523 0)
(613.637 3.9768 0)
(613.856 4.19649 0)
(614.091 4.41432 0)
(614.342 4.62971 0)
(614.607 4.84267 0)
(614.892 5.05259 0)
(615.181 5.25943 0)
(620.681 5.4629 0)
(612.392 0.100129 0)
(612.404 0.300428 0)
(612.426 0.500602 0)
(612.459 0.700734 0)
(612.503 0.900637 0)
(612.558 1.10039 0)
(612.625 1.29978 0)
(612.703 1.49889 0)
(612.793 1.69745 0)
(612.895 1.89555 0)
(613.009 2.09287 0)
(613.135 2.28949 0)
(613.273 2.48504 0)
(613.423 2.67957 0)
(613.586 2.87269 0)
(613.761 3.06442 0)
(613.948 3.25431 0)
(614.149 3.44239 0)
(614.363 3.62816 0)
(614.592 3.81161 0)
(614.836 3.99225 0)
(615.095 4.17005 0)
(615.371 4.34447 0)
(615.652 4.5155 0)
(621.189 4.68287 0)
(612.861 0.0859164 0)
(612.872 0.257782 0)
(612.894 0.429477 0)
(612.926 0.601066 0)
(612.97 0.772328 0)
(613.024 0.943323 0)
(613.09 1.11381 0)
(613.167 1.28383 0)
(613.256 1.45313 0)
(613.356 1.62172 0)
(613.467 1.78931 0)
(613.591 1.95592 0)
(613.726 2.1212 0)
(613.872 2.28514 0)
(614.031 2.44737 0)
(614.201 2.60785 0)
(614.384 2.76617 0)
(614.579 2.92229 0)
(614.787 3.07574 0)
(615.009 3.22649 0)
(615.245 3.37403 0)
(615.495 3.51833 0)
(615.762 3.65891 0)
(616.034 3.79571 0)
(621.617 3.92852 0)
(613.259 0.0719418 0)
(613.269 0.21585 0)
(613.291 0.359566 0)
(613.322 0.503134 0)
(613.365 0.646323 0)
(613.419 0.78917 0)
(613.483 0.931425 0)
(613.558 1.07311 0)
(613.645 1.21396 0)
(613.742 1.35396 0)
(613.851 1.49283 0)
(613.971 1.63053 0)
(614.103 1.76673 0)
(614.245 1.90138 0)
(614.399 2.0341 0)
(614.564 2.16481 0)
(614.741 2.29309 0)
(614.929 2.41884 0)
(615.13 2.54161 0)
(615.344 2.66127 0)
(615.571 2.77736 0)
(615.812 2.88977 0)
(616.07 2.99804 0)
(616.331 3.10208 0)
(621.968 3.20166 0)
(613.586 0.0582547 0)
(613.597 0.174784 0)
(613.618 0.291118 0)
(613.649 0.407285 0)
(613.691 0.523064 0)
(613.743 0.63847 0)
(613.806 0.753265 0)
(613.879 0.867447 0)
(613.963 0.98076 0)
(614.058 1.09318 0)
(614.164 1.20441 0)
(614.281 1.3144 0)
(614.408 1.42283 0)
(614.546 1.52959 0)
(614.695 1.63432 0)
(614.854 1.73687 0)
(615.024 1.83681 0)
(615.205 1.93398 0)
(615.398 2.02787 0)
(615.603 2.11831 0)
(615.821 2.20476 0)
(616.051 2.28703 0)
(616.297 2.36462 0)
(616.547 2.43735 0)
(622.247 2.50497 0)
(613.846 0.0448712 0)
(613.856 0.134644 0)
(613.877 0.224226 0)
(613.907 0.31366 0)
(613.948 0.402723 0)
(613.999 0.49144 0)
(614.06 0.579579 0)
(614.132 0.667145 0)
(614.214 0.753887 0)
(614.306 0.83978 0)
(614.409 0.924548 0)
(614.522 1.00813 0)
(614.645 1.09019 0)
(614.778 1.17063 0)
(614.922 1.24905 0)
(615.075 1.32529 0)
(615.238 1.39886 0)
(615.411 1.46953 0)
(615.594 1.53674 0)
(615.79 1.60018 0)
(615.997 1.65923 0)
(616.215 1.71355 0)
(616.449 1.76245 0)
(616.685 1.80567 0)
(622.454 1.84266 0)
(614.039 0.0317546 0)
(614.049 0.0954209 0)
(614.069 0.158772 0)
(614.099 0.222161 0)
(614.139 0.285094 0)
(614.188 0.347898 0)
(614.248 0.410083 0)
(614.318 0.471943 0)
(614.398 0.532981 0)
(614.488 0.593456 0)
(614.589 0.652854 0)
(614.698 0.71138 0)
(614.818 0.768482 0)
(614.946 0.824299 0)
(615.085 0.878206 0)
(615.231 0.93026 0)
(615.387 0.979735 0)
(615.553 1.02658 0)
(615.727 1.06992 0)
(615.912 1.10953 0)
(616.106 1.14444 0)
(616.311 1.17411 0)
(616.53 1.19754 0)
(616.749 1.21399 0)
(622.595 1.22207 0)
(614.166 0.0194506 0)
(614.176 0.0564636 0)
(614.196 0.0951275 0)
(614.225 0.131958 0)
(614.265 0.170343 0)
(614.314 0.206828 0)
(614.373 0.244715 0)
(614.441 0.280614 0)
(614.52 0.317733 0)
(614.608 0.352749 0)
(614.706 0.388749 0)
(614.813 0.422491 0)
(614.93 0.456887 0)
(615.055 0.488785 0)
(615.189 0.520869 0)
(615.33 0.550107 0)
(615.48 0.57889 0)
(615.638 0.604223 0)
(615.803 0.628219 0)
(615.978 0.647667 0)
(616.159 0.664454 0)
(616.349 0.674617 0)
(616.549 0.679763 0)
(616.747 0.67438 0)
(622.674 0.659169 0)
(614.23 0.00681444 0)
(614.24 0.0184234 0)
(614.259 0.0319089 0)
(614.288 0.0434608 0)
(614.327 0.0568458 0)
(614.376 0.0683019 0)
(614.434 0.0815048 0)
(614.502 0.092779 0)
(614.58 0.105704 0)
(614.667 0.116691 0)
(614.764 0.129205 0)
(614.87 0.139766 0)
(614.985 0.151678 0)
(615.108 0.161593 0)
(615.239 0.172625 0)
(615.378 0.181584 0)
(615.524 0.191351 0)
(615.677 0.198853 0)
(615.836 0.206757 0)
(616.003 0.21191 0)
(616.174 0.216809 0)
(616.35 0.217804 0)
(616.529 0.217093 0)
(616.697 0.209756 0)
(622.697 0.197472 0)
(618.935 18.6644 7.9729e-16)
(671.734 24.7153 -1.67476e-17)
(692.89 28.188 9.22843e-16)
(705.86 30.1702 9.52434e-16)
(714.87 31.3385 9.98544e-16)
(721.858 32.0621 1.04247e-15)
(727.737 32.5412 -1.10659e-15)
(732.96 32.878 0)
(737.765 33.1312 -2.24504e-17)
(742.289 33.3292 1.2017e-15)
(746.613 33.4922 -1.23817e-15)
(750.79 33.6302 -2.27886e-17)
(754.852 33.7485 1.30765e-15)
(758.829 33.8542 -2.29404e-17)
(762.749 33.9499 1.37274e-15)
(766.627 34.037 0)
(770.473 34.1191 -2.89007e-15)
(774.3 34.1971 -1.48535e-15)
(778.114 34.2737 -1.48975e-15)
(781.921 34.3506 0)
(785.715 34.4303 -3.10605e-15)
(789.484 34.5169 0)
(793.199 34.6179 0)
(796.787 34.752 -3.24254e-15)
(800.176 34.9783 -1.62973e-15)
(558.27 34.9659 -8.04568e-16)
(570.584 44.4787 -8.59912e-16)
(573.345 50.6817 0)
(577.393 54.6456 -9.61373e-16)
(581.708 57.219 -1.00801e-15)
(585.898 58.9433 -1.05244e-15)
(589.841 60.1507 0)
(593.531 61.0316 0)
(596.997 61.7039 -1.17547e-15)
(600.277 62.2333 -1.21365e-15)
(603.405 62.6656 1.25061e-15)
(606.407 63.0256 -4.27078e-17)
(609.303 63.333 -4.29161e-17)
(612.119 63.5999 -4.3097e-17)
(614.87 63.8373 -4.32579e-17)
(617.571 64.05 0)
(620.23 64.2464 2.85406e-15)
(622.857 64.4304 1.43432e-15)
(625.457 64.6091 2.96827e-15)
(628.034 64.7873 1.489e-15)
(630.582 64.9721 1.55857e-15)
(633.09 65.1736 0)
(635.538 65.4108 1.56186e-15)
(637.891 65.7227 3.21165e-15)
(640.124 66.202 3.25271e-15)
(568.276 31.7112 7.66581e-16)
(579.981 37.5649 0)
(581.371 42.4546 0)
(583.876 46.2268 9.01778e-16)
(586.936 49.0559 0)
(590.205 51.1709 9.87605e-16)
(593.499 52.7712 0)
(596.733 54.0039 0)
(599.878 54.9747 1.10768e-15)
(602.928 55.7545 1.14547e-15)
(605.889 56.3937 0)
(608.769 56.9272 -3.85754e-17)
(611.576 57.3785 -3.88812e-17)
(614.325 57.7681 -3.91452e-17)
(617.029 58.1093 -1.35806e-15)
(619.697 58.4135 0)
(622.336 58.689 -3.97692e-17)
(624.953 58.9449 -3.99426e-17)
(627.554 59.1902 -4.01089e-17)
(630.14 59.4326 -1.50563e-15)
(632.708 59.6819 1.49121e-15)
(635.251 59.9519 0)
(637.761 60.2647 -4.0837e-17)
(640.221 60.6564 -1.60207e-15)
(642.639 61.1872 -4.14621e-17)
(574.72 30.2672 -7.73709e-16)
(586.11 34.5777 0)
(586.999 38.539 0)
(588.702 41.9256 -9.10404e-16)
(590.95 44.7107 9.24094e-16)
(593.52 46.9616 -1.96265e-15)
(596.253 48.7744 0)
(599.053 50.2413 0)
(601.866 51.4395 -1.11881e-15)
(604.662 52.4292 -2.27866e-15)
(607.429 53.2571 1.15822e-15)
(610.158 53.9574 -1.23048e-15)
(612.85 54.5567 -2.49425e-15)
(615.511 55.0801 -1.29971e-15)
(618.148 55.5416 -1.29515e-15)
(620.765 55.9553 0)
(623.367 56.3308 -2.75335e-15)
(625.962 56.6815 -1.42562e-15)
(628.552 57.0158 -2.87007e-15)
(631.138 57.3445 0)
(633.72 57.678 -2.9774e-15)
(636.295 58.0316 0)
(638.862 58.4263 -1.55706e-15)
(641.42 58.8922 -1.53953e-15)
(643.984 59.467 -3.16044e-15)
(579.665 28.7583 0)
(590.861 32.1816 0)
(591.571 35.4633 0)
(592.863 38.4401 0)
(594.614 41.0425 -9.33107e-16)
(596.693 43.2678 9.74922e-16)
(598.99 45.1496 0)
(601.422 46.7354 0)
(603.933 48.074 0)
(606.486 49.209 1.13307e-15)
(609.057 50.1776 -1.17022e-15)
(611.63 51.0093 0)
(614.201 51.7339 1.24164e-15)
(616.768 52.3706 0)
(619.331 52.9373 1.30914e-15)
(621.891 53.4479 0)
(624.455 53.9146 1.37259e-15)
(627.024 54.3502 0)
(629.602 54.7652 1.43171e-15)
(632.189 55.1702 0)
(634.786 55.5763 1.48614e-15)
(637.395 55.9985 0)
(640.02 56.4555 0)
(642.664 56.9704 1.55796e-15)
(645.348 57.5703 1.57897e-15)
(583.684 27.2133 0)
(594.738 30.0685 -3.84533e-16)
(595.382 32.8604 0)
(596.455 35.4819 0)
(597.9 37.8676 -4.44275e-16)
(599.645 39.9913 0)
(601.616 41.8557 0)
(603.752 43.4796 -5.02571e-16)
(606.004 44.8894 0)
(608.337 46.1135 0)
(610.725 47.1784 -5.58071e-16)
(613.15 48.1102 0)
(615.6 48.9308 0)
(618.07 49.6594 0)
(620.557 50.3153 0)
(623.061 50.9066 0)
(625.582 51.4521 0)
(628.125 51.9609 0)
(630.69 52.4461 0)
(633.277 52.9156 0)
(635.889 53.3822 0)
(638.531 53.8589 0)
(641.208 54.3622 0)
(643.931 54.9106 0)
(646.718 55.522 0)
(587.064 25.6551 0)
(598.01 28.1138 7.66969e-16)
(598.632 30.5425 0)
(599.583 32.8705 0)
(600.836 35.0461 8.85515e-16)
(602.35 37.0392 0)
(604.082 38.839 0)
(605.987 40.4485 1.00174e-15)
(608.026 41.8793 0)
(610.171 43.1477 0)
(612.395 44.272 1.11295e-15)
(614.681 45.2705 0)
(617.017 46.1609 0)
(619.396 46.9622 0)
(621.808 47.6839 0)
(624.253 48.3433 0)
(626.734 48.9524 0)
(629.251 49.523 0)
(631.801 50.0651 0)
(634.388 50.5876 0)
(637.014 51.1021 0)
(639.686 51.621 0)
(642.412 52.158 0)
(645.199 52.7272 0)
(648.069 53.3425 0)
(589.968 24.0966 0)
(600.833 26.2598 -3.82415e-16)
(601.451 28.4084 0)
(602.329 30.4948 0)
(603.458 32.4796 -4.41209e-16)
(604.814 34.3356 0)
(606.37 36.0476 0)
(608.096 37.6107 -4.99137e-16)
(609.965 39.0277 0)
(611.951 40.3066 0)
(614.034 41.4583 -5.54843e-16)
(616.197 42.4956 0)
(618.43 43.4327 0)
(620.719 44.2815 0)
(623.061 45.0541 0)
(625.454 45.7652 -6.24988e-16)
(627.895 46.4238 0)
(630.385 47.0432 0)
(632.921 47.6289 0)
(635.506 48.1928 0)
(638.144 48.7436 0)
(640.843 49.2935 -7.10439e-16)
(643.61 49.8535 0)
(646.457 50.4349 0)
(649.4 51.0471 0)
(592.497 22.5448 0)
(603.304 24.4762 0)
(603.924 26.4009 0)
(604.759 28.2854 0)
(605.805 30.1003 0)
(607.05 31.8226 0)
(608.477 33.4371 0)
(610.066 34.9354 0)
(611.798 36.3153 0)
(613.655 37.5795 0)
(615.618 38.7337 0)
(617.675 39.7864 0)
(619.813 40.7472 0)
(622.025 41.6252 0)
(624.303 42.4325 0)
(626.643 43.1779 6.32128e-16)
(629.049 43.8736 0)
(631.513 44.5265 0)
(634.035 45.1448 0)
(636.618 45.7376 0)
(639.267 46.3144 0)
(641.99 46.8853 7.19152e-16)
(644.795 47.4593 0)
(647.689 48.0446 0)
(650.689 48.6491 0)
(594.717 21.0037 0)
(605.487 22.7458 3.64867e-16)
(606.112 24.4851 0)
(606.92 26.1977 0)
(607.909 27.8613 0)
(609.074 29.4571 0)
(610.405 30.9712 0)
(611.889 32.3945 0)
(613.514 33.7222 0)
(615.264 34.9537 0)
(617.128 36.0912 0)
(619.093 37.1399 0)
(621.152 38.1059 0)
(623.293 38.9968 0)
(625.513 39.8216 0)
(627.811 40.5877 -6.10882e-16)
(630.18 41.306 0)
(632.621 41.9792 0)
(635.13 42.6184 0)
(637.711 43.2291 0)
(640.37 43.8222 0)
(643.114 44.4049 -6.96954e-16)
(645.949 44.9846 0)
(648.887 45.5679 0)
(651.941 46.1599 0)
(596.675 19.4758 0)
(607.426 21.0578 -3.68532e-16)
(608.057 22.6393 0)
(608.846 24.2023 0)
(609.795 25.7299 0)
(610.902 27.207 0)
(612.161 28.6214 0)
(613.565 29.9643 0)
(615.104 31.2299 0)
(616.769 32.4157 0)
(618.55 33.5222 0)
(620.439 34.5514 0)
(622.427 35.5076 0)
(624.51 36.397 0)
(626.681 37.2241 0)
(628.936 37.9985 1.22317e-15)
(631.276 38.7236 0)
(633.695 39.4067 0)
(636.192 40.0541 0)
(638.772 40.6738 0)
(641.441 41.2738 0)
(644.203 41.86 1.39725e-15)
(647.068 42.4383 0)
(650.04 43.0132 0)
(653.136 43.5888 0)
(598.402 17.9625 0)
(609.151 19.4054 -3.5849e-16)
(609.787 20.8487 0)
(610.564 22.279 0)
(611.484 23.6829 -4.11227e-16)
(612.548 25.0484 0)
(613.752 26.3652 0)
(615.093 27.6251 -4.64363e-16)
(616.565 28.8224 0)
(618.161 29.9538 0)
(619.875 31.0181 -5.16898e-16)
(621.7 32.0161 0)
(623.632 32.9506 0)
(625.662 33.8243 0)
(627.789 34.6417 0)
(630.012 35.4098 -6.12308e-16)
(632.323 36.13 0)
(634.723 36.8117 0)
(637.211 37.4575 0)
(639.792 38.0774 0)
(642.469 38.6754 0)
(645.25 39.2575 -7.00339e-16)
(648.137 39.8275 0)
(651.144 40.389 0)
(654.28 40.9447 0)
(599.921 16.4646 0)
(610.684 17.7837 6.02534e-18)
(611.325 19.1035 0)
(612.092 20.4136 0)
(612.991 21.7036 7.35347e-18)
(614.022 22.9637 0)
(615.185 24.1853 0)
(616.478 25.3613 8.59275e-18)
(617.896 26.4863 0)
(619.437 27.5568 0)
(621.096 28.5708 5.22736e-16)
(622.87 29.5283 0)
(624.75 30.4296 0)
(626.739 31.2762 0)
(628.83 32.0731 0)
(631.02 32.8209 5.96376e-16)
(633.31 33.5278 0)
(635.695 34.1967 0)
(638.177 34.8337 0)
(640.76 35.4443 0)
(643.446 36.0328 0)
(646.243 36.6034 6.83497e-16)
(649.155 37.159 0)
(652.188 37.702 0)
(655.354 38.2339 0)
(601.249 14.9829 0)
(612.042 16.1894 3.59829e-16)
(612.686 17.3966 0)
(613.447 18.5961 0)
(614.329 19.7797 4.12588e-16)
(615.335 20.9394 0)
(616.465 22.0682 0)
(617.719 23.16 4.65933e-16)
(619.096 24.21 0)
(620.593 25.2148 0)
(622.208 26.172 0)
(623.937 27.0804 0)
(625.78 27.9394 0)
(627.73 28.7502 0)
(629.788 29.5134 0)
(631.956 30.2342 -6.03602e-16)
(634.228 30.9187 0)
(636.602 31.5663 0)
(639.081 32.186 0)
(641.667 32.7789 0)
(644.364 33.3504 0)
(647.176 33.9027 -6.92427e-16)
(650.108 34.438 0)
(653.17 34.9577 0)
(656.368 35.4632 0)
(602.399 13.5177 0)
(613.238 14.6203 0)
(613.883 15.723 0)
(614.638 16.8191 0)
(615.507 17.902 0)
(616.493 18.9653 0)
(617.597 20.0033 0)
(618.821 21.0108 0)
(620.165 21.9836 0)
(621.627 22.9185 0)
(623.206 23.813 0)
(624.9 24.6654 0)
(626.707 25.4748 0)
(628.627 26.2402 0)
(630.661 26.9652 0)
(632.809 27.6531 0)
(635.068 28.3035 0)
(637.435 28.9245 0)
(639.913 29.5167 0)
(642.505 30.0848 0)
(645.213 30.6318 0)
(648.041 31.1593 0)
(650.996 31.6688 0)
(654.08 32.1611 0)
(657.305 32.6361 0)
(603.38 12.0698 0)
(614.28 13.0751 1.76202e-16)
(614.925 14.0795 0)
(615.674 15.0776 0)
(616.532 16.0641 2.0159e-16)
(617.501 17.0338 0)
(618.585 17.9821 0)
(619.784 18.9047 2.27415e-16)
(621.101 19.7983 0)
(622.535 20.6597 0)
(624.085 21.4866 0)
(625.751 22.2774 0)
(627.531 23.0305 0)
(629.426 23.7474 0)
(631.441 24.4275 0)
(633.573 25.0729 0)
(635.821 25.6856 0)
(638.187 26.2696 0)
(640.666 26.8269 0)
(643.266 27.3632 0)
(645.987 27.879 0)
(648.833 28.376 0)
(651.806 28.8545 0)
(654.918 29.3148 0)
(658.172 29.7574 0)
(604.2 10.6401 0)
(615.175 11.5531 -1.78086e-16)
(615.818 12.4638 1.84477e-16)
(616.561 13.3678 0)
(617.408 14.2607 -2.03816e-16)
(618.363 15.1386 0)
(619.429 15.9978 0)
(620.609 16.8349 -2.30013e-16)
(621.905 17.6469 0)
(623.316 18.4315 0)
(624.843 19.1867 0)
(626.487 19.9108 0)
(628.246 20.6034 0)
(630.123 21.264 0)
(632.121 21.8936 0)
(634.242 22.4906 0)
(636.484 23.0581 0)
(638.847 23.5979 0)
(641.334 24.1161 0)
(643.945 24.6143 0)
(646.68 25.0936 0)
(649.544 25.5546 0)
(652.541 25.9974 0)
(655.676 26.4224 0)
(658.956 26.8285 0)
(604.863 9.22998 0)
(615.929 10.0547 0)
(616.568 10.875 -1.86493e-16)
(617.302 11.6873 0)
(618.139 12.4885 0)
(619.081 13.2753 0)
(620.132 14.0451 0)
(621.295 14.7952 0)
(622.573 15.5236 0)
(623.967 16.2282 0)
(625.476 16.9075 0)
(627.103 17.5604 0)
(628.847 18.1864 0)
(630.711 18.7855 0)
(632.698 19.3567 0)
(634.81 19.8999 2.9534e-16)
(637.048 20.4161 0)
(639.416 20.9094 0)
(641.911 21.3833 0)
(644.534 21.8383 0)
(647.287 22.276 0)
(650.171 22.6961 3.40574e-16)
(653.189 23.0989 0)
(656.352 23.4841 0)
(659.664 23.8525 0)
(605.375 7.84182 0)
(616.545 8.58107 0)
(617.176 9.31306 0)
(617.901 10.0351 0)
(618.725 10.7448 0)
(619.655 11.4402 0)
(620.692 12.1195 0)
(621.842 12.781 0)
(623.105 13.4232 0)
(624.485 14.0447 0)
(625.981 14.6445 0)
(627.595 15.2217 0)
(629.329 15.776 0)
(631.185 16.3073 0)
(633.164 16.8152 0)
(635.272 17.2992 -2.99149e-16)
(637.513 17.7611 0)
(639.885 18.2034 0)
(642.392 18.6276 0)
(645.031 19.035 0)
(647.802 19.4259 0)
(650.707 19.8006 -3.45335e-16)
(653.752 20.1593 0)
(656.942 20.5025 0)
(660.284 20.8291 0)
(605.737 6.47912 8.46664e-17)
(617.025 7.13486 8.87727e-17)
(617.644 7.77935 9.29309e-17)
(618.356 8.41085 9.71364e-17)
(619.168 9.02829 1.01384e-16)
(620.084 9.63079 1.05668e-16)
(621.109 10.2176 1.09982e-16)
(622.246 10.788 1.14319e-16)
(623.498 11.3412 1.18671e-16)
(624.866 11.8765 1.2303e-16)
(626.353 12.3931 1.27388e-16)
(627.959 12.8908 1.31734e-16)
(629.687 13.3692 0)
(631.538 13.8285 1.40353e-16)
(633.516 14.2684 1.44604e-16)
(635.625 14.6894 0)
(637.87 15.0917 1.52927e-16)
(640.254 15.4779 1.5697e-16)
(642.774 15.8478 1.60914e-16)
(645.429 16.2026 1.64743e-16)
(648.221 16.5425 1.6844e-16)
(651.15 16.8678 -1.71986e-16)
(654.221 17.1789 1.75361e-16)
(657.444 17.4761 1.78545e-16)
(660.821 17.76 1.81513e-16)
(605.953 5.1474 -8.56016e-17)
(617.372 5.72052 -1.79044e-16)
(617.973 6.27653 -9.39805e-17)
(618.668 6.81561 -9.8246e-17)
(619.464 7.33808 -2.0449e-16)
(620.367 7.84483 -1.06903e-16)
(621.379 8.33612 -1.11283e-16)
(622.506 8.81235 -1.15687e-16)
(623.748 9.27334 -2.39432e-16)
(625.109 9.71905 -1.24539e-16)
(626.589 10.1492 -1.28969e-16)
(628.191 10.5638 -2.65886e-16)
(629.917 10.9627 0)
(631.768 11.346 -1.42164e-16)
(633.748 11.7142 -2.91995e-16)
(635.863 12.0668 0)
(638.118 12.4059 -1.54978e-16)
(640.513 12.7304 -3.17131e-16)
(643.049 13.0415 -1.63133e-16)
(645.725 13.3394 -1.67046e-16)
(648.539 13.6241 -1.70828e-16)
(651.495 13.8963 1.17707e-18)
(654.598 14.1569 -1.7792e-16)
(657.854 14.4064 -1.81189e-16)
(661.266 14.6435 -3.67242e-16)
(606.023 3.85568 0)
(617.582 4.34508 9.0288e-17)
(618.158 4.80902 0)
(618.832 5.25103 0)
(619.61 5.67373 2.05771e-16)
(620.498 6.08023 -1.06981e-16)
(621.499 6.47178 0)
(622.617 6.85006 1.15753e-16)
(623.852 7.21522 1.20787e-16)
(625.208 7.568 -1.24611e-16)
(626.686 7.90821 1.2905e-16)
(628.287 8.23618 1.34182e-16)
(630.014 8.55197 -1.37904e-16)
(631.87 8.8558 0)
(633.858 9.14809 1.47428e-16)
(635.982 9.42926 0)
(638.249 9.69929 -1.55199e-16)
(640.661 9.95811 1.60205e-16)
(643.216 10.2062 0)
(645.913 10.4428 0)
(648.753 10.6689 -1.7121e-16)
(651.739 10.8853 1.7581e-16)
(654.875 11.0923 0)
(658.17 11.2906 -1.81717e-16)
(661.623 11.4796 1.85793e-16)
(605.947 2.62037 0)
(617.652 3.01893 0)
(618.193 3.38291 0)
(618.84 3.71804 0)
(619.599 4.03424 -1.03859e-16)
(620.473 4.33334 1.08261e-16)
(621.464 4.62064 0)
(622.575 4.89592 -1.17173e-16)
(623.806 5.16179 0)
(625.161 5.41772 1.26178e-16)
(626.639 5.66465 -1.30694e-16)
(628.244 5.90269 0)
(629.976 6.13176 1.39706e-16)
(631.84 6.35294 0)
(633.838 6.56565 0)
(635.977 6.77106 0)
(638.26 6.96847 1.57339e-16)
(640.691 7.15798 0)
(643.268 7.33882 0)
(645.99 7.51121 0)
(648.86 7.67592 1.73708e-16)
(651.879 7.83322 0)
(655.053 7.98449 0)
(658.389 8.1293 1.84489e-16)
(661.886 8.26724 0)
(605.721 1.46767 2.18503e-17)
(617.567 1.75842 0)
(618.063 2.00094 2.39625e-17)
(618.68 2.2168 0)
(619.42 2.414 2.61381e-17)
(620.282 2.59955 0)
(621.266 2.77545 2.83631e-17)
(622.374 2.94403 2.94897e-17)
(623.605 3.10605 0)
(624.962 3.2619 3.17608e-17)
(626.445 3.41233 0)
(628.056 3.55699 3.40413e-17)
(629.799 3.69686 0)
(631.674 3.83175 3.63114e-17)
(633.688 3.96216 3.74355e-17)
(635.844 4.0886 0)
(638.147 4.21033 3.96458e-17)
(640.6 4.32757 0)
(643.202 4.43854 4.17805e-17)
(645.954 4.54421 0)
(648.856 4.64463 4.38067e-17)
(651.912 4.74076 0)
(655.127 4.83316 0)
(658.508 4.92141 4.6558e-17)
(662.054 5.0074 0)
(605.322 0.459052 -2.21028e-17)
(617.295 0.575198 0)
(617.741 0.662334 -2.42459e-17)
(618.334 0.739288 0)
(619.061 0.806176 -2.64547e-17)
(619.917 0.870381 0)
(620.9 0.929445 -2.87153e-17)
(622.009 0.987094 -2.98604e-17)
(623.244 1.0416 0)
(624.607 1.09446 -3.21704e-17)
(626.099 1.14533 0)
(627.721 1.19411 -3.44919e-17)
(629.477 1.24179 0)
(631.369 1.28728 -3.68051e-17)
(633.402 1.33217 -3.79515e-17)
(635.579 1.37487 0)
(637.907 1.41744 -4.02078e-17)
(640.386 1.45749 0)
(643.017 1.49565 -4.23901e-17)
(645.801 1.53168 0)
(648.739 1.56562 -4.4465e-17)
(651.836 1.59848 0)
(655.096 1.62931 0)
(658.526 1.66011 -4.72907e-17)
(662.125 1.68944 0)
)
;

boundaryField
{
    inlet
    {
        type            fixedValue;
        value           uniform (664 0 0);
    }
    sym
    {
        type            slip;
    }
    wedge
    {
        type            slip;
    }
    top
    {
        type            slip;
    }
    back
    {
        type            empty;
    }
    front
    {
        type            empty;
    }
    outlet
    {
        type            inletOutlet;
        inletValue      uniform (664 0 0);
        value           nonuniform List<vector> 
25
(
(800.176 34.9783 -1.62973e-15)
(640.124 66.202 3.25271e-15)
(642.639 61.1872 -4.14621e-17)
(643.984 59.467 -3.16044e-15)
(645.348 57.5703 1.57897e-15)
(646.718 55.522 0)
(648.069 53.3425 0)
(649.4 51.0471 0)
(650.689 48.6491 0)
(651.941 46.1599 0)
(653.136 43.5888 0)
(654.28 40.9447 0)
(655.354 38.2339 0)
(656.368 35.4632 0)
(657.305 32.6361 0)
(658.172 29.7574 0)
(658.956 26.8285 0)
(659.664 23.8525 0)
(660.284 20.8291 0)
(660.821 17.76 1.81513e-16)
(661.266 14.6435 -3.67242e-16)
(661.623 11.4796 1.85793e-16)
(661.886 8.26724 0)
(662.054 5.0074 0)
(662.125 1.68944 0)
)
;
    }
}


// ************************************************************************* //
