/*--------------------------------*- C++ -*----------------------------------*\
| =========                 |                                                 |
| \\      /  F ield         | OpenFOAM: The Open Source CFD Toolbox           |
|  \\    /   O peration     | Version:  2412                                  |
|   \\  /    A nd           | Website:  www.openfoam.com                      |
|    \\/     M anipulation  |                                                 |
\*---------------------------------------------------------------------------*/
FoamFile
{
    version     2.0;
    format      ascii;
    arch        "LSB;label=32;scalar=64";
    class       volScalarField;
    location    "9";
    object      Ma;
}
// * * * * * * * * * * * * * * * * * * * * * * * * * * * * * * * * * * * * * //

dimensions      [0 0 0 0 0 0 0];

internalField   nonuniform List<scalar> 
5250
(
2.99998
2.99995
2.99982
2.99964
2.9989
2.99785
2.99372
2.98722
2.965
2.9181
2.80015
2.48384
1.88467
0.874775
0.375975
0.344105
0.353491
0.343263
0.307639
0.254465
0.206199
0.165286
0.123607
0.0773959
0.0434378
2.99998
2.99995
2.99982
2.99964
2.99891
2.99788
2.99384
2.98739
2.96557
2.91887
2.80251
2.48799
1.89549
0.883703
0.38289
0.34522
0.354426
0.344381
0.3093
0.257125
0.210077
0.170597
0.131287
0.0906655
0.0669974
2.99998
2.99995
2.99983
2.99965
2.99895
2.99794
2.99404
2.98772
2.96659
2.92065
2.80697
2.49738
1.91744
0.903475
0.398868
0.34847
0.357664
0.348689
0.315389
0.265758
0.221674
0.185878
0.152013
0.120595
0.105839
2.99999
2.99996
2.99984
2.99967
2.999
2.99803
2.99434
2.98822
2.96812
2.92343
2.81382
2.51206
1.95164
0.935702
0.423977
0.353014
0.362933
0.356332
0.325626
0.279806
0.239819
0.208849
0.181313
0.157719
0.148097
2.99999
2.99996
2.99985
2.99969
2.99906
2.99815
2.99468
2.98887
2.96998
2.92753
2.82326
2.53298
1.99888
0.983472
0.459274
0.358851
0.370404
0.367416
0.339736
0.29844
0.263185
0.237258
0.215704
0.1985
0.192428
2.99999
2.99996
2.99986
2.99971
2.99912
2.99828
2.99506
2.98963
2.97209
2.93248
2.8354
2.56277
2.06239
1.05502
0.508254
0.367999
0.381871
0.383247
0.358499
0.321914
0.291567
0.270975
0.255229
0.243834
0.241352
2.99999
2.99997
2.99987
2.99974
2.99919
2.99842
2.99545
2.99048
2.97432
2.93811
2.84843
2.59815
2.13079
1.15313
0.569086
0.380148
0.397447
0.404156
0.382247
0.350357
0.324722
0.309467
0.300023
0.295381
0.298545
2.99999
2.99997
2.99988
2.99976
2.99927
2.99856
2.99585
2.99143
2.97669
2.94488
2.86362
2.64083
2.21476
1.28393
0.643701
0.398143
0.419183
0.431076
0.411452
0.384452
0.363572
0.353963
0.351363
0.355568
0.369182
2.99999
2.99997
2.99989
2.99979
2.99934
2.99872
2.99624
2.99244
2.97909
2.95245
2.88017
2.68854
2.31074
1.44611
0.732834
0.431251
0.453409
0.466431
0.448133
0.424751
0.408183
0.403989
0.410114
0.428564
0.465318
3
2.99998
2.99991
2.99982
2.99945
2.99891
2.99685
2.99358
2.98248
2.95993
2.89899
2.73938
2.41756
1.66612
0.837702
0.48444
0.504262
0.513065
0.496195
0.474755
0.461064
0.461071
0.479566
0.524366
0.624868
3
2.99998
2.99994
2.9998
2.9996
2.99881
2.99763
2.99326
2.98589
2.96205
2.91046
2.78158
2.45651
1.79625
0.897288
0.522101
0.536548
0.547151
0.541692
0.525621
0.517244
0.524859
0.55984
0.639992
0.804457
3
2.99998
2.99993
2.99986
2.99957
2.99915
2.99751
2.99505
2.98604
2.97035
2.92119
2.80758
2.55099
1.92802
1.0524
0.595594
0.563679
0.575812
0.580038
0.573063
0.572264
0.589227
0.637163
0.730847
0.891612
3
2.99999
2.99994
2.99988
2.99962
2.99926
2.9978
2.99572
2.98753
2.97478
2.93095
2.83822
2.61497
2.05958
1.21504
0.680974
0.580784
0.596132
0.610286
0.615228
0.623529
0.648272
0.700896
0.788658
0.918494
3
2.99999
2.99995
2.9999
2.99969
2.99939
2.99818
2.99645
2.98987
2.97894
2.94351
2.8638
2.6779
2.18824
1.40009
0.775335
0.599307
0.616015
0.636611
0.652941
0.669567
0.699307
0.750245
0.826299
0.932535
3
2.99999
2.99996
2.99992
2.99974
2.99948
2.99845
2.99701
2.99122
2.98254
2.95133
2.89267
2.73222
2.34924
1.61971
0.891055
0.637227
0.647004
0.666372
0.688172
0.709899
0.741587
0.791235
0.856595
0.945101
3
3
2.99997
2.99993
2.99979
2.99958
2.99875
2.99757
2.9929
2.98594
2.9605
2.91543
2.78184
2.49139
1.84442
1.0156
0.69322
0.685733
0.702821
0.724474
0.746744
0.777151
0.823802
0.883741
0.957693
3
3
2.99998
2.99995
2.99983
2.99967
2.99902
2.9981
2.99446
2.98897
2.96967
2.93193
2.83091
2.57122
2.06594
1.15378
0.764776
0.716505
0.733951
0.754795
0.779537
0.809441
0.850433
0.905803
0.970112
3
3
2.99998
2.99996
2.99987
2.99975
2.99924
2.99852
2.99571
2.99138
2.97639
2.94647
2.86614
2.65507
2.24658
1.37588
0.879824
0.7479
0.75871
0.778285
0.805366
0.837189
0.875436
0.92407
0.982351
3.00001
3
2.99999
2.99997
2.9999
2.99981
2.99942
2.99886
2.99669
2.99339
2.98181
2.95972
2.89748
2.7393
2.41899
1.67533
1.03631
0.80332
0.793073
0.806565
0.830994
0.861536
0.896772
0.939569
0.990587
3.00001
3
3
2.99997
2.99994
2.99982
2.99963
2.99892
2.99786
2.99386
2.98754
2.9658
2.92507
2.80884
2.55357
1.96051
1.19059
0.871866
0.832355
0.841063
0.861474
0.888475
0.918771
0.954186
0.997347
3.00001
3
3
2.99998
2.99996
2.99986
2.99973
2.99919
2.99842
2.99543
2.99087
2.97493
2.94439
2.86062
2.65081
2.21851
1.41132
0.973593
0.867546
0.869844
0.886116
0.911827
0.93939
0.970284
1.00479
3.00001
3.00001
3
2.99999
2.99996
2.99992
2.99976
2.99951
2.99858
2.99717
2.99194
2.98345
2.95537
2.89786
2.74919
2.39941
1.69431
1.11827
0.921857
0.902192
0.910891
0.930519
0.955622
0.983918
1.01321
3.00001
3.00001
3
2.99999
2.99998
2.99993
2.99986
2.99959
2.99918
2.99766
2.99527
2.98705
2.97196
2.92749
2.82236
2.5927
2.0396
1.29196
0.989804
0.941515
0.942912
0.955203
0.973551
0.995326
1.01752
3.00001
3.00001
3
3
2.99999
2.99996
2.99988
2.99976
2.99932
2.99863
2.99623
2.99187
2.97887
2.94899
2.87659
2.68176
2.3036
1.53191
1.09667
0.975281
0.969238
0.976187
0.991223
1.006
1.01769
3.00001
3.00001
3.00001
3
2.99999
2.99997
2.99993
2.99979
2.99958
2.99878
2.99758
2.99313
2.98599
2.96208
2.9157
2.79143
2.5036
1.89933
1.2495
1.0225
0.995367
0.995396
1.00505
1.01346
1.01424
3.00001
3.00001
3.00001
3
3
2.99998
2.99995
2.99985
2.9997
2.99913
2.99829
2.99507
2.99022
2.97278
2.9419
2.85232
2.64894
2.19053
1.45836
1.09572
1.01634
1.00864
1.01016
1.01082
1.00192
3.00001
3.00001
3.00001
3
3
2.99999
2.99996
2.99992
2.99975
2.99951
2.99857
2.99717
2.99197
2.9836
2.95593
2.90006
2.75599
2.41809
1.74664
1.22786
1.04998
1.02017
1.01002
0.99646
0.978611
3.00001
3.00001
3.00001
3.00001
3
2.99999
2.99998
2.99994
2.99987
2.9996
2.99921
2.99775
2.99549
2.98764
2.97354
2.93162
2.83429
2.62122
2.10434
1.40088
1.10294
1.03047
0.99672
0.968571
0.940854
3.00001
3.00001
3.00001
3.00001
3
3
2.99999
2.99997
2.99989
2.99978
2.99935
2.99871
2.99638
2.99257
2.98019
2.95476
2.88823
2.71827
2.38142
1.65406
1.19971
1.02763
0.962501
0.922456
0.895805
3.00001
3.00001
3.00001
3.00001
3
3
2.99999
2.99998
2.99992
2.99984
2.99953
2.99909
2.99735
2.99483
2.98526
2.97004
2.92017
2.81906
2.56341
2.03335
1.33698
1.02467
0.91067
0.86917
0.855862
3.00001
3.00001
3.00001
3.00001
3.00001
3
3
2.99998
2.99996
2.99987
2.99974
2.99923
2.99849
2.99569
2.99125
2.97638
2.94664
2.86727
2.66623
2.26605
1.49134
1.0188
0.826321
0.800414
0.807125
3.00001
3.00001
3.00001
3.00001
3.00001
3
3
2.99999
2.99997
2.9999
2.9998
2.99941
2.99885
2.99667
2.9934
2.98153
2.96076
2.89799
2.75293
2.43254
1.76408
1.03135
0.736405
0.726794
0.757729
3.00001
3.00001
3.00001
3.00001
3.00001
3.00001
3
3
2.99997
2.99994
2.99981
2.99962
2.9989
2.99779
2.99373
2.9868
2.9643
2.91533
2.79307
2.48213
1.8579
0.99273
0.626034
0.625561
0.689754
3.00001
3.00001
3.00001
3.00001
3.00001
3.00001
3
3
2.99998
2.99994
2.99987
2.99959
2.99919
2.99761
2.99523
2.98638
2.97111
2.92201
2.81032
2.55017
1.92712
1.05145
0.54862
0.525634
0.610146
3.00001
3.00001
3.00001
3.00001
3.00001
3.00001
3
3
2.99999
2.99994
2.99988
2.99963
2.99928
2.99781
2.99572
2.98741
2.97397
2.9278
2.82646
2.583
1.97947
1.09953
0.506495
0.434488
0.529668
3.00001
3.00001
3.00001
3.00001
3.00001
3.00001
3
3
2.99999
2.99995
2.9999
2.99969
2.99937
2.99816
2.99617
2.98934
2.9755
2.93574
2.83525
2.61349
2.01139
1.14153
0.495992
0.368421
0.465633
3.00001
3.00001
3.00001
3.00001
3.00001
3.00001
3
3
2.99999
2.99997
2.99989
2.99977
2.99932
2.99858
2.9961
2.9909
2.97643
2.9396
2.85345
2.59739
2.11758
1.1482
0.516321
0.334905
0.428786
3.00001
3.00001
3.00001
3.00001
3.00001
3.00001
3
3
2.99999
2.99997
2.9999
2.99979
2.99936
2.99869
2.99635
2.99169
2.97813
2.94431
2.86326
2.62495
2.16917
1.22129
0.546355
0.32127
0.415471
3.00001
3.00001
3.00001
3.00001
3.00001
3.00001
3
3
2.99999
2.99996
2.99992
2.99976
2.9995
2.99861
2.99687
2.99186
2.97959
2.94927
2.86425
2.68608
2.15723
1.34518
0.571378
0.302429
0.404019
3.00001
3.00001
3.00001
3.00001
3.00001
3.00001
3
3
2.99999
2.99997
2.99991
2.99981
2.99943
2.99884
2.99677
2.99275
2.98089
2.95188
2.88186
2.67866
2.28523
1.40595
0.620494
0.307722
0.413578
3.00001
3.00001
3.00001
3.00001
3.00001
3.00001
3
3
2.99999
2.99998
2.99991
2.99982
2.99946
2.99892
2.99692
2.99337
2.98227
2.95638
2.89163
2.7098
2.34792
1.5193
0.67187
0.315157
0.423708
3.00001
3.00001
3.00001
3.00001
3.00001
3.00001
3.00001
3
2.99999
2.99997
2.99993
2.99978
2.99956
2.99871
2.99735
2.99262
2.98372
2.95682
2.8925
2.74131
2.34442
1.60043
0.673523
0.288349
0.409525
3.00001
3.00001
3.00001
3.00001
3.00001
3.00001
3
3
2.99999
2.99998
2.99992
2.99984
2.99952
2.99901
2.99728
2.99392
2.98415
2.96063
2.90355
2.74298
2.42318
1.67762
0.732079
0.31225
0.417876
3.00001
3.00001
3.00001
3.00001
3.00001
3.00001
3.00001
3
2.99999
2.99997
2.99993
2.99978
2.99957
2.99872
2.99747
2.99264
2.98492
2.95854
2.90389
2.76248
2.40601
1.70383
0.733253
0.307616
0.40348
3.00001
3.00001
3.00001
3.00001
3.00001
3.00001
3.00001
3
2.99999
2.99997
2.99993
2.99979
2.99959
2.99876
2.99756
2.99285
2.98552
2.95983
2.90799
2.77072
2.42727
1.73438
0.756198
0.315221
0.392381
3.00001
3.00001
3.00001
3.00001
3.00001
3.00001
3
3
2.99999
2.99998
2.99992
2.99984
2.9995
2.99902
2.99713
2.99426
2.98392
2.96504
2.90849
2.77096
2.47013
1.77415
0.839181
0.362455
0.410428
3.00001
3.00001
3.00001
3.00001
3.00001
3.00001
3
3
2.99999
2.99998
2.99992
2.99984
2.99951
2.99904
2.99713
2.99439
2.98376
2.96629
2.90916
2.78122
2.48159
1.80016
0.865716
0.374268
0.409211
3.00001
3.00001
3.00001
3.00001
3.00001
3.00001
3.00001
3
2.99999
2.99998
2.99992
2.99984
2.99953
2.99907
2.99726
2.99453
2.98456
2.96681
2.91207
2.78307
2.49079
1.81264
0.883497
0.384113
0.407247
3.00001
3.00001
3.00001
3.00001
3.00001
3.00001
3.00001
3
3
2.99998
2.99994
2.99982
2.99964
2.99896
2.99785
2.99415
2.98658
2.96559
2.91293
2.79377
2.45582
1.82265
0.830253
0.363136
0.382936
3.00001
3.00001
3.00001
3.00001
3.00001
3.00001
3.00001
3
2.99999
2.99998
2.99993
2.99985
2.99954
2.99909
2.99731
2.99462
2.9848
2.96728
2.91323
2.78575
2.49664
1.82493
0.899261
0.392457
0.403796
0.953719
0.742703
0.252036
0.232802
0.301146
0.388974
0.422678
0.448756
0.48194
0.515171
0.542693
0.563434
0.575095
0.577953
0.576031
0.567814
0.552412
0.530858
0.505571
0.478727
0.450937
0.423067
0.39488
0.366599
0.338039
0.309303
0.280251
0.250939
0.220803
0.190963
0.161374
0.132277
0.10375
0.0760055
0.0489163
0.0244453
0.0169645
0.0397843
0.0644576
0.0895994
0.114015
0.137847
0.16031
0.181991
0.203725
0.22631
0.248283
0.269785
0.290468
0.310831
0.330695
0.350334
0.369465
0.388444
0.406925
0.425286
0.443169
0.460986
0.478385
0.495653
0.512631
0.529433
0.545993
0.562415
0.578552
0.594616
0.610366
0.626091
0.641465
0.656879
0.671872
0.686956
0.701589
0.716286
0.730589
0.744855
0.758835
0.772679
0.786302
0.799758
0.812985
0.826066
0.838877
0.851567
0.863952
0.876244
0.888181
0.900029
0.911464
0.922833
0.933709
0.944473
0.954628
0.964552
0.973709
0.9824
0.989943
0.996575
1.00112
1.00528
0.958696
0.833395
0.57039
0.411439
0.280205
0.144282
0.0512054
0.138532
0.212267
0.264991
0.299227
0.319738
0.329963
0.329641
0.322067
0.312468
0.29682
0.274001
0.249634
0.224157
0.198164
0.172219
0.146175
0.120316
0.0946505
0.0700335
0.0478764
0.034531
0.0393759
0.0585224
0.0812867
0.10555
0.129745
0.153894
0.177669
0.20086
0.222933
0.244484
0.265943
0.287303
0.308454
0.329044
0.349099
0.368029
0.38721
0.406702
0.426363
0.445029
0.463436
0.481198
0.498885
0.516072
0.533171
0.549788
0.56638
0.582462
0.598609
0.614237
0.629936
0.64517
0.660432
0.675309
0.690169
0.70474
0.719232
0.73355
0.747701
0.761779
0.775612
0.78943
0.802973
0.816481
0.829759
0.842913
0.855918
0.868712
0.881407
0.893866
0.906219
0.918363
0.93036
0.942194
0.953818
0.96533
0.976588
0.987785
0.998646
1.00947
1.01993
1.03036
1.04037
1.05029
1.05971
1.06889
1.0774
1.08542
1.09241
1.09851
1.10262
1.10629
0.978506
0.949126
0.839524
0.739288
0.627423
0.512869
0.397366
0.295924
0.211654
0.139223
0.0778991
0.0231842
0.0242149
0.049248
0.0345992
0.0292639
0.0302431
0.0435344
0.0567298
0.0745981
0.0930521
0.113107
0.134078
0.155896
0.177903
0.20024
0.222627
0.244867
0.266505
0.28785
0.309259
0.330452
0.351364
0.371871
0.39202
0.411555
0.430532
0.449078
0.467229
0.485411
0.503077
0.520761
0.537599
0.553878
0.569713
0.586289
0.602958
0.619223
0.634849
0.650213
0.665343
0.680236
0.694997
0.709517
0.723898
0.738084
0.7521
0.765965
0.779651
0.793209
0.806585
0.819861
0.832931
0.845952
0.858733
0.871513
0.88405
0.896576
0.908921
0.921159
0.933349
0.945269
0.957304
0.968899
0.98074
0.992034
1.00364
1.01465
1.02599
1.03672
1.04776
1.05822
1.06897
1.0792
1.08971
1.0997
1.10994
1.11967
1.12958
1.13891
1.14837
1.15717
1.16605
1.17412
1.18216
1.18914
1.19576
1.20093
1.20482
1.20764
1.00147
1.02258
0.988554
0.936044
0.865143
0.781597
0.694444
0.604022
0.527036
0.456263
0.397349
0.350614
0.31631
0.297757
0.29538
0.304831
0.315462
0.326131
0.338424
0.352487
0.367279
0.382736
0.398854
0.415796
0.433043
0.450787
0.468364
0.485986
0.502997
0.519902
0.536412
0.552942
0.568937
0.584849
0.600152
0.615256
0.629713
0.643917
0.6577
0.671446
0.684884
0.698344
0.71128
0.723637
0.735698
0.748156
0.761256
0.77414
0.786734
0.798931
0.811115
0.823099
0.835167
0.847027
0.858972
0.870685
0.88249
0.894059
0.905725
0.91717
0.928702
0.940037
0.95145
0.962682
0.973997
0.985119
0.996354
1.00735
1.0185
1.02934
1.04039
1.05104
1.06194
1.07241
1.08312
1.09341
1.10391
1.11404
1.12435
1.13438
1.14457
1.15449
1.16451
1.17425
1.18401
1.19348
1.20295
1.21214
1.22131
1.23015
1.23893
1.2473
1.25554
1.26325
1.27068
1.2774
1.28346
1.28853
1.29198
1.29485
1.01868
1.05879
1.06725
1.04654
1.01079
0.958586
0.897582
0.834229
0.770344
0.713396
0.659687
0.617605
0.589505
0.576303
0.577876
0.587994
0.600005
0.608728
0.61623
0.624367
0.633392
0.642877
0.653183
0.663981
0.67536
0.686951
0.698441
0.709736
0.720431
0.730936
0.740977
0.750878
0.760381
0.769875
0.779001
0.788118
0.796892
0.805715
0.814395
0.823261
0.832157
0.841305
0.850309
0.858955
0.867453
0.876349
0.886019
0.896014
0.905839
0.915519
0.925145
0.93483
0.944526
0.954332
0.964091
0.97399
0.983773
0.993751
1.00355
1.0136
1.02341
1.03353
1.04336
1.05353
1.0634
1.0736
1.08353
1.09371
1.1037
1.11381
1.1238
1.13382
1.14372
1.1536
1.16339
1.17319
1.18295
1.19275
1.20244
1.21211
1.22163
1.23111
1.24043
1.24971
1.25882
1.26784
1.27668
1.28542
1.29395
1.30235
1.31049
1.31844
1.32603
1.33335
1.34013
1.34651
1.35197
1.35677
1.35972
1.36247
1.02882
1.0792
1.10366
1.10977
1.09471
1.06697
1.02652
0.982108
0.935369
0.889012
0.849955
0.818497
0.801824
0.796607
0.802449
0.812926
0.82688
0.839729
0.847584
0.851667
0.854757
0.857804
0.861088
0.864847
0.869137
0.873599
0.878083
0.8824
0.886467
0.890423
0.894224
0.898174
0.902093
0.90629
0.910549
0.915077
0.919707
0.924584
0.929713
0.935119
0.940914
0.947057
0.953418
0.959546
0.965699
0.972173
0.979524
0.987454
0.995478
1.00351
1.01154
1.01973
1.02794
1.0364
1.04482
1.05354
1.06214
1.07108
1.07981
1.08893
1.09779
1.10704
1.11602
1.12536
1.13447
1.14386
1.15312
1.16254
1.1719
1.18131
1.19072
1.2001
1.20947
1.21884
1.22826
1.23763
1.24694
1.25618
1.26535
1.27449
1.2835
1.29252
1.30136
1.31022
1.31886
1.32753
1.33593
1.34434
1.35244
1.36047
1.36818
1.37571
1.38286
1.3897
1.39602
1.40185
1.40683
1.41105
1.41352
1.41588
1.03478
1.08839
1.12251
1.13956
1.14235
1.1281
1.10411
1.07064
1.03581
1.00048
0.970825
0.951419
0.942136
0.946216
0.95766
0.972283
0.985956
0.997792
1.00722
1.01196
1.01041
1.00764
1.00503
1.00327
1.00252
1.00225
1.00248
1.0027
1.00302
1.00324
1.00365
1.00415
1.005
1.00613
1.00775
1.00972
1.0121
1.0148
1.01802
1.02144
1.02552
1.02982
1.0347
1.03927
1.04409
1.04902
1.05495
1.06137
1.06828
1.07517
1.08229
1.08943
1.09675
1.10422
1.1118
1.11963
1.12749
1.13565
1.14375
1.15219
1.16049
1.16914
1.17764
1.18643
1.19511
1.20399
1.21284
1.22179
1.23075
1.23972
1.24877
1.25776
1.26692
1.27589
1.28496
1.2938
1.30277
1.31148
1.32034
1.32893
1.33763
1.34608
1.35461
1.3629
1.37123
1.37931
1.38738
1.39519
1.40293
1.41037
1.41768
1.42461
1.43131
1.43754
1.44337
1.4485
1.4529
1.45638
1.45822
1.46014
1.03944
1.09076
1.13035
1.15246
1.16291
1.15742
1.14086
1.11513
1.08645
1.06023
1.03827
1.0271
1.02654
1.03867
1.05635
1.07566
1.09181
1.10343
1.11178
1.11797
1.11893
1.11477
1.10891
1.1037
1.09951
1.09651
1.09415
1.09232
1.09065
1.08921
1.08782
1.0867
1.08574
1.08521
1.08504
1.08547
1.0863
1.08755
1.08931
1.09136
1.09402
1.09703
1.10062
1.10409
1.10776
1.11161
1.1163
1.12162
1.1275
1.13357
1.13989
1.14633
1.15291
1.15969
1.16658
1.17376
1.181
1.18856
1.19612
1.204
1.21185
1.21995
1.22806
1.23631
1.24466
1.25307
1.26164
1.27014
1.27891
1.28753
1.29648
1.3051
1.31405
1.32263
1.33155
1.34008
1.34894
1.3574
1.36617
1.37454
1.38317
1.39144
1.39989
1.40801
1.41624
1.42414
1.43211
1.43969
1.4473
1.45445
1.46156
1.46811
1.47454
1.48028
1.48568
1.49016
1.49394
1.49658
1.49768
1.49922
1.04376
1.09035
1.12946
1.15483
1.16717
1.16529
1.15086
1.12934
1.1053
1.08487
1.06995
1.06427
1.07238
1.09214
1.11573
1.13853
1.15747
1.17121
1.17968
1.18615
1.18971
1.18938
1.1843
1.17808
1.17195
1.16674
1.16239
1.15898
1.15595
1.15334
1.15078
1.14852
1.14638
1.14466
1.1433
1.14243
1.14198
1.14205
1.14261
1.14359
1.14511
1.14712
1.14973
1.15247
1.15529
1.15839
1.16209
1.16662
1.17162
1.17712
1.18278
1.18878
1.19478
1.20117
1.20751
1.21432
1.22105
1.22826
1.23537
1.24292
1.25037
1.25817
1.26592
1.27391
1.28193
1.29009
1.29836
1.30666
1.31518
1.32354
1.33212
1.34047
1.34909
1.35743
1.36605
1.37437
1.38294
1.39123
1.39971
1.40796
1.41633
1.42451
1.43272
1.44076
1.44878
1.45659
1.46432
1.4718
1.47914
1.48613
1.4929
1.49926
1.50524
1.51066
1.51537
1.51934
1.52217
1.52395
1.52422
1.52595
1.04472
1.08673
1.1223
1.14558
1.15651
1.1543
1.14041
1.12237
1.10506
1.08982
1.08133
1.08188
1.09789
1.12437
1.15188
1.17655
1.19739
1.21314
1.22443
1.23125
1.23673
1.23972
1.23957
1.23543
1.22977
1.22355
1.21781
1.21274
1.20862
1.20495
1.20181
1.19883
1.19613
1.1937
1.19165
1.19005
1.18892
1.18828
1.18809
1.18838
1.18921
1.19051
1.19252
1.19469
1.19701
1.19952
1.20262
1.20647
1.21088
1.21582
1.22099
1.22656
1.23218
1.23821
1.24422
1.25068
1.25711
1.264
1.27085
1.27809
1.28531
1.29283
1.30037
1.30809
1.31591
1.32379
1.33191
1.33992
1.34815
1.35619
1.36452
1.37259
1.38096
1.38903
1.39739
1.40541
1.41372
1.42169
1.42992
1.43784
1.44596
1.45381
1.46178
1.46952
1.47725
1.48477
1.49216
1.49928
1.50621
1.5127
1.51899
1.52467
1.53002
1.53449
1.53832
1.54104
1.54262
1.54295
1.54226
1.54421
1.04403
1.07986
1.10895
1.12782
1.13373
1.12835
1.11513
1.10109
1.08899
1.0808
1.07932
1.09016
1.11321
1.14164
1.16996
1.19548
1.21714
1.23492
1.24865
1.25893
1.26579
1.27064
1.27394
1.27466
1.27192
1.26689
1.26131
1.2554
1.24999
1.2453
1.24123
1.23767
1.2345
1.23172
1.2293
1.22729
1.22567
1.22444
1.2237
1.22335
1.22359
1.22433
1.22577
1.2275
1.22944
1.23149
1.2341
1.23739
1.24134
1.24578
1.25057
1.25574
1.26109
1.2668
1.27259
1.27876
1.285
1.29157
1.29825
1.30518
1.31227
1.3195
1.32695
1.33443
1.3422
1.34987
1.35783
1.36558
1.37368
1.38151
1.38975
1.39766
1.40598
1.41394
1.42227
1.43026
1.43853
1.4465
1.45466
1.46259
1.47063
1.47846
1.48636
1.49402
1.50167
1.50908
1.51632
1.52331
1.52993
1.53629
1.54209
1.54752
1.55205
1.55595
1.55867
1.56031
1.56057
1.56014
1.55887
1.56065
1.04238
1.06916
1.08912
1.09988
1.10057
1.09258
1.08277
1.0726
1.06679
1.06563
1.07512
1.09512
1.12122
1.14889
1.17576
1.20065
1.22276
1.24213
1.25859
1.2721
1.28269
1.2904
1.29566
1.29892
1.30056
1.29925
1.29577
1.29134
1.28562
1.2799
1.27486
1.27051
1.26687
1.26381
1.26122
1.2591
1.25731
1.25592
1.25489
1.25432
1.25419
1.25462
1.2557
1.25718
1.25886
1.26066
1.26289
1.26581
1.26933
1.27343
1.27785
1.28277
1.28785
1.29336
1.29895
1.30493
1.31097
1.31736
1.32383
1.33059
1.33746
1.34455
1.35179
1.35916
1.36672
1.3742
1.38195
1.38953
1.39744
1.40512
1.41315
1.42089
1.42896
1.43676
1.44478
1.45261
1.46053
1.46837
1.47617
1.48397
1.49165
1.49932
1.50685
1.51428
1.52157
1.52861
1.53551
1.54193
1.54817
1.55381
1.55909
1.56354
1.5672
1.56982
1.57116
1.57131
1.57066
1.56946
1.56651
1.56731
1.03728
1.05368
1.06366
1.06588
1.06143
1.05422
1.04707
1.04292
1.04359
1.05397
1.07334
1.09733
1.12301
1.14883
1.17395
1.19788
1.22014
1.24059
1.25912
1.27526
1.28912
1.30027
1.30896
1.31472
1.31856
1.32049
1.32076
1.31903
1.31559
1.31039
1.30499
1.29992
1.29575
1.29224
1.28944
1.28718
1.2853
1.28384
1.28267
1.28195
1.2816
1.28178
1.28257
1.28377
1.28532
1.28689
1.28885
1.29139
1.2946
1.29834
1.30247
1.30708
1.31195
1.31724
1.32271
1.3285
1.33446
1.34066
1.34707
1.35362
1.36045
1.36736
1.37457
1.38178
1.38914
1.39652
1.404
1.41154
1.41914
1.4268
1.43453
1.44226
1.4501
1.45782
1.46571
1.4734
1.48125
1.4889
1.49663
1.50423
1.51175
1.51925
1.5265
1.53378
1.54063
1.54747
1.55378
1.55983
1.56541
1.57044
1.57481
1.57814
1.58061
1.58152
1.58153
1.58078
1.57931
1.57616
1.57068
1.5693
1.0262
1.0301
1.03018
1.02613
1.0202
1.01535
1.01264
1.0158
1.02821
1.04864
1.07182
1.09601
1.12022
1.14407
1.16756
1.19042
1.21286
1.23403
1.25402
1.27224
1.28862
1.30263
1.31442
1.32365
1.33062
1.33512
1.33783
1.33929
1.33909
1.33677
1.33276
1.32783
1.32322
1.31906
1.31575
1.31294
1.31079
1.30908
1.3078
1.30692
1.30647
1.30644
1.30703
1.30808
1.30951
1.31096
1.31271
1.31504
1.31797
1.3215
1.32535
1.32976
1.33439
1.33951
1.34477
1.35042
1.35618
1.36225
1.36845
1.37489
1.38153
1.38836
1.3954
1.4024
1.40964
1.41679
1.42414
1.43144
1.43888
1.44636
1.45388
1.46152
1.4691
1.47682
1.48444
1.49212
1.49974
1.50729
1.51484
1.52219
1.52961
1.53672
1.54387
1.55065
1.5573
1.56357
1.56943
1.57495
1.5798
1.58407
1.58719
1.58948
1.59013
1.58996
1.58918
1.58724
1.58375
1.57815
1.57041
1.56778
1.00913
1.00243
0.993814
0.986214
0.981285
0.979351
0.983582
0.997879
1.02036
1.04444
1.06847
1.09165
1.11453
1.13681
1.15918
1.18125
1.20346
1.22494
1.24589
1.26548
1.28377
1.3001
1.31446
1.32671
1.33663
1.34444
1.34998
1.35357
1.35567
1.35647
1.35562
1.35273
1.34872
1.34461
1.34085
1.33766
1.33517
1.33323
1.33193
1.33106
1.33065
1.3307
1.33123
1.33228
1.33374
1.33521
1.33692
1.33905
1.34186
1.34517
1.34894
1.35306
1.35757
1.36238
1.36752
1.37291
1.37853
1.3844
1.39043
1.39673
1.40319
1.40985
1.41654
1.4234
1.43029
1.43727
1.44434
1.45143
1.45865
1.46586
1.4732
1.48055
1.48796
1.4954
1.50282
1.51028
1.51763
1.52503
1.53222
1.53943
1.54643
1.55331
1.55998
1.56636
1.57249
1.57809
1.58343
1.58806
1.59213
1.59501
1.59699
1.59741
1.59704
1.59604
1.59395
1.58953
1.58311
1.57572
1.56728
1.56462
0.988111
0.971923
0.959108
0.95112
0.947841
0.951942
0.967023
0.990728
1.0162
1.04058
1.06366
1.08561
1.10708
1.12849
1.14996
1.17172
1.19352
1.21529
1.23655
1.25713
1.27654
1.29457
1.31098
1.32551
1.33828
1.34891
1.35766
1.36439
1.36902
1.37203
1.3739
1.37454
1.3733
1.37048
1.36722
1.36403
1.36125
1.35907
1.35755
1.35655
1.35612
1.35614
1.35664
1.35776
1.35918
1.3608
1.36243
1.36453
1.3671
1.37024
1.37376
1.37763
1.3819
1.38644
1.39137
1.3965
1.40196
1.40759
1.41348
1.41959
1.42584
1.43225
1.4387
1.44532
1.45195
1.45873
1.46553
1.47242
1.47937
1.48635
1.49342
1.50047
1.50761
1.51471
1.52188
1.52898
1.53608
1.54311
1.55001
1.55687
1.56343
1.56993
1.57599
1.58184
1.58713
1.59206
1.59643
1.60001
1.6026
1.60398
1.60416
1.60355
1.60226
1.59935
1.59458
1.58743
1.57952
1.57179
1.564
1.5619
0.957308
0.938172
0.92631
0.922025
0.924852
0.939649
0.964166
0.990421
1.01539
1.03833
1.05961
1.07999
1.10013
1.12048
1.14122
1.16237
1.1838
1.20549
1.22694
1.24804
1.26827
1.2876
1.30551
1.32221
1.33709
1.35067
1.36218
1.37221
1.38005
1.38624
1.39031
1.39347
1.39528
1.39607
1.39484
1.39239
1.38976
1.38736
1.3854
1.38409
1.3833
1.38313
1.38345
1.38439
1.38576
1.38732
1.38888
1.39082
1.39313
1.39605
1.39926
1.40294
1.40691
1.41128
1.41595
1.4209
1.42618
1.4316
1.4374
1.44327
1.44942
1.45555
1.46188
1.46824
1.47471
1.48125
1.48785
1.49455
1.50127
1.50806
1.51487
1.52169
1.52857
1.53535
1.54223
1.5489
1.55568
1.5622
1.56871
1.57498
1.58104
1.58689
1.59224
1.59734
1.60172
1.60585
1.60892
1.61119
1.61193
1.61184
1.61106
1.60919
1.60574
1.59984
1.59242
1.58416
1.57612
1.56925
1.56293
1.56171
0.918841
0.905257
0.900278
0.903015
0.918173
0.942806
0.96948
0.994804
1.01768
1.0386
1.05821
1.07735
1.09656
1.11618
1.13625
1.15686
1.17779
1.19914
1.22043
1.24161
1.26227
1.28226
1.30136
1.31934
1.33625
1.3518
1.36597
1.3786
1.38953
1.39871
1.40591
1.41147
1.41553
1.41872
1.42034
1.42082
1.41954
1.41735
1.41515
1.41325
1.41174
1.41099
1.41069
1.41112
1.41219
1.41353
1.41499
1.41657
1.41863
1.42118
1.42414
1.42751
1.43118
1.43532
1.43965
1.44446
1.4494
1.45475
1.46028
1.46603
1.47191
1.47788
1.48401
1.49016
1.49645
1.50278
1.50917
1.51566
1.52211
1.52875
1.53523
1.54195
1.54845
1.5551
1.5616
1.56806
1.57446
1.58061
1.58675
1.59241
1.59803
1.60299
1.60771
1.61169
1.61535
1.618
1.6197
1.62003
1.61953
1.61841
1.61618
1.61169
1.60514
1.59723
1.58888
1.58092
1.57399
1.56884
1.56434
1.56418
0.880761
0.875596
0.879457
0.896384
0.923249
0.950587
0.976017
0.999029
1.01988
1.03918
1.05774
1.07614
1.09483
1.11394
1.13361
1.15373
1.1743
1.19516
1.21618
1.23717
1.2579
1.27823
1.29793
1.31695
1.33508
1.35226
1.36833
1.38305
1.39641
1.4081
1.41819
1.42635
1.43292
1.43822
1.4421
1.44451
1.44583
1.44589
1.44438
1.44232
1.4403
1.43859
1.43771
1.43721
1.43768
1.43871
1.44005
1.44141
1.44316
1.44535
1.44813
1.45119
1.45471
1.45849
1.46267
1.46715
1.47193
1.47706
1.48237
1.48792
1.49356
1.49936
1.50527
1.51123
1.51734
1.5234
1.52964
1.5358
1.5421
1.54837
1.55467
1.56101
1.56726
1.5736
1.57974
1.58593
1.59184
1.5977
1.60319
1.60845
1.61324
1.61747
1.62123
1.62433
1.62668
1.62764
1.62765
1.6268
1.62528
1.62208
1.61678
1.60961
1.6013
1.59308
1.58504
1.57872
1.57342
1.57054
1.56762
1.56856
0.852107
0.859015
0.87874
0.907186
0.935087
0.96084
0.983539
1.00393
1.02272
1.04066
1.05842
1.07622
1.09456
1.11328
1.1326
1.15225
1.17237
1.19276
1.21347
1.23423
1.25492
1.27543
1.2955
1.31519
1.33414
1.35244
1.36972
1.38605
1.40115
1.41503
1.4274
1.43829
1.44735
1.45486
1.46109
1.46607
1.46924
1.47111
1.47193
1.47141
1.46971
1.46776
1.46594
1.46478
1.46419
1.46454
1.46551
1.46678
1.46818
1.46996
1.47235
1.47518
1.47848
1.48204
1.48597
1.49018
1.49473
1.4996
1.50468
1.50996
1.51541
1.52097
1.52668
1.53241
1.53831
1.54414
1.55018
1.55606
1.56217
1.56811
1.57421
1.58016
1.58615
1.59205
1.59783
1.60354
1.60894
1.61424
1.61901
1.62354
1.62728
1.63067
1.63325
1.63515
1.63555
1.63512
1.63402
1.63197
1.62775
1.62172
1.6137
1.60549
1.59688
1.58958
1.5831
1.57879
1.5755
1.57438
1.57297
1.57464
0.823457
0.85171
0.88592
0.917584
0.944893
0.968287
0.988744
1.00732
1.02504
1.04231
1.05977
1.07733
1.09544
1.11387
1.13285
1.15211
1.17188
1.19189
1.21232
1.2328
1.25338
1.27383
1.29407
1.31398
1.33344
1.35231
1.37051
1.38792
1.4044
1.41983
1.43414
1.44702
1.4586
1.46835
1.47672
1.48369
1.48965
1.49355
1.49585
1.49701
1.49734
1.49634
1.49441
1.49271
1.49114
1.49044
1.49036
1.49114
1.49216
1.49345
1.49512
1.49743
1.50037
1.50363
1.5073
1.51121
1.51548
1.52007
1.52483
1.52994
1.53507
1.54055
1.54595
1.55166
1.5573
1.5631
1.56894
1.57472
1.58069
1.58643
1.59241
1.59805
1.6039
1.60935
1.61489
1.62
1.62501
1.62951
1.63363
1.63708
1.63995
1.64224
1.64348
1.64357
1.6428
1.6414
1.63829
1.63353
1.62618
1.61822
1.60938
1.60133
1.59383
1.58817
1.58386
1.58151
1.58023
1.58016
1.57994
1.58226
0.800625
0.849117
0.889682
0.922147
0.948266
0.970047
0.989318
1.00725
1.02483
1.04225
1.05991
1.07773
1.09588
1.1143
1.1331
1.15218
1.17169
1.19147
1.2116
1.23185
1.25217
1.27253
1.29266
1.31275
1.33235
1.35175
1.37043
1.38872
1.40608
1.42278
1.43828
1.45288
1.46601
1.47793
1.48815
1.49689
1.5045
1.51096
1.51566
1.51823
1.51959
1.52002
1.51964
1.51813
1.51613
1.51417
1.51304
1.51233
1.51273
1.51355
1.51455
1.51606
1.51827
1.52118
1.5246
1.52826
1.53243
1.53666
1.54138
1.54616
1.55128
1.55655
1.5619
1.56757
1.57305
1.57895
1.58455
1.59052
1.5962
1.60213
1.6078
1.61353
1.61906
1.62441
1.62957
1.63433
1.63879
1.6426
1.64587
1.64834
1.65036
1.65105
1.65082
1.64995
1.64786
1.64413
1.63782
1.63028
1.6216
1.61312
1.60492
1.5981
1.59251
1.5889
1.58673
1.58587
1.58623
1.58683
1.58733
1.58973
0.76046
0.825197
0.873208
0.908772
0.936267
0.959125
0.979667
0.998993
1.01801
1.03673
1.05548
1.07417
1.09296
1.11181
1.13089
1.15012
1.1697
1.18946
1.20953
1.2297
1.24989
1.27011
1.29021
1.31027
1.33001
1.34955
1.36854
1.38717
1.40499
1.42228
1.43852
1.45408
1.46831
1.48168
1.49341
1.50401
1.51284
1.52068
1.52724
1.53215
1.5351
1.5365
1.53674
1.53662
1.5356
1.53354
1.53156
1.52953
1.52866
1.52835
1.52889
1.52967
1.53091
1.53301
1.53592
1.53945
1.54326
1.54747
1.55192
1.55666
1.5617
1.56689
1.57238
1.57792
1.58366
1.58944
1.59531
1.60118
1.60707
1.6129
1.61867
1.62432
1.62977
1.63501
1.63985
1.64435
1.6481
1.65131
1.65354
1.65532
1.6557
1.65537
1.65419
1.6515
1.64648
1.63956
1.63154
1.62279
1.61443
1.60651
1.60004
1.59512
1.59164
1.59019
1.58948
1.59011
1.59092
1.59197
1.59298
1.59522
0.703162
0.780155
0.833766
0.872576
0.903595
0.930318
0.954833
0.977759
0.999823
1.02112
1.04195
1.06233
1.08251
1.10246
1.12242
1.14233
1.1624
1.1825
1.20278
1.22311
1.24335
1.26359
1.28369
1.30374
1.32348
1.34301
1.36206
1.3807
1.39872
1.41618
1.43284
1.4488
1.46376
1.47789
1.49076
1.50263
1.51289
1.52212
1.52997
1.53708
1.54213
1.54561
1.54721
1.54746
1.54696
1.54589
1.54387
1.54151
1.53924
1.53801
1.5372
1.53763
1.53836
1.53955
1.54153
1.54448
1.54809
1.5521
1.55647
1.56108
1.56602
1.57117
1.57659
1.58217
1.5879
1.59375
1.59964
1.60557
1.61146
1.61729
1.623
1.62852
1.63379
1.63869