/*--------------------------------*- C++ -*----------------------------------*\
| =========                 |                                                 |
| \\      /  F ield         | OpenFOAM: The Open Source CFD Toolbox           |
|  \\    /   O peration     | Version:  2412                                  |
|   \\  /    A nd           | Website:  www.openfoam.com                      |
|    \\/     M anipulation  |                                                 |
\*---------------------------------------------------------------------------*/
FoamFile
{
    version     2.0;
    format      ascii;
    arch        "LSB;label=32;scalar=64";
    class       volScalarField;
    location    "9";
    object      p;
}
// * * * * * * * * * * * * * * * * * * * * * * * * * * * * * * * * * * * * * //

dimensions      [1 -1 -2 0 0 0 0];

internalField   nonuniform List<scalar> 
5250
(
1.00001
1.00005
1.00012
1.00036
1.00075
1.00213
1.00425
1.01276
1.02341
1.08135
1.14142
1.52704
2.19285
4.71133
10.5596
11.0675
10.9541
10.9581
11.0583
11.2924
11.5065
11.6453
11.7566
11.8453
11.9143
1.00001
1.00005
1.00012
1.00036
1.00074
1.0021
1.00417
1.0126
1.02293
1.08065
1.139
1.52219
2.17637
4.6725
10.4785
11.0571
10.9464
10.9506
11.0504
11.2836
11.497
11.6362
11.7488
11.8387
11.909
1.00001
1.00005
1.00012
1.00034
1.00071
1.00204
1.00404
1.01229
1.02212
1.07903
1.13449
1.51232
2.13887
4.5918
10.2955
11.0336
10.9256
10.9269
11.0219
11.2492
11.4592
11.5962
11.7076
11.7959
11.8652
1.00001
1.00005
1.00011
1.00033
1.00068
1.00195
1.00383
1.01182
1.02094
1.07648
1.12776
1.49697
2.08223
4.46667
10.0049
11.0047
10.898
10.8851
10.9732
11.1902
11.3941
11.5256
11.6328
11.7176
11.7865
1.00001
1.00004
1.00011
1.00031
1.00064
1.00184
1.0036
1.01118
1.01965
1.07258
1.11945
1.4751
2.00767
4.29454
9.59718
10.9797
10.8688
10.8266
10.9068
11.1098
11.3049
11.4287
11.5293
11.609
11.6777
1.00001
1.00004
1.0001
1.00029
1.0006
1.00171
1.00335
1.01042
1.01825
1.06762
1.11061
1.44211
1.92115
4.06551
9.05081
10.9721
10.8442
10.7532
10.8229
11.0071
11.1891
11.3006
11.3896
11.4607
11.5289
1.00001
1.00004
1.00009
1.00027
1.00055
1.00157
1.00308
1.00956
1.01678
1.06202
1.10124
1.40285
1.83484
3.77021
8.35236
10.9855
10.8274
10.6655
10.7219
10.8817
11.0454
11.138
11.2068
11.2588
11.319
1.00001
1.00003
1.00008
1.00024
1.0005
1.00142
1.00281
1.00859
1.01535
1.05526
1.09103
1.35699
1.73407
3.42636
7.48634
11.0258
10.8191
10.5639
10.604
10.7313
10.8693
10.9333
10.9691
10.9836
11.0163
1
1.00003
1.00007
1.00022
1.00045
1.00127
1.00254
1.00753
1.01401
1.04766
1.08059
1.3073
1.62558
3.0575
6.49915
11.0765
10.8132
10.4574
10.4734
10.5567
10.6592
10.6803
10.6634
10.5999
10.5417
1
1.00003
1.00006
1.00018
1.00038
1.00108
1.00216
1.00639
1.01181
1.04012
1.06755
1.25554
1.50677
2.67456
5.38889
11.0051
10.7659
10.3619
10.3202
10.3589
10.4071
10.3807
10.2799
10.0552
9.7261
1
1.00002
1.00006
1.00014
1.0004
1.00082
1.00233
1.00464
1.01394
1.02583
1.08775
1.15884
1.56385
2.30025
4.87348
10.5255
10.528
10.2845
10.1328
10.1347
10.1213
10.0318
9.78119
9.21311
7.80547
1
1.00002
1.00005
1.00014
1.0003
1.00084
1.0017
1.00488
1.00958
1.02958
1.0531
1.19136
1.35021
2.28849
4.11828
9.57671
10.2787
10.1404
9.94244
9.8956
9.82319
9.64989
9.26969
8.518
7.10399
1
1.00002
1.00004
1.00013
1.00026
1.00073
1.00149
1.00423
1.00845
1.02515
1.04687
1.16082
1.29549
2.08284
3.5737
8.36745
10.1202
10.0157
9.78228
9.65608
9.53244
9.28425
8.82657
8.08188
6.9782
1
1.00001
1.00004
1.0001
1.00022
1.00061
1.00124
1.00352
1.00692
1.02111
1.03781
1.13571
1.23776
1.90142
3.07419
7.07395
10.0246
9.91764
9.64399
9.42878
9.25042
8.96526
8.50087
7.82624
6.95934
1
1.00001
1.00003
1.00009
1.00018
1.00052
1.00105
1.00296
1.00597
1.01722
1.03377
1.10602
1.20118
1.69641
2.61666
5.71328
9.87354
9.80136
9.53405
9.22351
8.99541
8.69824
8.25924
7.65741
6.93197
1
1.00001
1.00002
1.00007
1.00015
1.00042
1.00085
1.0024
1.00485
1.01385
1.02746
1.08297
1.16431
1.52901
2.23038
4.56311
9.41792
9.60087
9.41498
9.04437
8.77603
8.47512
8.06774
7.53089
6.9016
1
1.00001
1.00002
1.00006
1.00012
1.00033
1.00067
1.00188
1.00378
1.01094
1.0208
1.06783
1.11973
1.43379
1.93776
3.90778
8.35072
9.32672
9.20435
8.90457
8.59567
8.28973
7.90731
7.42628
6.86992
1
1.00001
1.00002
1.00004
1.00009
1.00026
1.00052
1.00147
1.00293
1.0086
1.01598
1.05378
1.09102
1.34438
1.69763
3.27435
6.81989
9.0805
9.0212
8.80253
8.45468
8.13538
7.77585
7.34176
6.84891
1
1
1.00001
1.00003
1.00007
1.0002
1.0004
1.00113
1.00227
1.00655
1.01246
1.04042
1.0694
1.25678
1.50512
2.65437
5.17239
8.80422
8.88856
8.72967
8.37487
8.01658
7.66797
7.2757
6.84021
1
1
1.00001
1.00002
1.00006
1.00013
1.00037
1.00075
1.00211
1.00424
1.01219
1.0241
1.07292
1.14422
1.45667
2.05743
3.9788
8.10565
8.74174
8.61781
8.30862
7.92534
7.58451
7.22762
6.84244
1
1
1.00001
1.00002
1.00005
1.0001
1.00027
1.00056
1.00156
1.00314
1.00901
1.01738
1.05517
1.09873
1.3477
1.73994
3.25889
6.67034
8.48384
8.44073
8.25008
7.86722
7.52876
7.20399
6.85439
1
1
1
1.00001
1.00003
1.00009
1.00017
1.00049
1.00099
1.00278
1.00559
1.01627
1.03116
1.09996
1.18873
1.63734
2.46277
5.06825
8.14867
8.30472
8.17676
7.86801
7.51564
7.20576
6.88471
1
1
1
1.00001
1.00003
1.00005
1.00014
1.00029
1.00081
1.00164
1.00465
1.00907
1.02789
1.04974
1.17505
1.32275
2.10813
3.56858
7.41406
8.19877
8.11063
7.87222
7.52779
7.22267
6.94613
1
1
1
1.00001
1.00002
1.00004
1.00009
1.00024
1.00048
1.00136
1.00264
1.00813
1.01416
1.05089
1.08352
1.31653
1.62775
2.99426
5.85761
7.97542
7.98376
7.86715
7.57995
7.2755
7.05086
1
1
1
1
1.00001
1.00003
1.00007
1.00015
1.00042
1.00085
1.00238
1.0048
1.01373
1.02693
1.08243
1.15842
1.51105
2.16149
4.10887
7.51851
7.93962
7.86798
7.67745
7.39394
7.23
1
1
1
1
1.00001
1.00002
1.00005
1.00011
1.0003
1.00061
1.00169
1.00341
1.00963
1.01911
1.057
1.1098
1.35031
1.78124
3.21828
6.40789
7.80913
7.85935
7.78313
7.60877
7.50752
1
1
1
1
1.00001
1.00002
1.00003
1.00009
1.00018
1.00049
1.001
1.00279
1.0056
1.01613
1.03106
1.098
1.18523
1.61507
2.39128
4.77507
7.48731
7.89123
7.89198
7.88089
7.8959
1
1
1
1
1
1.00001
1.00002
1.00005
1.00014
1.00028
1.00078
1.00158
1.00445
1.00871
1.02636
1.04742
1.16332
1.30081
2.01393
3.31087
6.74013
7.87857
8.12904
8.27123
8.42205
1
1
1
1
1
1.00001
1.00001
1.00004
1.00008
1.00023
1.00046
1.00128
1.00254
1.0074
1.01366
1.04536
1.07686
1.28036
1.54637
2.73895
5.17812
7.75668
8.56843
8.89505
9.10176
1
1
1
1
1
1.00001
1.00001
1.00003
1.00006
1.00016
1.00033
1.00091
1.00184
1.00512
1.01028
1.02965
1.05756
1.17897
1.36333
2.13026
3.63094
7.37197
9.17144
9.70262
9.81667
1
1
1
1
1
1
1.00001
1.00002
1.00005
1.0001
1.00027
1.00054
1.00151
1.00302
1.00874
1.0164
1.05364
1.09291
1.337
1.68409
3.13669
6.2916
9.84439
10.5292
10.4868
1
1
1
1
1
1
1.00001
1.00001
1.00004
1.00007
1.0002
1.00041
1.00114
1.00231
1.00657
1.01293
1.03944
1.07232
1.24626
1.50467
2.5821
4.9822
10.3814
11.2222
11.0677
1
1
1
1
1
1
1
1.00001
1.00002
1.00007
1.00014
1.00038
1.00078
1.00222
1.0044
1.01334
1.02457
1.08435
1.15192
1.54182
2.24789
4.72091
10.3069
11.5268
11.3181
1
1
1
1
1
1
1
1.00001
1.00002
1.00005
1.00014
1.00029
1.00082
1.00165
1.00478
1.00945
1.02931
1.05328
1.19172
1.35596
2.31918
4.23154
10.1047
11.6007
11.3423
1
1
1
1
1
1
1
1.00001
1.00002
1.00004
1.00013
1.00026
1.00073
1.00149
1.00433
1.0086
1.02661
1.04884
1.17566
1.32333
2.22445
3.9857
9.73708
11.5875
11.2838
1
1
1
1
1
1
1
1.00001
1.00002
1.00004
1.00011
1.00022
1.00064
1.00127
1.00388
1.00721
1.02487
1.04244
1.16482
1.2947
2.16475
3.81585
9.37387
11.5764
11.1917
1
1
1
1
1
1
1
1.00001
1.00001
1.00004
1.00008
1.00024
1.00047
1.00144
1.00263
1.00924
1.01529
1.06067
1.09913
1.40902
1.86312
3.88953
8.88968
11.5869
11.1285
1
1
1
1
1
1
1
1.00001
1.00001
1.00004
1.00008
1.00022
1.00044
1.00132
1.00248
1.00845
1.0142
1.05612
1.09142
1.37898
1.79523
3.67992
8.39594
11.6526
11.1251
1
1
1
1
1
1
1
1.00001
1.00001
1.00003
1.00009
1.00017
1.0005
1.00096
1.00313
1.00534
1.02036
1.03307
1.13369
1.23325
1.95221
3.25317
7.91611
11.811
11.166
1
1
1
1
1
1
1
1.00001
1.00001
1.00003
1.00007
1.0002
1.00039
1.00116
1.00221
1.00735
1.01251
1.04849
1.07908
1.32137
1.66385
3.23187
7.22858
12.0209
11.2795
1
1
1
1
1
1
1
1.00001
1.00001
1.00003
1.00007
1.00018
1.00037
1.00108
1.00211
1.00669
1.01162
1.04406
1.07162
1.28904
1.5907
2.99075
6.53607
12.2308
11.4226
1
1
1
1
1
1
1
1
1.00001
1.00003
1.00008
1.00016
1.00044
1.0009
1.00262
1.00511
1.01631
1.02886
1.10659
1.18885
1.70732
2.66256
6.06994
12.2938
11.4598
1
1
1
1
1
1
1
1.00001
1.00001
1.00003
1.00006
1.00017
1.00034
1.00099
1.00187
1.00611
1.01042
1.03932
1.06403
1.25222
1.50465
2.68558
5.61795
12.1848
11.4935
1
1
1
1
1
1
1
1
1.00001
1.00003
1.00007
1.00015
1.00043
1.00088
1.00251
1.00503
1.01497
1.02838
1.09515
1.17454
1.62907
2.47086
5.50751
11.9119
11.4432
1
1
1
1
1
1
1
1
1.00001
1.00003
1.00007
1.00015
1.00042
1.00085
1.00242
1.00488
1.01439
1.02757
1.09099
1.16815
1.6017
2.40957
5.33161
11.6959
11.3767
1
1
1
1
1
1
1
1.00001
1.00001
1.00003
1.00006
1.00017
1.00034
1.00097
1.00197
1.00568
1.01105
1.03505
1.06187
1.22772
1.43956
2.53973
4.99068
11.5223
11.3486
1
1
1
1
1
1
1
1.00001
1.00001
1.00003
1.00006
1.00017
1.00034
1.00096
1.00194
1.00557
1.01104
1.03381
1.06193
1.21843
1.42498
2.50149
4.83752
11.3755
11.3095
1
1
1
1
1
1
1
1
1.00001
1.00003
1.00006
1.00016
1.00033
1.00093
1.00187
1.00541
1.0106
1.03322
1.05953
1.21607
1.41277
2.48095
4.7529
11.2411
11.259
1
1
1
1
1
1
1
1
1.00001
1.00002
1.00006
1.00013
1.00036
1.00072
1.00215
1.00398
1.01341
1.02269
1.08564
1.14706
1.5626
2.2824
4.97302
11.1513
11.199
1
1
1
1
1
1
1
1
1.00001
1.00003
1.00006
1.00016
1.00032
1.00091
1.00184
1.00532
1.01042
1.03274
1.05862
1.2133
1.40638
2.46178
4.68913
11.1117
11.2555
3.86206
3.31308
4.23746
4.27886
4.03571
3.9287
3.87571
3.79977
3.70851
3.62577
3.55809
3.51017
3.48768
3.48058
3.48223
3.51114
3.56215
3.63068
3.70959
3.79225
3.87655
3.96094
4.04502
4.12841
4.211
4.29228
4.37189
4.44921
4.52443
4.59596
4.66262
4.72359
4.77886
4.82814
4.87205
4.90996
4.94566
4.97628
4.99999
5.01697
5.02854
5.03476
5.0364
5.03455
5.02874
5.01676
5.00073
4.98121
4.95897
4.93365
4.90552
4.87459
4.8413
4.80563
4.768
4.72841
4.68724
4.64449
4.60048
4.55525
4.50901
4.46186
4.41393
4.36532
4.31616
4.26651
4.21651
4.1662
4.11573
4.0651
4.01448
3.96389
3.91345
3.86321
3.81326
3.76366
3.71447
3.66571
3.61743
3.56965
3.52241
3.47571
3.4296
3.38413
3.33929
3.29511
3.25158
3.2089
3.16704
3.12606
3.08602
3.0471
3.00951
2.97353
2.93941
2.9076
2.87866
2.85349
2.83295
2.82008
4.72941
4.21461
4.34798
4.22902
4.01131
3.95935
3.92223
3.81854
3.70306
3.60677
3.54104
3.5025
3.4833
3.47582
3.47979
3.5071
3.55658
3.62565
3.70578
3.78892
3.87325
3.9575
4.04119
4.12388
4.20585
4.28629
4.36494
4.44021
4.51588
4.58763
4.65417
4.71494
4.77038
4.82023
4.86451
4.90347
4.93847
4.9688
4.9929
5.01049
5.02228
5.02888
5.03035
5.02907
5.02419
5.01303
4.99571
4.97618
4.9541
4.92921
4.90126
4.87063
4.83745
4.80206
4.76455
4.72522
4.68416
4.64163
4.59772
4.55267
4.50653
4.45951
4.41168
4.36318
4.3141
4.26455
4.21461
4.16438
4.11394
4.06338
4.01279
3.96224
3.91183
3.86163
3.81173
3.76217
3.71303
3.66431
3.61607
3.56833
3.52112
3.47443
3.42837
3.38294
3.33811
3.29392
3.25034
3.20772
3.16593
3.12504
3.08512
3.04635
3.00884
2.97286
2.93873
2.90692
2.87796
2.85275
2.83203
2.81931
5.51559
4.76655
4.50893
4.26713
4.0501
3.95512
3.87537
3.78931
3.69242
3.60637
3.54446
3.50759
3.48807
3.46376
3.46326
3.49867
3.54774
3.61605
3.69709
3.77977
3.86469
3.9493
4.03336
4.11643
4.19866
4.27952
4.35886
4.43567
4.51051
4.58174
4.64807
4.70893
4.76431
4.8141
4.85842
4.89756
4.93215
4.96185
4.98582
5.00351
5.0155
5.02197
5.02329
5.02222
5.01817
5.00839
4.99037
4.97003
4.94778
4.92296
4.89528
4.86487
4.8319
4.79668
4.75937
4.72023
4.67936
4.63702
4.59329
4.54839
4.50242
4.45554
4.40783
4.35946
4.31048
4.26102
4.21117
4.16101
4.11063
4.06012
4.00958
3.95907
3.90872
3.85856
3.80873
3.75922
3.71016
3.66149
3.61334
3.56568
3.5186
3.47196
3.42604
3.38075
3.33613
3.29214
3.24898
3.2063
3.16446
3.12353
3.0837
3.045
3.00766
2.97184
2.9379
2.90622
2.87739
2.85227
2.83146
2.81922
5.87546
5.08795
4.6444
4.3522
4.12921
3.9859
3.8938
3.80318
3.70667
3.61782
3.55252
3.50905
3.48394
3.47483
3.47992
3.50251
3.55166
3.61854
3.69654
3.77854
3.86258
3.94685
4.03065
4.11331
4.19495
4.27492
4.35339
4.42912
4.50252
4.57248
4.63796
4.69795
4.75271
4.80203
4.84614
4.88502
4.91913
4.94821
4.97194
4.98977
5.00191
5.00851
5.00968
5.00882
5.00554
4.9974
4.98066
4.95931
4.93637
4.91157
4.88432
4.85439
4.82189
4.78706
4.75014
4.71132
4.67082
4.62878
4.5854
4.54078
4.49511
4.44848
4.40104
4.35288
4.30413
4.25486
4.20519
4.15517
4.10493
4.05454
4.00412
3.95374
3.90352
3.85353
3.80388
3.75456
3.70568
3.65719
3.60921
3.56174
3.51486
3.4686
3.42283
3.37757
3.33297
3.28906
3.24592
3.20348
3.16189
3.12121
3.08162
3.04321
3.00617
2.9707
2.93713
2.90582
2.87732
2.85259
2.83192
2.82032
6.05909
5.31916
4.81462
4.48164
4.24135
4.06547
3.95074
3.85621
3.76418
3.68316
3.62379
3.58227
3.55583
3.53886
3.53544
3.54324
3.56957
3.62583
3.70061
3.7807
3.86279
3.94627
4.02971
4.11193
4.19276
4.27161
4.34802
4.4223
4.49403
4.56233
4.6265
4.68579
4.73988
4.78852
4.83192
4.87009
4.90337
4.93168
4.95486
4.97255
4.98471
4.99144
4.99249
4.99176
4.989
4.98214
4.96769
4.9462
4.92267
4.89766
4.87062
4.84114
4.80916
4.77484
4.73839
4.70003
4.65996
4.61834
4.57533
4.53111
4.48577
4.43949
4.39234
4.34449
4.29598
4.24695
4.19747
4.14765
4.09757
4.04735
3.99709
3.94689
3.89685
3.84712
3.7977
3.74859
3.69989
3.65171
3.60405
3.55688
3.51021
3.4641
3.41852
3.37349
3.3291
3.2854
3.24247
3.20034
3.15907
3.11875
3.07952
3.04152
3.00494
2.97001
2.93703
2.90638
2.87856
2.85469
2.83464
2.82431
6.17169
5.5055
4.99585
4.6331
4.37556
4.19065
4.06443
3.96928
3.89057
3.82557
3.77437
3.73149
3.69434
3.66142
3.63838
3.63207
3.63735
3.65845
3.7067
3.78237
3.86474
3.94978
4.03422
4.11699
4.19623
4.27189
4.34466
4.41503
4.48301
4.54814
4.60978
4.66732
4.72027
4.76815
4.81092
4.8486
4.88142
4.90927
4.93216
4.94986
4.96225
4.96934
4.97061
4.97
4.96769
4.96194
4.94971
4.92935
4.90593
4.88071
4.85364
4.82444
4.79295
4.75922
4.72336
4.68557
4.64601
4.60489
4.56234
4.51856
4.47363
4.42774
4.38095
4.33344
4.28523
4.23648
4.18724
4.13765
4.08778
4.03778
3.98774
3.9378
3.88796
3.83855
3.78954
3.74096
3.69278
3.64501
3.59766
3.55074
3.50429
3.45839
3.41304
3.3683
3.32419
3.2808
3.23817
3.19639
3.15553
3.11569
3.077
3.03963
3.00378
2.9697
2.93764
2.90809
2.88152
2.8592
2.84049
2.83243
6.24882
5.65838
5.16981
4.79899
4.52801
4.34004
4.21372
4.1299
4.07406
4.03029
3.99078
3.9498
3.90401
3.8501
3.79777
3.75427
3.72979
3.73208
3.7464
3.78362
3.85923
3.94537
4.03431
4.11874
4.19755
4.27093
4.3399
4.40609
4.47001
4.53164
4.59053
4.64608
4.69763
4.74461
4.78669
4.82383
4.8563
4.88363
4.90628
4.92389
4.93647
4.94393
4.94552
4.94498
4.94298
4.93803
4.92754
4.909
4.88647
4.86141
4.83431
4.80524
4.77413
4.74095
4.70571
4.66854
4.62957
4.58901
4.54698
4.50369
4.45922
4.41378
4.3674
4.32026
4.27241
4.22397
4.17503
4.1257
4.07613
4.02643
3.97673
3.92724
3.87818
3.82923
3.78066
3.73243
3.6846
3.63709
3.59002
3.54336
3.49723
3.4516
3.40659
3.36219
3.31849
3.2755
3.23334
3.19206
3.1518
3.11263
3.07473
3.03826
3.00348
2.97054
2.93985
2.91199
2.88741
2.86745
2.85105
2.84635
6.31239
5.78682
5.33339
4.97237
4.70343
4.51955
4.40649
4.344
4.31444
4.29343
4.26785
4.23027
4.17178
4.08754
3.99374
3.90821
3.84562
3.81723
3.81956
3.83276
3.86764
3.93958
4.02652
4.11372
4.19435
4.26746
4.33436
4.39683
4.45631
4.51356
4.56873
4.62136
4.67084
4.71646
4.75768
4.79402
4.82604
4.85307
4.87551
4.89315
4.90601
4.91395
4.9161
4.91564
4.91392
4.90965
4.90063
4.88411
4.86305
4.83871
4.81188
4.783
4.75221
4.71951
4.68487
4.64836
4.61004
4.57011
4.52867
4.48593
4.44198
4.39702
4.3511
4.30437
4.2569
4.20881
4.16018
4.11119
4.06199
4.01277
3.96379
3.91494
3.86639
3.81796
3.76983
3.72193
3.67444
3.62728
3.58059
3.53432
3.48861
3.4434
3.39884
3.35491
3.31172
3.26929
3.22776
3.18717
3.1477
3.10943
3.07261
3.0374
3.00403
2.97272
2.94406
2.9186
2.89691
2.88031
2.86774
2.8669
6.36944
5.9063
5.49325
5.1558
4.90485
4.74011
4.65134
4.61939
4.61402
4.6069
4.59038
4.55346
4.47654
4.34588
4.20532
4.08056
3.98521
3.92614
3.90613
3.90902
3.92198
3.95446
4.02104
4.0989
4.17796
4.2525
4.32062
4.38236
4.43927
4.49289
4.54424
4.59345
4.64022
4.68389
4.72385
4.75957
4.79105
4.81783
4.8402
4.85807
4.87145
4.87999
4.88303
4.88268
4.88125
4.87765
4.87001
4.85544
4.8361
4.81293
4.78679
4.75836
4.72796
4.69572
4.66163
4.62575
4.5881
4.54884
4.50804
4.46591
4.42253
4.3781
4.33267
4.28638
4.23931
4.1916
4.14326
4.09482
4.04636
3.9979
3.94959
3.90133
3.85327
3.80532
3.75765
3.7102
3.66314
3.61641
3.57017
3.52437
3.47914
3.43444
3.39041
3.34706
3.3045
3.26277
3.22201
3.18232
3.14387
3.1068
3.07139
3.0378
3.00619
2.97719
2.9513
2.92916
2.9115
2.89929
2.89309
2.89375
6.42869
6.02247
5.65847
5.36131
5.144
5.01366
4.96017
4.95802
4.95986
4.95681
4.94064
4.89331
4.787
4.60291
4.421
4.26757
4.14859
4.06551
4.01781
4.00075
4.00265
4.01252
4.03827
4.09183
4.15616
4.22551
4.29442
4.35815
4.41577
4.46842
4.5174
4.5636
4.60732
4.6484
4.68642
4.72091
4.7516
4.77819
4.80065
4.81878
4.83269
4.84196
4.84621
4.84598
4.84486
4.84191
4.83557
4.82288
4.80522
4.78348
4.75845
4.7308
4.70097
4.66924
4.63567
4.60038
4.56337
4.52478
4.48464
4.44316
4.40039
4.35652
4.31161
4.26577
4.21914
4.17185
4.12441
4.07663
4.02889
3.9811
3.93339
3.88567
3.83814
3.79071
3.74358
3.69666
3.65013
3.60394
3.55825
3.51301
3.46836
3.4243
3.38094
3.33831
3.29655
3.25572
3.21597
3.17744
3.14034
3.10485
3.07131
3.03966
3.01058
2.98463
2.96242
2.9447
2.93236
2.92601
2.92594
2.92732
6.49382
6.14693
5.84066
5.59878
5.43402
5.35146
5.33821
5.34192
5.34343
5.33509
5.30236
5.21976
5.05031
4.83982
4.64216
4.47238
4.33668
4.23399
4.16159
4.11667
4.09301
4.09173
4.09605
4.11143
4.1465
4.20078
4.2579
4.32002
4.37974
4.43467
4.48446
4.52983
4.5716
4.61027
4.64601
4.67873
4.70825
4.73434
4.75676
4.77536
4.78975
4.7998
4.80555
4.80551
4.80475
4.80246
4.79727
4.78669
4.77062
4.75048
4.72688
4.70036
4.67137
4.64029
4.6073
4.57259
4.53621
4.49826
4.45882
4.418
4.37588
4.3326
4.28822
4.24285
4.19678
4.15027
4.1036
4.05667
4.00967
3.96253
3.91546
3.86835
3.82143
3.77461
3.72808
3.68177
3.63586
3.5903
3.54524
3.50066
3.45671
3.41339
3.37084
3.32911
3.28833
3.24862
3.21015
3.17311
3.13773
3.10434
3.07287
3.04395
3.01824
2.99635
2.979
2.96716
2.96152
2.96195
2.96409
2.97037
6.58206
6.30045
6.06232
5.88715
5.78466
5.7509
5.75241
5.75509
5.74775
5.71771
5.64007
5.48017
5.27301
5.06035
4.86336
4.68962
4.54362
4.42405
4.3292
4.25784
4.2077
4.17734
4.16275
4.16401
4.17163
4.19216
4.23419
4.27693
4.33189
4.38837
4.44115
4.48869
4.5311
4.56905
4.6033
4.63436
4.66251
4.68771
4.70979
4.72846
4.74351
4.7542
4.76105
4.76205
4.76151
4.7597
4.75545
4.74669
4.73233
4.71393
4.69196
4.66681
4.63891
4.60867
4.57638
4.5423
4.50654
4.46924
4.43046
4.39032
4.34886
4.30617
4.26232
4.21762
4.17239
4.12677
4.08089
4.03474
3.98847
3.94205
3.89565
3.84925
3.803
3.75688
3.71103
3.66543
3.62021
3.57539
3.53107
3.4873
3.44417
3.40177
3.3602
3.31957
3.28002
3.24172
3.20489
3.16973
3.13665
3.1056
3.07698
3.05173
3.03036
3.01374
3.00271
2.99832
2.999
3.00207
3.00995
3.02789
6.70459
6.4992
6.34089
6.2417
6.19815
6.19422
6.19255
6.18256
6.14794
6.06375
5.89475
5.69099
5.47948
5.2753
5.08567
4.91232
4.75991
4.62658
4.51257
4.41796
4.34228
4.28512
4.24558
4.2215
4.2151
4.21797
4.2293
4.25556
4.28813
4.33481
4.38658
4.43654
4.48166
4.5214
4.55629
4.58711
4.61454
4.63896
4.66047
4.67891
4.69415
4.70532
4.71298
4.71538
4.71501
4.71361
4.71021
4.70308
4.69036
4.67369
4.6534
4.62979
4.60321
4.57406
4.54267
4.50933
4.47426
4.43762
4.39952
4.36004
4.31923
4.27711
4.234
4.19021
4.14591
4.10117
4.05611
4.01078
3.96528
3.91966
3.87403
3.82841
3.78292
3.73758
3.6925
3.64769
3.60329
3.55931
3.51587
3.47303
3.43091
3.3896
3.34923
3.30996
3.27195
3.23544
3.20066
3.16801
3.13759
3.10948
3.08485
3.06429
3.04853
3.03873
3.0357
3.03667
3.04046
3.04963
3.06837
3.10627
6.88545
6.76541
6.69221
6.66191
6.65838
6.65448
6.64018
6.59759
6.49836
6.31189
6.10067
5.8872
5.68195
5.48791
5.30565
5.13614
4.97708
4.83218
4.70263
4.58897
4.49192
4.41158
4.34783
4.30014
4.26867
4.25055
4.25083
4.25509
4.26806
4.29405
4.3301
4.37626
4.42186
4.46404
4.50159
4.53436
4.56285
4.5876
4.60902
4.62724
4.64239
4.65392
4.66196
4.6657
4.6655
4.66452
4.66191
4.65629
4.64514
4.63001
4.6113
4.58927
4.56417
4.53632
4.50603
4.47363
4.43936
4.40346
4.36605
4.32723
4.28701
4.24564
4.20349
4.16068
4.11732
4.07349
4.02932
3.98486
3.94022
3.89546
3.85067
3.80592
3.76127
3.7168
3.67258
3.62869
3.58521
3.54222
3.49981
3.45808
3.41717
3.37718
3.3383
3.30071
3.26465
3.23039
3.19831
3.16867
3.14129
3.11742
3.09794
3.08342
3.0747
3.0737
3.07511
3.08003
3.09169
3.11582
3.14484
3.19604
7.14788
7.11563
7.11822
7.12692
7.12604
7.11271
7.06594
6.95397
6.7437
6.51245
6.28827
6.07794
5.8816
5.69616
5.51915
5.34983
5.1875
5.03475
4.89339
4.76478
4.65028
4.5506
4.46628
4.39716
4.34372
4.30434
4.27987
4.2692
4.27049
4.27699
4.29197
4.32057
4.35766
4.39852
4.43767
4.47328
4.5046
4.53144
4.55407
4.57286
4.58819
4.60003
4.60848
4.61323
4.61319
4.61254
4.61056
4.60606
4.59685
4.58296
4.56565
4.54515
4.52159
4.49518
4.46618
4.43488
4.40159
4.36654
4.32989
4.29171
4.25224
4.21186
4.1707
4.12889
4.08651
4.04367
4.00045
3.95695
3.91326
3.86944
3.8256
3.78179
3.73809
3.6946
3.65137
3.60852
3.56611
3.52426
3.48306
3.44267
3.4032
3.36484
3.3278
3.29232
3.25873
3.22735
3.19871
3.17219
3.14933
3.13101
3.11816
3.11098
3.11125
3.11344
3.11983
3.13407
3.16219
3.20058
3.23503
3.28891
7.51271
7.53862
7.59436
7.61198
7.59912
7.5486
7.42502
7.18918
6.93367
6.69073
6.4688
6.2662
6.07755
5.89779
5.7236
5.55392
5.3887
5.23026
5.08023
4.94056
4.81276
4.69786
4.59666
4.50932
4.43602
4.37695
4.33138
4.29978
4.28059
4.27563
4.27742
4.28443
4.30078
4.33259
4.36691
4.40313
4.43715
4.46723
4.49269
4.51354
4.53012
4.54305
4.55204
4.55769
4.55826
4.55778
4.55617
4.55241
4.54466
4.5322
4.51637
4.4974
4.47538
4.45047
4.42289
4.39288
4.36073
4.32667
4.29086
4.25351
4.21503
4.17568
4.13556
4.0948
4.05347
4.01169
3.96952
3.92707
3.88442
3.84165
3.79885
3.75609
3.71347
3.67107
3.62898
3.58731
3.54615
3.50564
3.4659
3.42709
3.38939
3.35305
3.3183
3.28552
3.25505
3.2275
3.20212
3.18038
3.16356
3.15237
3.14767
3.14838
3.1517
3.16029
3.17861
3.21076
3.24945
3.29351
3.32855
3.37826
7.94956
8.05819
8.11069
8.09921
8.04559
7.9106
7.64713
7.36305
7.09722
6.85896
6.64575
6.45087
6.26745
6.09044
5.91706
5.7465
5.57916
5.4164
5.26044
5.11308
4.97561
4.84926
4.7346
4.63244
4.54269
4.46601
4.40204
4.35087
4.31218
4.2863
4.27252
4.26908
4.27085
4.27861
4.2966
4.32748
4.35991
4.3921
4.42099
4.44543
4.46513
4.48045
4.49132
4.49811
4.50004
4.49965
4.49829
4.4951
4.48853
4.47754
4.46322
4.4458
4.42535
4.402
4.37592
4.34734
4.31651
4.2836
4.24882
4.21256
4.17523
4.13699
4.09799
4.05834
4.01815
3.9775
3.93647
3.89517
3.85366
3.81204
3.7704
3.72883
3.68742
3.64627
3.60549
3.56519
3.52552
3.48658
3.4486
3.41172
3.37623
3.3424
3.31059
3.28121
3.25497
3.23086
3.2106
3.19542
3.18611
3.18409
3.18538
3.19013
3.20152
3.22504
3.26001
3.30186
3.3448
3.38766
3.41797
3.45924
8.55542
8.6305
8.61994
8.56221
8.41145
8.11709
7.80298
7.51123
7.25301
7.02552
6.82086
6.63108
6.44989
6.27338
6.09952
5.92788
5.75897
5.59365
5.43412
5.28172
5.13757
5.00271
4.87789
4.76371
4.66059
4.56874
4.48844
4.41975
4.36275
4.31766
4.28436
4.26402
4.25198
4.24771
4.25034
4.25946
4.27946
4.30802
4.33722
4.36495
4.38905
4.40846
4.42302
4.43237
4.43705
4.4369
4.43598
4.43359
4.42849
4.41889
4.40602
4.39011
4.37127
4.34957
4.32513
4.29814
4.26877
4.23719
4.20371
4.16883
4.13279
4.0958
4.05802
4.01958
3.9806
3.94117
3.90138
3.86132
3.82106
3.78073
3.74038
3.70014
3.6601
3.62039
3.58112
3.54244
3.5045
3.46748
3.43162
3.39714
3.36441
3.33377
3.3057
3.28095
3.25845
3.2397
3.22691
3.21941
3.2197
3.222
3.2287
3.24364
3.27327
3.31126
3.35467
3.39919
3.43972
3.47573
3.49821
3.5291
9.19162
9.17705
9.10336
8.91847
8.5864
8.24482
7.92976
7.65155
7.40824
7.19188
6.99362
6.80641
6.62556
6.44822
6.27333
6.10073
5.93093
5.7642
5.6027
5.44694
5.298
5.15681
5.02408
4.9004
4.78618
4.68171
4.58741
4.50342
4.43004
4.36741
4.31586
4.2758
4.2476
4.22909
4.21427
4.21444
4.21775
4.2274
4.24771
4.27361
4.30005
4.32364
4.34288
4.35711
4.36583
4.36864
4.36823
4.36673
4.36322
4.35602
4.34477
4.33037
4.31312
4.29312
4.27044
4.24519
4.21748
4.18749
4.15567
4.12235
4.08779
4.0522
4.01578
3.97865
3.94099
3.90287
3.86442
3.82571
3.78684
3.7479
3.70901
3.67027
3.63179
3.59373
3.55622
3.51945
3.48359
3.4489
3.41564
3.38417
3.35492
3.32837
3.30534
3.28472
3.26783
3.25721
3.25317
3.25406
3.25791
3.26775
3.2884
3.32213
3.36347
3.40855
3.45355
3.4941
3.52701
3.55307
3.5667
3.58766
9.79211
9.68886
9.44707
9.07185
8.69155
8.34908
8.05215
7.79424
7.56598
7.35814
7.16348
6.97677
6.79494
6.61631
6.44043
6.26719
6.09695
5.93016
5.76685
5.60862
5.45618
5.31019
5.17121
5.03987
4.91654
4.80172
4.69559
4.59848
4.51063
4.43249
4.36438
4.30672
4.25981
4.22473
4.19811
4.17743
4.16678
4.16765
4.17197
4.18262
4.20408
4.22693
4.2494
4.26849
4.28275
4.29135
4.2937
4.29319
4.29137
4.28719
4.27869
4.26624
4.25068
4.2324
4.21155
4.1882
4.16239
4.13433
4.10441
4.07292
4.04006
4.00608
3.97117
3.93553
3.89932
3.86264
3.82566
3.78841
3.75107
3.71369
3.67643
3.63938
3.60272
3.56658
3.53115
3.49666
3.46333
3.4315
3.40152
3.37387
3.34907
3.32811
3.30941
3.29516
3.28623
3.2862
3.2879
3.2937
3.30726
3.33467
3.37247
3.41664
3.46319
3.50819
3.54761
3.5795
3.60223
3.6178
3.62387
3.63616
10.3335
10.0005
9.56423
9.14036
8.76815
8.45125
8.18021
7.9422
7.72612
7.52398
7.33075
7.14326
6.9601
6.78032
6.60365
6.42988
6.25921
6.09176
5.92746
5.76744
5.61216
5.46217
5.31802
5.18026
5.04928
4.92556
4.80934
4.70108
4.601
4.50946
4.42687
4.35355
4.29006
4.23685
4.19454
4.16152
4.1331
4.11427
4.10923
4.11051
4.11555
4.12721
4.14712
4.16726
4.18592
4.20041
4.20939
4.21238
4.2119
4.21006
4.20571
4.19681
4.18361
4.16723
4.14828
4.12693
4.10327
4.07749
4.04979
4.0204
3.9895
3.95737
3.92421
3.89025
3.85565
3.82059
3.7852
3.7496
3.71394
3.67831
3.6429
3.6078
3.57324
3.53935
3.50643
3.4747
3.44451
3.41624
3.39046
3.36766
3.3491
3.33263
3.32088
3.31593
3.31668
3.32026
3.32952
3.34914
3.38267
3.42418
3.47062
3.51804
3.56279
3.60119
3.63115
3.65213
3.66442
3.67076
3.67251
3.67684
10.6799
10.106
9.60129
9.18702
8.84794
8.56464
8.3191
8.09708
7.88939
7.69017
7.49687
7.30819
7.1236
6.94264
6.76505
6.59058
6.41913
6.25068
6.08506
5.92317
5.76519
5.61166
5.46297
5.3197
5.18215
5.05088
4.92607
4.80824
4.69758
4.59459
4.49943
4.41275
4.33475
4.26603
4.20697
4.1583
4.11849
4.08309
4.05804
4.04407
4.04213
4.04369
4.04914
4.06119
4.07916
4.09645
4.11115
4.12132
4.12539
4.12508
4.12351
4.11949
4.11111
4.09767
4.0809
4.06165
4.04029
4.01698
3.99178
3.96476
3.93614
3.90613
3.87498
3.84293
3.81016
3.77691
3.74331
3.70956
3.67578
3.64215
3.60883
3.576
3.54389
3.51272
3.48281
3.45449
3.4282
3.40452
3.38409
3.36801
3.35449
3.34495
3.34444
3.34617
3.35203
3.36572
3.39348
3.43138
3.4765
3.52499
3.57302
3.61701
3.65398
3.68198
3.7008
3.71122
3.71458
3.71438
3.71357
3.7142
10.7829
10.1063
9.60607
9.234
8.94139
8.69344
8.46976
8.25904
8.05554
7.85698
7.66272
7.47259
7.28651
7.10417
6.92531
6.74954
6.5767
6.4066
6.23948
6.07499
5.91429
5.75745
5.6047
5.45654
5.31328
5.17547
5.04333
4.91735
4.79771
4.68492
4.57912
4.48084
4.39026
4.30801
4.23436
4.16992
4.11558
4.06982
4.02854
3.99672
3.9777
3.96678
3.96681
3.96861
3.97431
3.98643
4.00245
4.01735
4.02825
4.03396
4.03384
4.03275
4.02958
4.02263
4.00931
3.99283
3.9739
3.95305
3.93039
3.90596
3.87988
3.85232
3.82349
3.79363
3.76298
3.73177
3.70021
3.66852
3.63689
3.60553
3.57464
3.54448
3.51529
3.48741
3.4612
3.43716
3.41584
3.39822
3.38476
3.37426
3.36914
3.36999
3.37386
3.38379
3.40471
3.43889
3.48128
3.52917
3.57908
3.62729
3.6702
3.70556
3.73151
3.74814
3.75689
3.75746
3.75672
3.75423
3.74843
3.74754
10.7347
10.0795
9.61781
9.30083
9.05415
8.836
8.62802
8.42399
8.22215
8.02309
7.82758
7.63594
7.44829
7.26424
7.08355
6.9058
6.73082
6.55841
6.38869
6.2215
6.05804
5.89798
5.74148
5.58897
5.44074
5.29726
5.15879
5.02579
4.89849
4.77731
4.66247
4.55437
4.45325
4.35956
4.27359
4.19589
4.12678
4.06709
4.0158
3.9691
3.93198
3.90628
3.89129
3.88436
3.88484
3.88755
3.89424
3.90775
3.92108
3.93226
3.9394
3.94061
3.93996
3.93762
3.93195
3.92043
3.90482
3.88653
3.86635
3.84453
3.82117
3.79633
3.77015
3.74283
3.7146
3.68576
3.65654
3.62723
3.59808
3.56934
3.54131
3.51426
3.48859
3.46467
3.44304
3.42432
3.40944
3.39937
3.39125
3.39128
3.3933
3.39995
3.41494
3.44504
3.48414
3.53072
3.58136
3.63238
3.68014
3.7217
3.75497
3.77877
3.79361
3.80007
3.79991
3.79871
3.79549
3.78874
3.77585
3.77391
10.6053
10.0212
9.64434
9.38955
9.18034
8.98151
8.78197
8.58066
8.37982
8.18104
7.98531
7.79299
7.60407
7.41843
7.23578
7.05584
6.87851
6.70364
6.5313
6.36162
6.19461
6.03118
5.87122
5.71492
5.56237
5.41403
5.27013
5.13113
4.99731
4.869
4.74653
4.63014
4.52015
4.41682
4.3205
4.23153
4.15036
4.0774
4.01345
3.95729
3.90614
3.86466
3.83402
3.81319
3.80089
3.79805
3.79909
3.80285
3.8113
3.82411
3.83568
3.84395
3.84714
3.84686
3.84533
3.84117
3.83228
3.81766
3.80024
3.78098
3.76028
3.73822
3.71487
3.69035
3.6649
3.63878
3.6123
3.58578
3.55953
3.53392
3.50927
3.48606
3.46471
3.44578
3.42999
3.41847
3.4113
3.408
3.40917
3.41401
3.42575
3.44986
3.48514
3.52905
3.57886
3.63128
3.68286
3.73
3.77002
3.80131
3.82325
3.83643
3.8409
3.84055
3.839
3.835
3.82686
3.81579
3.80019
3.79712
10.4494
9.9812
9.69859
9.49425
9.30752
9.11765
8.92202
8.72323
8.52423
8.32671
8.13149
7.93893
7.7491
7.56201
7.37753
7.19555
7.016
6.83881
6.66405
6.49155
6.32168
6.15529
5.99219
5.83246
5.6761
5.52355
5.37495
5.23087
5.09147
4.95719
4.82828
4.70497
4.58756
4.47623
4.37132
4.27304
4.18184
4.09804
4.02218
3.95477
3.89466
3.83996
3.79504
3.7602
3.73479
3.71916
3.71119
3.7114
3.71326
3.7183
3.72871
3.74003
3.74932
3.7546
3.75501
3.75423
3.7515
3.74515
3.73235
3.71649
3.69859
3.67928
3.65878
3.63724
3.61485
3.59184
3.56853
3.54525
3.52244
3.50053
3.48004
3.46148
3.44555
3.43282
3.4246
3.42072
3.42125
3.42437
3.43295
3.45126
3.48328
3.52381
3.57177
3.62435
3.67816
3.72973