/*--------------------------------*- C++ -*----------------------------------*\
| =========                 |                                                 |
| \\      /  F ield         | OpenFOAM: The Open Source CFD Toolbox           |
|  \\    /   O peration     | Version:  2412                                  |
|   \\  /    A nd           | Website:  www.openfoam.com                      |
|    \\/     M anipulation  |                                                 |
\*---------------------------------------------------------------------------*/
FoamFile
{
    version     2.0;
    format      ascii;
    arch        "LSB;label=32;scalar=64";
    class       surfaceScalarField;
    location    "9";
    object      phi;
}
// * * * * * * * * * * * * * * * * * * * * * * * * * * * * * * * * * * * * * //

dimensions      [1 0 -1 0 0 0 0];

oriented        oriented;

internalField   nonuniform List<scalar> 
10325
(
0.00840003
1.11369e-10
0.00840003
8.68431e-10
0.00840002
2.6652e-09
0.00840002
8.05436e-09
0.0084
1.92668e-08
0.00839994
4.97311e-08
0.00839982
1.21197e-07
0.00839952
2.65459e-07
0.00839879
7.21837e-07
0.00839721
1.40996e-06
0.00839318
3.95699e-06
0.00838233
1.01328e-05
0.00835015
3.23125e-05
0.00822297
0.000124836
0.00764786
0.000570001
0.00704068
0.000606832
0.00642656
0.000613803
0.00579631
0.000629857
0.00513836
0.00065737
0.00443255
0.000704987
0.00366859
0.00076317
0.00284546
0.000822245
0.00196514
0.000879329
0.00102231
0.000942027
0.00102148
0.00840003
2.16112e-10
0.00840003
1.67653e-09
0.00840002
5.15925e-09
0.00840002
1.55173e-08
0.0084
3.69906e-08
0.00839995
9.60009e-08
0.00839984
2.27082e-07
0.00839955
5.3113e-07
0.00839895
1.31718e-06
0.00839725
2.96099e-06
0.00839352
7.66268e-06
0.00838282
2.02452e-05
0.00834594
6.87014e-05
0.00821887
0.000250011
0.00762942
0.00115426
0.00701364
0.00122231
0.00640509
0.00122206
0.00578428
0.00125029
0.00512731
0.00131374
0.00441378
0.0014177
0.00364305
0.0015331
0.00281323
0.00165115
0.00192359
0.00176802
0.000978012
0.00188672
0.00199859
0.00840003
3.14737e-10
0.00840003
2.44201e-09
0.00840003
7.48496e-09
0.00840002
2.25697e-08
0.0084
5.37176e-08
0.00839995
1.40168e-07
0.00839985
3.30673e-07
0.00839957
7.83233e-07
0.00839897
1.92099e-06
0.00839729
4.47391e-06
0.00839346
1.14729e-05
0.0083823
3.08046e-05
0.00834669
0.000103821
0.00821639
0.000378414
0.00762062
0.00174468
0.00699633
0.00184652
0.00640075
0.00181754
0.00577958
0.00187118
0.00512902
0.00196373
0.00442307
0.0021228
0.00365486
0.0023006
0.00282177
0.00248334
0.00192726
0.0026615
0.000977429
0.00283574
0.00297516
0.00840003
3.82016e-10
0.00840003
2.96119e-09
0.00840003
9.0981e-09
0.00840002
2.74191e-08
0.00840001
6.50415e-08
0.00839997
1.72085e-07
0.00839991
3.92055e-07
0.00839966
1.0087e-06
0.00839934
2.24473e-06
0.00839744
6.20437e-06
0.00839438
1.45523e-05
0.00838247
4.20923e-05
0.00834786
0.000137954
0.00821781
0.000506532
0.00761756
0.0023392
0.00698846
0.00247573
0.00640616
0.00239988
0.00579947
0.00247751
0.00516102
0.00260178
0.00446622
0.00281677
0.00370832
0.00305776
0.00288146
0.00330931
0.00197606
0.00356593
0.00100577
0.00380485
0.00397998
0.00840003
4.30829e-10
0.00840003
3.34043e-09
0.00840003
1.02624e-08
0.00840002
3.09567e-08
0.00840001
7.32289e-08
0.00839999
1.95707e-07
0.00839994
4.37145e-07
0.00839975
1.17691e-06
0.00839949
2.51192e-06
0.00839798
7.53973e-06
0.00839621
1.63305e-05
0.00838111
5.65361e-05
0.00835425
0.000164301
0.00822337
0.000635436
0.00763304
0.0029232
0.00700304
0.00310635
0.00643466
0.00296861
0.00584806
0.00306389
0.00522873
0.00322077
0.00455213
0.00349284
0.00380411
0.00380522
0.00298164
0.00413106
0.00207203
0.00447452
0.00106915
0.00480734
0.00504816
0.00840003
4.6354e-10
0.00840003
3.59289e-09
0.00840003
1.10461e-08
0.00840002
3.33249e-08
0.00840002
7.86219e-08
0.0084
2.11891e-07
0.00839997
4.64936e-07
0.00839982
1.29928e-06
0.00839964
2.70347e-06
0.00839863
8.38185e-06
0.00839714
1.78603e-05
0.00838765
6.53373e-05
0.0083759
0.000175678
0.00825161
0.000757093
0.00773232
0.0034354
0.0070956
0.0037442
0.00652313
0.00354168
0.00594874
0.00363794
0.00534802
0.00382107
0.00469486
0.00414546
0.00396669
0.00453272
0.00314611
0.00495111
0.00221744
0.00540227
0.00116366
0.0058599
0.00621077
0.00840003
4.88567e-10
0.00840003
3.78654e-09
0.00840003
1.16422e-08
0.00840003
3.51488e-08
0.00840002
8.2566e-08
0.0084
2.25677e-07
0.00839999
4.79316e-07
0.00839983
1.4337e-06
0.00839977
2.77328e-06
0.00839835
9.62817e-06
0.00839666
1.95727e-05
0.00838757
7.37212e-05
0.00836476
0.00019803
0.00828705
0.00083226
0.00791963
0.00379449
0.00726106
0.00440456
0.00668153
0.00412233
0.00611571
0.00420378
0.00553248
0.00440398
0.00489919
0.00477827
0.00419175
0.00523954
0.00338542
0.00575696
0.00244735
0.00633964
0.00133065
0.00697596
0.00754041
0.00840003
5.15792e-10
0.00840003
4.00537e-09
0.00840003
1.24238e-08
0.00840002
3.74294e-08
0.00840002
8.81897e-08
0.0084
2.41125e-07
0.00839997
5.07247e-07
0.00839982
1.55987e-06
0.00839974
2.86658e-06
0.00839848
1.07157e-05
0.00839735
2.07377e-05
0.00839131
7.9041e-05
0.00837769
0.000211098
0.00835057
0.00085722
0.00827983
0.00385602
0.00758181
0.00510506
0.00694944
0.00475589
0.0063802
0.00477291
0.00581909
0.00496477
0.00520809
0.00538894
0.00452278
0.00592442
0.00372665
0.00655253
0.00278602
0.00727958
0.00159578
0.00816561
0.00913533
0.00840003
4.58968e-10
0.00840003
4.73548e-09
0.00840003
1.36444e-08
0.00840002
4.2963e-08
0.00840001
9.72102e-08
0.00839998
2.70931e-07
0.00839991
5.75403e-07
0.00839981
1.63864e-06
0.00839946
3.20689e-06
0.00839923
1.07867e-05
0.00840016
1.98122e-05
0.00839882
7.96537e-05
0.00840894
0.000200506
0.00844633
0.000816443
0.00888222
0.00341111
0.00816521
0.00582537
0.00737675
0.00554606
0.00679435
0.00535529
0.00620862
0.00555012
0.00561975
0.00597743
0.00496132
0.00658248
0.00423691
0.00727664
0.00334684
0.00816917
0.00209369
0.009418
0.0112282
0.00840003
7.29875e-11
0.00840003
5.42683e-09
0.00840004
6.58187e-09
0.00840003
4.61258e-08
0.00840008
4.83679e-08
0.00840006
2.87804e-07
0.00840037
2.69187e-07
0.00840015
1.82579e-06
0.00840217
1.21017e-06
0.00839958
1.32231e-05
0.0084131
5.96814e-06
0.00839944
9.25748e-05
0.00850194
9.65373e-05
0.00870023
0.000623118
0.00991211
0.00218476
0.00912212
0.00661841
0.008051
0.00661961
0.00745072
0.00595703
0.00681663
0.00618391
0.00621987
0.00657328
0.00561234
0.00718912
0.0049536
0.00793462
0.00411956
0.00900267
0.00292002
0.0106172
0.0141477
0.00840003
9.48557e-10
0.00840003
1.59366e-09
0.00840002
1.46724e-08
0.00840005
1.73891e-08
0.0084
1.01787e-07
0.00840017
1.126e-07
0.00839981
6.17114e-07
0.00840098
6.53512e-07
0.00839822
3.90869e-06
0.00840787
3.50866e-06
0.00838555
2.84301e-05
0.00845594
2.18158e-05
0.00833494
0.000216477
0.00865045
0.000307382
0.00900976
0.00182142
0.00898076
0.00664308
0.00870449
0.00689486
0.00796205
0.00669971
0.00740124
0.00674659
0.00687854
0.00709604
0.00638962
0.0076777
0.00587456
0.00844887
0.00542509
0.00945118
0.00539026
0.0106512
0.0114426
0.00809482
0.00840003
4.89331e-10
0.00840003
2.72371e-09
0.00840003
9.2619e-09
0.00840002
2.6241e-08
0.00840006
6.6007e-08
0.0084
1.67939e-07
0.00840022
4.00175e-07
0.00839985
1.0075e-06
0.00840137
2.39252e-06
0.00839858
6.19859e-06
0.00841182
1.52316e-05
0.00839073
4.24253e-05
0.00849304
0.000113864
0.00837658
0.000423622
0.00890638
0.00128619
0.00909625
0.00644692
0.00874362
0.00724507
0.00826134
0.00718062
0.00781545
0.00719153
0.00738033
0.00753097
0.00700851
0.00804929
0.00671304
0.00874395
0.00659541
0.00956815
0.00697893
0.010267
0.0105035
0.00791763
0.00840003
4.00455e-10
0.00840003
3.10693e-09
0.00840003
9.44841e-09
0.00840003
2.86476e-08
0.00840002
6.77402e-08
0.00840001
1.81733e-07
0.0084
4.09957e-07
0.00839992
1.07232e-06
0.00839987
2.43311e-06
0.00839977
6.23822e-06
0.00840048
1.44991e-05
0.00840198
4.05721e-05
0.00841261
0.00010304
0.00846649
0.000368591
0.0086277
0.00112274
0.00912108
0.00594633
0.00886416
0.00750045
0.00852308
0.00751953
0.0081837
0.00752988
0.00786856
0.0078454
0.00758615
0.00833125
0.00744499
0.00888441
0.00756207
0.00944997
0.00798895
0.00983908
0.00988821
0.00860338
0.00840003
3.37339e-10
0.00840003
2.61152e-09
0.00840003
8.11194e-09
0.00840004
2.43095e-08
0.00840005
5.76431e-08
0.00840007
1.52036e-07
0.00840014
3.40436e-07
0.00840031
8.99737e-07
0.00840086
1.87684e-06
0.00840121
5.83397e-06
0.00840557
1.01421e-05
0.0084038
4.20271e-05
0.00842814
7.86341e-05
0.00843281
0.000362907
0.00858292
0.000971157
0.00938187
0.00514043
0.00914981
0.00773189
0.00879872
0.00786919
0.00852976
0.00779629
0.00832347
0.00805031
0.00817012
0.00848378
0.00812743
0.00892677
0.00825596
0.00932043
0.00860211
0.00949153
0.00940976
0.00907887
0.00840003
3.29568e-10
0.00840003
2.55347e-09
0.00840003
7.83594e-09
0.00840003
2.36189e-08
0.00840003
5.5908e-08
0.00840003
1.48603e-07
0.00840004
3.34147e-07
0.00840006
8.72088e-07
0.00840001
1.92726e-06
0.00840062
5.17941e-06
0.00839955
1.11879e-05
0.00840672
3.46135e-05
0.00841281
7.24711e-05
0.00848322
0.00029154
0.00867323
0.000779884
0.0101049
0.00370158
0.00965214
0.00818419
0.00926373
0.00825705
0.00891648
0.0081421
0.00873127
0.00823305
0.00865789
0.00855488
0.00868864
0.00889416
0.00882435
0.00918466
0.00907427
0.00924075
0.00904486
0.00943752
0.00840003
3.0138e-10
0.00840003
2.34092e-09
0.00840003
7.17355e-09
0.00840003
2.16751e-08
0.00840004
5.12944e-08
0.00840005
1.36855e-07
0.00840007
3.08157e-07
0.00840014
8.03397e-07
0.00840026
1.80263e-06
0.0084008
4.60678e-06
0.00840104
1.09305e-05
0.00840918
2.62827e-05
0.00840982
7.17248e-05
0.00850529
0.000195232
0.00868952
0.000595645
0.0100385
0.00234787
0.0101145
0.00810373
0.00982108
0.00854875
0.00934903
0.00861295
0.0091343
0.00844641
0.00907118
0.0086163
0.00911786
0.00884509
0.00927466
0.00902467
0.00947232
0.00904214
0.00879326
0.00972237
0.00840003
2.50007e-10
0.00840003
1.93934e-09
0.00840003
5.98615e-09
0.00840004
1.79949e-08
0.00840004
4.27291e-08
0.00840007
1.12872e-07
0.00840012
2.54696e-07
0.00840026
6.55072e-07
0.00840059
1.47131e-06
0.0084014
3.76449e-06
0.00840386
8.45733e-06
0.00840721
2.27694e-05
0.00842678
5.20014e-05
0.00845954
0.000161744
0.00858424
0.000470061
0.00911536
0.00181425
0.0100807
0.00712967
0.00995679
0.00866997
0.00972538
0.0088425
0.00950323
0.00866738
0.0094402
0.00867781
0.00947094
0.00881363
0.00960351
0.00888925
0.00978394
0.0088584
0.00861646
0.00995825
0.00840003
1.93565e-10
0.00840003
1.59033e-09
0.00840003
4.91561e-09
0.00840003
1.46365e-08
0.00840004
3.48941e-08
0.00840006
9.12213e-08
0.00840011
2.06258e-07
0.00840023
5.29786e-07
0.00840054
1.16356e-06
0.00840115
3.12847e-06
0.00840314
6.46658e-06
0.00840601
1.97319e-05
0.00841783
4.02026e-05
0.00843843
0.000140414
0.00853934
0.000368578
0.00887059
0.00148077
0.0101427
0.00584948
0.0101381
0.00867331
0.00998421
0.00899451
0.00978054
0.00886909
0.00974075
0.00871521
0.00978993
0.00876204
0.00989421
0.00878273
0.0100514
0.00869818
0.00847215
0.0101916
0.00840003
6.44472e-11
0.00840003
1.61791e-09
0.00840003
2.87272e-09
0.00840003
1.40857e-08
0.00840005
2.10976e-08
0.00840005
8.68491e-08
0.00840013
1.24656e-07
0.00840016
5.02485e-07
0.00840062
6.92918e-07
0.00840075
2.98219e-06
0.00840363
3.58291e-06
0.00840352
1.97029e-05
0.00842414
1.95635e-05
0.0084252
0.000138668
0.00858168
0.000211464
0.00899165
0.00106866
0.0109761
0.00385523
0.0107209
0.00892716
0.0105422
0.00917283
0.0102515
0.00915875
0.0100663
0.00889831
0.0100557
0.00876959
0.0101297
0.00870517
0.0102541
0.00856985
0.00832673
0.0103939
0.00840003
1.61839e-10
0.00840003
9.1967e-10
0.00840003
3.43848e-09
0.00840004
8.75188e-09
0.00840003
2.43369e-08
0.00840006
5.51479e-08
0.00840004
1.45178e-07
0.00840022
3.21043e-07
0.00840007
8.3879e-07
0.0084012
1.85357e-06
0.00839991
4.82808e-06
0.00840847
1.11329e-05
0.0083992
2.85838e-05
0.00846417
7.35664e-05
0.00846433
0.000210265
0.00889929
0.000633469
0.0103096
0.0024397
0.0111344
0.00809601
0.0109621
0.00934277
0.0106888
0.00942983
0.0104545
0.00913077
0.0103649
0.00885568
0.0103756
0.00869055
0.0104395
0.00850067
0.00820579
0.0105546
0.00840003
1.93385e-10
0.00840003
5.59877e-10
0.00840003
3.28653e-09
0.00840003
5.73542e-09
0.00840003
2.27483e-08
0.00840005
3.6487e-08
0.00840006
1.34399e-07
0.00840017
2.10708e-07
0.00840023
7.72287e-07
0.0084009
1.18509e-06
0.00840115
4.54409e-06
0.00840583
6.43316e-06
0.00840488
2.93444e-05
0.00844081
3.74991e-05
0.00844697
0.000203234
0.00869555
0.000383846
0.00945947
0.00167293
0.0110574
0.00648675
0.0111049
0.0092921
0.0109954
0.00953632
0.0107576
0.00936552
0.0106602
0.00894957
0.0106521
0.00869295
0.0106745
0.00847176
0.00815587
0.0107177
0.00840003
6.93056e-11
0.00840003
7.67943e-10
0.00840003
1.75011e-09
0.00840003
6.92059e-09
0.00840004
1.26565e-08
0.00840003
4.33058e-08
0.00840009
7.59483e-08
0.00840005
2.52453e-07
0.00840038
4.3789e-07
0.0084001
1.457e-06
0.00840214
2.50083e-06
0.00839987
8.62796e-06
0.00841507
1.41336e-05
0.00839677
5.53664e-05
0.00850881
9.10476e-05
0.00846891
0.000422114
0.00913855
0.00100097
0.0115515
0.00406089
0.0115423
0.00929627
0.0113956
0.00968081
0.0111694
0.00958892
0.010938
0.00917688
0.0108933
0.00873124
0.0109205
0.00843552
0.00814853
0.0109193
0.00840003
9.4833e-11
0.00840003
3.66476e-10
0.00840003
1.82165e-09
0.00840003
3.61781e-09
0.00840003
1.27508e-08
0.00840005
2.29978e-08
0.00840005
7.57905e-08
0.00840017
1.33854e-07
0.00840017
4.37098e-07
0.00840087
7.568e-07
0.00840077
2.57121e-06
0.00840528
4.11584e-06
0.00840334
1.59273e-05
0.00843598
2.27094e-05
0.00842176
0.00010453
0.00867413
0.000169332
0.00885153
0.000821287
0.0106207
0.00228606
0.0119612
0.00794478
0.0118688
0.00976761
0.011601
0.00985205
0.0112807
0.00949234
0.0111544
0.00885088
0.0111202
0.00845909
0.00813943
0.011115
0.00840003
3.11656e-11
0.00840003
3.82996e-10
0.00840003
8.4306e-10
0.00840003
3.42979e-09
0.00840004
6.09406e-09
0.00840004
2.12216e-08
0.00840008
3.6047e-08
0.00840009
1.21736e-07
0.00840032
2.0323e-07
0.00840037
6.97947e-07
0.00840183
1.11629e-06
0.00840169
4.20736e-06
0.0084114
6.202e-06
0.00840674
2.70886e-05
0.00847202
3.91658e-05
0.00844846
0.000191597
0.00889447
0.000374167
0.00948537
0.00169091
0.0116724
0.00574434
0.0119826
0.00945108
0.0120099
0.00981833
0.0118265
0.00966758
0.0114974
0.00917182
0.0113591
0.00858304
0.00815085
0.0113277
0.00840003
3.80342e-11
0.00840003
2.1685e-10
0.00840003
8.08178e-10
0.00840003
2.06285e-09
0.00840003
5.69889e-09
0.00840004
1.29323e-08
0.00840004
3.37009e-08
0.00840009
7.44907e-08
0.0084001
1.92043e-07
0.00840037
4.22778e-07
0.00840038
1.08875e-06
0.00840216
2.42158e-06
0.00840196
6.30756e-06
0.00841474
1.42842e-05
0.00841357
3.97807e-05
0.00851249
9.24533e-05
0.0085818
0.000302615
0.00942051
0.000848566
0.0119005
0.00324776
0.0123886
0.00895524
0.0122701
0.00992884
0.012104
0.00982215
0.011882
0.0093793
0.0116965
0.00874791
0.00818638
0.0116315
0.00840003
4.12665e-11
0.00840003
1.31587e-10
0.00840003
7.16986e-10
0.00840003
1.33298e-09
0.00840003
4.96596e-09
0.00840004
8.47165e-09
0.00840004
2.92723e-08
0.00840007
4.90283e-08
0.00840009
1.67055e-07
0.00840023
2.7759e-07
0.00840036
9.51082e-07
0.00840121
1.56186e-06
0.00840193
5.51339e-06
0.00840746
8.69064e-06
0.00841267
3.42058e-05
0.00845322
5.13851e-05
0.00852194
0.000231904
0.00887517
0.000495909
0.0101854
0.00192911
0.0122067
0.00691839
0.0123337
0.00979089
0.0124292
0.00970366
0.0122452
0.00953896
0.0120578
0.00890812
0.00821609
0.0119826
0.00840003
1.45609e-11
0.00840003
1.52603e-10
0.00840003
3.61582e-10
0.00840003
1.37835e-09
0.00840003
2.6069e-09
0.00840003
8.58918e-09
0.00840005
1.55739e-08
0.00840004
4.96828e-08
0.00840012
8.93172e-08
0.00840011
2.8335e-07
0.00840055
5.07561e-07
0.00840047
1.61981e-06
0.0084031
2.86984e-06
0.00840213
9.53842e-06
0.00842019
1.60779e-05
0.00841028
6.05437e-05
0.00853944
0.000102224
0.00858225
0.000450055
0.00940535
0.00110194
0.0121934
0.00410617
0.0126402
0.00932801
0.0123894
0.00992766
0.0123837
0.00950997
0.012284
0.00896365
0.0081839
0.0122672
0.00840003
1.83928e-11
0.00840003
6.79085e-11
0.00840003
3.41535e-10
0.00840003
6.76244e-10
0.00840003
2.38005e-09
0.00840004
4.28956e-09
0.00840004
1.40332e-08
0.00840006
2.48317e-08
0.00840007
7.99052e-08
0.00840021
1.40641e-07
0.00840026
4.52716e-07
0.00840108
7.89581e-07
0.0084013
2.61092e-06
0.00840647
4.33379e-06
0.00840631
1.59732e-05
0.00844286
2.3825e-05
0.00843823
0.00010538
0.00871539
0.000171691
0.00899391
0.000817656
0.0108741
0.00221593
0.012742
0.00742059
0.0126892
0.00995062
0.0125995
0.00955214
0.0126593
0.00883554
0.00797245
0.0127929
0.00840003
8.3655e-12
0.00840003
5.94517e-11
0.00840003
1.84883e-10
0.00840003
5.53371e-10
0.00840003
1.31176e-09
0.00840003
3.4408e-09
0.00840004
7.72446e-09
0.00840004
1.96507e-08
0.00840008
4.35499e-08
0.00840011
1.10012e-07
0.00840032
2.4265e-07
0.00840047
6.18207e-07
0.00840173
1.33946e-06
0.00840234
3.62273e-06
0.0084109
7.37287e-06
0.00841139
2.27214e-05
0.00847176
4.46455e-05
0.00848333
0.00015718
0.00892522
0.000371719
0.00957855
0.00155152
0.0123704
0.00459179
0.0129064
0.00936232
0.0129478
0.00943911
0.013057
0.00862814
0.0077003
0.0132463
0.00840003
2.92893e-12
0.00840003
5.07477e-11
0.00840003
1.04696e-10
0.00840003
4.46221e-10
0.00840003
7.62643e-10
0.00840003
2.74506e-09
0.00840003
4.52387e-09
0.00840004
1.56934e-08
0.00840006
2.56113e-08
0.00840007
8.83583e-08
0.00840017
1.43111e-07
0.00840028
4.975e-07
0.00840081
7.90726e-07
0.00840149
2.85066e-06
0.00840451
4.22692e-06
0.00840938
1.73445e-05
0.00843085
2.21865e-05
0.00847242
0.000112886
0.0086682
0.000170969
0.00937774
0.000827854
0.0115569
0.00237569
0.0130757
0.00777352
0.0133758
0.00901765
0.0135938
0.00830608
0.00733567
0.0138929
0.00840003
4.1001e-12
0.00840003
2.37158e-11
0.00840003
8.72569e-11
0.00840003
2.25768e-10
0.00840003
6.12384e-10
0.00840003
1.40403e-09
0.00840003
3.57264e-09
0.00840004
7.9841e-09
0.00840004
1.99854e-08
0.00840009
4.44272e-08
0.00840011
1.10742e-07
0.00840035
2.45867e-07
0.00840048
6.17291e-07
0.00840193
1.34912e-06
0.00840232
3.56998e-06
0.00841201
7.33375e-06
0.00841076
2.18695e-05
0.00847797
4.39119e-05
0.00849029
0.000149996
0.00893218
0.000373899
0.00971734
0.001552
0.0125185
0.00484261
0.0133619
0.00802021
0.0138517
0.00774785
0.00683192
0.0142953
0.00840003
4.16605e-12
0.00840003
1.11933e-11
0.00840003
6.94073e-11
0.00840003
1.14868e-10
0.00840003
4.74957e-10
0.00840003
7.2009e-10
0.00840003
2.75528e-09
0.00840004
4.05898e-09
0.00840004
1.53785e-08
0.00840006
2.21535e-08
0.00840008
8.49076e-08
0.0084002
1.18647e-07
0.0084003
4.68189e-07
0.00840097
6.16657e-07
0.00840154
2.66735e-06
0.00840558
2.94517e-06
0.00840901
1.66802e-05
0.00843504
1.40952e-05
0.00847176
0.000106782
0.00868838
0.000137629
0.00955086
0.000674692
0.0119203
0.0023334
0.0131156
0.0065854
0.0139664
0.006876
0.00645542
0.0143384
0.00840003
6.38874e-13
0.00840003
1.24549e-11
0.00840003
2.11799e-11
0.00840003
1.08961e-10
0.00840003
1.52844e-10
0.00840003
6.64797e-10
0.00840003
8.81248e-10
0.00840003
3.74503e-09
0.00840004
4.78626e-09
0.00840004
2.07042e-08
0.00840009
2.54203e-08
0.00840007
1.14312e-07
0.00840037
1.33187e-07
0.00840016
6.43051e-07
0.00840199
6.67964e-07
0.00840019
3.9199e-06
0.00841232
3.03218e-06
0.00839582
2.67804e-05
0.00847969
1.52214e-05
0.00841299
0.000185307
0.00886178
0.000201905
0.00979402
0.00129565
0.0115169
0.00459544
0.0128781
0.00553565
0.00570949
0.0136709
0.00840003
7.31974e-13
0.00840003
5.70674e-12
0.00840003
1.92692e-11
0.00840003
5.30979e-11
0.00840003
1.36587e-10
0.00840003
3.29312e-10
0.00840003
7.98504e-10
0.00840003
1.87345e-09
0.00840003
4.45792e-09
0.00840004
1.04337e-08
0.00840003
2.45557e-08
0.00840007
5.7828e-08
0.00840001
1.34253e-07
0.00840026
3.23838e-07
0.00839984
7.19771e-07
0.00840149
1.88245e-06
0.00839885
3.75231e-06
0.00841153
1.12843e-05
0.00839591
2.18292e-05
0.00849259
7.35174e-05
0.00844592
0.00020937
0.00899422
0.000647248
0.0100994
0.00320967
0.0113771
0.00432861
0.00486577
0.0123083
0.00840003
9.42866e-13
0.00840003
4.31429e-12
0.00840003
1.69078e-11
0.00840003
4.17494e-11
0.00840003
1.18967e-10
0.00840003
2.65566e-10
0.00840003
7.14391e-10
0.00840003
1.56227e-09
0.00840003
4.17046e-09
0.00840003
9.09384e-09
0.00840002
2.42595e-08
0.00840001
5.26478e-08
0.00839994
1.3874e-07
0.00839988
3.02842e-07
0.00839944
7.54462e-07
0.00839927
1.65538e-06
0.00839692
4.06786e-06
0.0083979
7.05804e-06
0.00838549
2.59201e-05
0.0084034
3.89017e-05
0.00839149
0.000183962
0.00845816
0.000486262
0.0088643
0.00251019
0.00982622
0.00346371
0.00397802
0.0108046
0.00840003
1.49299e-12
0.00840003
1.03904e-12
0.00840003
1.95917e-11
0.00840003
1.4478e-11
0.00840003
1.33473e-10
0.00840003
9.73068e-11
0.00840003
7.95137e-10
0.00840003
5.72921e-10
0.00840003
4.63519e-09
0.00840003
3.26424e-09
0.00840002
2.71431e-08
0.00840004
1.78461e-08
0.00839995
1.65398e-07
0.00840011
7.66061e-08
0.00839935
1.11995e-06
0.00840037
1.52515e-08
0.00839477
7.7863e-06
0.00840315
-4.2292e-06
0.00836744
5.25285e-05
0.00842501
-3.14415e-05
0.00825913
0.000309786
0.00835465
0.000300169
0.00812559
0.00244575
0.00870839
0.00301338
0.00331832
0.00945859
0.00840003
3.29364e-13
0.00840003
2.40078e-12
0.00840003
7.36175e-12
0.00840003
2.22226e-11
0.00840003
5.22716e-11
0.00840003
1.39144e-10
0.00840003
3.10706e-10
0.00840003
8.06553e-10
0.00840003
1.77811e-09
0.00840003
4.61339e-09
0.00840004
1.01348e-08
0.00840001
2.69522e-08
0.0084001
5.65336e-08
0.00839988
1.67854e-07
0.00840056
3.15924e-07
0.00839876
1.0515e-06
0.00840383
2.01879e-06
0.00838888
6.27203e-06
0.00842311
1.36924e-05
0.00832349
4.71836e-05
0.00848594
0.000126174
0.00816895
0.000540378
0.00784578
0.00244731
0.008181
0.00283949
0.00283851
0.00875371
0.00840003
-2.85865e-13
0.00840003
3.36928e-12
0.00840003
1.15236e-12
0.00840003
2.71036e-11
0.00840003
1.09824e-11
0.00840003
1.67988e-10
0.00840003
7.1806e-11
0.00840003
9.97618e-10
0.00840003
4.46268e-10
0.00840003
5.95811e-09
0.00840003
2.62749e-09
0.0084
3.67962e-08
0.00840003
1.31379e-08
0.00839983
2.57978e-07
0.00840007
-2.19473e-08
0.0083984
2.01811e-06
0.00840057
-7.50107e-07
0.00838799
1.46236e-05
0.00840145
-4.60219e-06
0.00832118
0.000106146
0.00837442
5.37587e-05
0.00819036
0.000650003
0.00786844
0.00240903
0.00811615
0.00278344
0.00251684
0.00854098
0.00840003
7.02045e-13
0.00840003
-1.41222e-13
0.00840003
8.39587e-12
0.00840003
2.20724e-12
0.00840003
5.77069e-11
0.00840003
2.10734e-11
0.00840003
3.5339e-10
0.00840003
1.43823e-10
0.00840003
2.11318e-09
0.00840003
9.39535e-10
0.00840002
1.25957e-08
0.00840005
5.30346e-09
0.00839997
7.87355e-08
0.00840022
1.65123e-08
0.00839938
5.89588e-07
0.00840151
-1.00196e-07
0.00839483
4.73848e-06
0.00840891
-1.15061e-06
0.00836274
3.42776e-05
0.00845503
1.49392e-06
0.00822169
0.000249337
0.00843541
0.000362047
0.00790154
0.00258786
0.00808641
0.00281801
0.00226107
0.00845181
0.00840003
1.38858e-13
0.00840003
1.00519e-12
0.00840003
3.10808e-12
0.00840003
9.33427e-12
0.00840003
2.22221e-11
0.00840003
5.99132e-11
0.00840003
1.35148e-10
0.00840003
3.59961e-10
0.00840003
7.97325e-10
0.00840003
2.14925e-09
0.00840003
4.72857e-09
0.00840001
1.30816e-08
0.00840005
2.82934e-08
0.00839989
8.4051e-08
0.00840023
1.73519e-07
0.00839891
5.88129e-07
0.00840181
1.33163e-06
0.00839226
4.61232e-06
0.00841129
1.08163e-05
0.00835288
3.99167e-05
0.00845959
0.000115734
0.00821759
0.000497568
0.00824265
0.00222201
0.00855357
0.00272879
0.00217645
0.00874495
0.00840003
-3.4118e-13
0.00840003
2.38992e-12
0.00840003
-5.23968e-13
0.00840003
1.85055e-11
0.00840003
-1.0939e-12
0.00840003
1.12644e-10
0.00840003
-3.42894e-12
0.00840003
6.57391e-10
0.00840003
-1.92339e-11
0.00840003
3.82677e-09
0.00840003
-1.79599e-10
0.00840001
2.25032e-08
0.00840004
-2.14166e-09
0.00839994
1.4015e-07
0.00840009
-4.74048e-08
0.00839918
1.07702e-06
0.00840106
-8.26102e-07
0.00839287
9.52733e-06
0.0084065
-6.02153e-06
0.0083582
6.91566e-05
0.00841484
2.75299e-05
0.00841777
0.000416438
0.00881151
0.00147731
0.00908013
0.00259605
0.00227582
0.00903474
0.00840003
3.32791e-13
0.00840003
1.14772e-14
0.00840003
4.6536e-12
0.00840003
1.67315e-12
0.00840003
3.17887e-11
0.00840003
1.34509e-11
0.00840003
1.93842e-10
0.00840003
9.29883e-11
0.00840003
1.16924e-09
0.00840003
6.1805e-10
0.00840002
7.1266e-09
0.00840004
3.83e-09
0.00839997
4.46009e-08
0.00840006
2.10794e-08
0.00839956
3.09535e-07
0.00840043
3.4353e-08
0.00839643
2.27959e-06
0.0084053
-3.53006e-07
0.00837715
1.68105e-05
0.00843582
3.12612e-06
0.00831758
0.000120524
0.00851628
0.000159528
0.00864508
0.00108695
0.00871984
0.00249543
0.00217513
0.0088067
0.00840003
-4.68191e-13
0.00840003
1.18448e-12
0.00840003
-3.92322e-12
0.00840003
8.0514e-12
0.00840003
-2.47278e-11
0.00840003
4.59824e-11
0.00840003
-1.48792e-10
0.00840003
2.50356e-10
0.00840003
-9.01723e-10
0.00840003
1.33872e-09
0.00840004
-5.53978e-09
0.00840003
7.30286e-09
0.00840011
-3.45339e-08
0.00840004
4.94999e-08
0.00840055
-2.3148e-07
0.00839986
4.7437e-07
0.0084034
-1.49975e-06
0.00839642
5.12555e-06
0.00841947
-8.65674e-06
0.00836969
4.40124e-05
0.00848227
-1.19814e-05
0.00839915
0.000220533
0.00875545
0.000537608
0.00896633
0.002151
0.00219544
0.00893278
0.00840003
5.76966e-14
0.00840003
2.79025e-13
0.00840003
1.02373e-12
0.00840003
2.47028e-12
0.00840003
7.07027e-12
0.00840003
1.55356e-11
0.00840003
4.22718e-11
0.00840003
9.02604e-11
0.00840003
2.40639e-10
0.00840003
5.07235e-10
0.00840002
1.32681e-09
0.00840002
2.85499e-09
0.00839997
7.16562e-09
0.00839998
1.97432e-08
0.00839964
3.16054e-08
0.00839985
1.60748e-07
0.00839754
2.69579e-07
0.00840103
1.11745e-06
0.00838522
3.82509e-06
0.00841599
9.4694e-06
0.00834573
4.15337e-05
0.00844769
0.000105615
0.00833213
0.000520357
0.00847376
0.00186239
0.00201474
0.00864758
0.00840003
6.85052e-13
0.00840003
-1.55285e-12
0.00840003
5.99471e-12
0.00840003
-9.44208e-12
0.00840003
3.92205e-11
0.00840003
-5.14023e-11
0.00840003
2.36596e-10
0.00840003
-2.75475e-10
0.00840003
1.41403e-09
0.00840003
-1.46208e-09
0.00840002
8.5007e-09
0.00840003
-7.73224e-09
0.00839997
5.18451e-08
0.00840002
-4.17358e-08
0.00839965
3.25632e-07
0.00840002
-2.78167e-07
0.00839751
2.36912e-06
0.00840132
-3.23689e-06
0.00838219
2.04008e-05
0.00841504
-2.71893e-05
0.00831157
0.000131036
0.00838637
1.68094e-05
0.00818466
0.000617005
0.00820374
0.00169536
0.00174863
0.00842705
0.00840003
1.85707e-13
0.00840003
-8.3292e-14
0.00840003
1.95333e-12
0.00840003
4.66927e-13
0.00840003
1.34093e-11
0.00840003
5.52424e-12
0.00840003
8.20331e-11
0.00840003
4.55672e-11
0.00840003
4.88965e-10
0.00840003
3.23535e-10
0.00840003
2.8947e-09
0.00840002
2.10452e-09
0.00840005
1.71442e-08
0.00839998
1.29602e-08
0.00840018
1.02518e-07
0.00839971
7.29427e-08
0.00840126
6.58111e-07
0.00839693
1.86834e-07
0.00841169
5.15049e-06
0.00837968
1.61786e-08
0.00846169
3.87719e-05
0.00839501
6.59345e-05
0.00857275
0.000340895
0.00878356
0.00134912
0.00143497
0.00903707
0.00840003
-5.70003e-14
0.00840003
9.96114e-13
0.00840003
1.55593e-12
0.00840003
8.42566e-12
0.00840003
1.24365e-11
0.00840003
5.26684e-11
0.00840003
7.90788e-11
0.00840003
3.14167e-10
0.00840003
4.85188e-10
0.00840003
1.86167e-09
0.00840003
2.93894e-09
0.00840001
1.09998e-08
0.00840001
1.70913e-08
0.00839993
6.52974e-08
0.00839993
8.49109e-08
0.00839947
3.95525e-07
0.00839978
1.83414e-07
0.0083967
2.38041e-06
0.00840184
-8.10472e-07
0.00838226
1.4845e-05
0.00841625
-3.05173e-06
0.00838655
7.72295e-05
0.00845066
0.000197324
0.00875769
0.000922013
0.000986312
0.00912352
0.00840003
-2.8749e-13
0.00840003
2.08049e-12
0.00840003
-4.57025e-13
0.00840003
1.58759e-11
0.00840003
-9.67599e-13
0.00840003
9.70561e-11
0.00840003
-1.22409e-15
0.00840003
5.7347e-10
0.00840003
2.61839e-11
0.00840003
3.38385e-09
0.00840003
2.64574e-10
0.00840002
2.00455e-08
0.00840003
1.07274e-09
0.00839995
1.22112e-07
0.00840004
-2.06111e-08
0.0083995
8.05139e-07
0.00840019
-6.49691e-07
0.0083963
5.44631e-06
0.00840341
-8.73119e-06
0.00837825
3.55545e-05
0.00842228
-5.47614e-05
0.00835106
0.000130676
0.00846145
1.37963e-05
0.0087487
0.000504884
0.000629966
0.00906134
0.00840003
3.74483e-13
0.00840003
-1.40503e-12
0.00840003
2.64366e-12
0.00840003
-9.69667e-12
0.00840003
1.60095e-11
0.00840003
-5.83292e-11
0.00840003
8.86442e-11
0.00840003
-3.48373e-10
0.00840003
4.78499e-10
0.00840004
-2.10257e-09
0.00840003
2.57766e-09
0.00840006
-1.28521e-08
0.00840004
1.49682e-08
0.00840023
-8.24218e-08
0.00840003
1.15552e-07
0.00840131
-5.9273e-07
0.00839908
1.19791e-06
0.00840834
-4.33134e-06
0.00838544
1.15571e-05
0.00844767
-2.90316e-05
0.00830535
7.44954e-05
0.00851523
-7.4033e-05
0.0082383
0.000214515
0.00821098
0.000394455
0.000292885
0.00851504
0.00840003
0.00840003
0.00840003
0.00840003
0.00840003
0.00840003
0.00840003
0.00840003
0.00840003
0.00840003
0.00840003
0.00840001
0.00840003
0.00839992
0.00840002
0.00839929
0.00840035
0.00839518
0.00840593
0.00837238
0.00843927
0.00834699
0.00849229
0.00874838
0.00902241
0.00374507
0.00434995
0.0014456
0.00230022
-0.000675926
0.00212552
-0.00159418
0.000921312
-0.00222144
0.000629421
-0.00254549
0.000326794
-0.00265045
0.000107395
-0.00277026
0.000121504
-0.00291436
0.000144605
-0.00303571
0.000121351
-0.00311076
7.5048e-05
-0.00315058
3.7723e-05
-0.00318284
2.86387e-05
-0.0032096
2.28703e-05
-0.0032085
-7.02016e-06
-0.00317838
-3.70165e-05
-0.0031267
-5.88815e-05
-0.00304998
-8.30012e-05
-0.00295558
-0.000100877
-0.00284976
-0.000111612
-0.00273445
-0.000120734
-0.00261116
-0.000128514
-0.00247953
-0.000136242
-0.00233975
-0.000144318
-0.00219104
-0.000153043
-0.00203333
-0.000161785
-0.0018653
-0.000171434
-0.00168859
-0.000180137
-0.00149963
-0.000192583
-0.00130385
-0.00019888
-0.00110338
-0.000203107
-0.000899684
-0.000206393
-0.000692943
-0.000209388
-0.000483927
-0.000211526
-0.00027121
-0.00021508
-5.08214e-05
-0.000222374
0.000172348
-0.000225199
0.00038819
-0.000217505
0.000596662
-0.000209717
0.000799766
-0.000204268
0.000997666
-0.000198271
0.00119088
-0.000193161
0.00137636
-0.000185194
0.00155604
-0.000179225
0.00173216
-0.000175291
0.001908
-0.0001747
0.0020778
-0.000168602
0.00224225
-0.000162897
0.00239974
-0.000156431
0.00255152
-0.000150674
0.00269746
-0.000144577
0.0028379
-0.000139041
0.00297266
-0.000133151
0.00310217
-0.000127758