/*--------------------------------*- C++ -*----------------------------------*\
| =========                 |                                                 |
| \\      /  F ield         | OpenFOAM: The Open Source CFD Toolbox           |
|  \\    /   O peration     | Version:  2412                                  |
|   \\  /    A nd           | Website:  www.openfoam.com                      |
|    \\/     M anipulation  |                                                 |
\*---------------------------------------------------------------------------*/
FoamFile
{
    version     2.0;
    format      ascii;
    arch        "LSB;label=32;scalar=64";
    class       volScalarField;
    location    "9";
    object      T;
}
// * * * * * * * * * * * * * * * * * * * * * * * * * * * * * * * * * * * * * //

dimensions      [0 0 0 1 0 0 0];

internalField   nonuniform List<scalar> 
5250
(
1.00001
1.00002
1.00009
1.00016
1.00051
1.00094
1.00284
1.0057
1.01522
1.03839
1.0878
1.26127
1.66647
2.46421
2.72033
2.72538
2.7253
2.7308
2.74427
2.75794
2.77051
2.77856
2.78599
2.79092
2.79488
1.00001
1.00002
1.00009
1.00016
1.0005
1.00092
1.00279
1.00564
1.01492
1.03811
1.08659
1.25941
1.65594
2.45781
2.71785
2.72534
2.72519
2.73057
2.74383
2.75725
2.76953
2.77741
2.78459
2.78857
2.79214
1.00001
1.00002
1.00008
1.00015
1.00049
1.0009
1.00269
1.0055
1.01442
1.03735
1.08439
1.25516
1.6359
2.44156
2.71109
2.72428
2.724
2.72909
2.74214
2.75515
2.7673
2.77444
2.782
2.78608
2.78815
1.00001
1.00002
1.00008
1.00015
1.00047
1.00086
1.00254
1.0053
1.01367
1.03615
1.08104
1.24843
1.60556
2.4148
2.69986
2.72244
2.72187
2.72595
2.73902
2.75089
2.76347
2.77038
2.77549
2.7805
2.78358
1.00001
1.00002
1.00007
1.00014
1.00044
1.00081
1.00238
1.00502
1.01283
1.03427
1.07643
1.23844
1.56534
2.37467
2.68357
2.71987
2.71872
2.72085
2.73336
2.74421
2.75559
2.76457
2.77021
2.77269
2.77335
1.00001
1.00002
1.00007
1.00013
1.00041
1.00076
1.00221
1.00468
1.0119
1.03192
1.07084
1.22262
1.51301
2.31724
2.65994
2.71678
2.71489
2.71509
2.72696
2.73682
2.7457
2.75152
2.75792
2.76186
2.7641
1.00001
1.00002
1.00006
1.00012
1.00037
1.00069
1.00203
1.00429
1.01096
1.02919
1.06524
1.20273
1.46628
2.24255
2.62819
2.71234
2.70912
2.70683
2.71787
2.72814
2.73767
2.74258
2.74605
2.74647
2.74439
1.00001
1.00002
1.00006
1.00011
1.00034
1.00063
1.00187
1.00384
1.01001
1.02585
1.05875
1.17914
1.41111
2.13716
2.58558
2.70534
2.70223
2.69523
2.70576
2.7121
2.71991
2.72295
2.72713
2.72616
2.72259
1.00001
1.00001
1.00005
1.0001
1.00031
1.00056
1.00171
1.00336
1.00911
1.02205
1.05171
1.15331
1.35095
2.00545
2.53015
2.69156
2.68895
2.68218
2.69446
2.69975
2.70691
2.70617
2.70302
2.69481
2.67378
1.00001
1.00001
1.00004
1.00008
1.00026
1.00048
1.00143
1.00286
1.0076
1.01857
1.04352
1.12714
1.28754
1.80158
2.46774
2.66398
2.66148
2.65425
2.66866
2.67264
2.67851
2.68013
2.67156
2.64986
2.6005
1
1.00001
1.00003
1.00009
1.00018
1.00055
1.00104
1.00303
1.00631
1.01653
1.04186
1.09753
1.27396
1.77442
2.41314
2.64654
2.63793
2.64203
2.65033
2.65719
2.65465
2.64825
2.62898
2.5815
2.42344
1
1.00001
1.00003
1.00006
1.0002
1.00037
1.00114
1.00217
1.00623
1.01342
1.03426
1.09307
1.21042
1.61385
2.41343
2.59906
2.6106
2.61337
2.61766
2.63063
2.63013
2.617
2.58329
2.52535
2.36741
1
1.00001
1.00003
1.00006
1.00018
1.00032
1.00102
1.00186
1.00567
1.01126
1.03042
1.0771
1.17712
1.52299
2.30847
2.56186
2.60866
2.60047
2.5934
2.59796
2.598
2.58619
2.54785
2.49241
2.36973
1
1.00001
1.00003
1.00005
1.00015
1.00027
1.00084
1.00155
1.00455
1.00948
1.02444
1.06511
1.14462
1.44275
2.13916
2.50078
2.60376
2.59202
2.58006
2.56694
2.56073
2.54741
2.51708
2.47313
2.37792
1
1.00001
1.00002
1.00004
1.00013
1.00023
1.00072
1.0013
1.00403
1.00767
1.0218
1.04954
1.12151
1.33504
1.9422
2.40378
2.58364
2.57482
2.56811
2.55194
2.53342
2.51547
2.47761
2.44666
2.37823
1
1
1.00002
1.00003
1.0001
1.00018
1.00058
1.00105
1.00326
1.00615
1.01787
1.03819
1.10001
1.24951
1.74508
2.31195
2.54497
2.54381
2.54014
2.53127
2.51245
2.49516
2.45514
2.41442
2.36959
1
1
1.00001
1.00003
1.00008
1.00014
1.00046
1.00082
1.00253
1.00487
1.01335
1.03151
1.07419
1.21382
1.52307
2.22729
2.50847
2.5269
2.51468
2.50693
2.48806
2.46956
2.44423
2.39606
2.35602
1
1
1.00001
1.00002
1.00006
1.00011
1.00035
1.00064
1.00195
1.00383
1.01029
1.02485
1.05795
1.17134
1.39147
2.03573
2.43231
2.51369
2.49978
2.49185
2.47394
2.44551
2.42116
2.38346
2.3365
1
1
1.00001
1.00002
1.00005
1.00009
1.00027
1.0005
1.00151
1.00292
1.00798
1.01852
1.04433
1.12711
1.28655
1.79461
2.29726
2.47883
2.47782
2.46976
2.45922
2.43504
2.40903
2.37579
2.33215
1
1
1
1.00002
1.00003
1.00009
1.00016
1.0005
1.00093
1.0028
1.00547
1.01532
1.03387
1.08699
1.21594
1.63702
2.17705
2.43447
2.44938
2.44281
2.42923
2.41196
2.39081
2.36794
2.33303
1
1
1
1.00001
1.00002
1.00007
1.00012
1.00037
1.00068
1.00209
1.00402
1.01106
1.02555
1.06109
1.17059
1.4193
1.99171
2.35784
2.433
2.42961
2.41766
2.39507
2.37112
2.34771
2.32866
1
1
1
1.00001
1.00002
1.00004
1.00012
1.00022
1.00066
1.00123
1.00366
1.00735
1.01971
1.04734
1.11389
1.30561
1.86684
2.20487
2.37266
2.40193
2.40002
2.38915
2.36772
2.33908
2.3173
1
1
1
1.00001
1.00001
1.00003
1.00006
1.00019
1.00036
1.00107
1.00208
1.00573
1.01273
1.03143
1.08536
1.18981
1.53598
2.17116
2.32404
2.35003
2.35798
2.35918
2.35507
2.33889
2.31843
1
1
1
1
1.00001
1.00002
1.00006
1.00011
1.00031
1.00061
1.00166
1.00368
1.00898
1.02396
1.05327
1.15764
1.35634
1.91888
2.27491
2.34482
2.34117
2.33663
2.3293
2.32783
2.32158
1
1
1
1
1.00001
1.00002
1.00003
1.0001
1.00018
1.00056
1.00105
1.00312
1.00617
1.01688
1.03855
1.09434
1.24536
1.67244
2.13867
2.32572
2.3266
2.3254
2.31524
2.31352
2.3179
1
1
1
1
1
1.00001
1.00002
1.00007
1.00013
1.0004
1.00074
1.00226
1.00427
1.01225
1.02623
1.06615
1.16766
1.44929
1.95137
2.2693
2.32287
2.32219
2.31985
2.3169
2.32596
1
1
1
1
1
1.00001
1.00002
1.00004
1.00012
1.00022
1.00066
1.00123
1.00364
1.00726
1.0195
1.04623
1.11064
1.29542
1.81201
2.13018
2.29063
2.31677
2.32235
2.33434
2.34683
1
1
1
1
1
1.00001
1.00001
1.00003
1.00006
1.00019
1.00035
1.00103
1.00198
1.00549
1.01197
1.02971
1.07928
1.17531
1.4922
2.07112
2.24798
2.30393
2.33354
2.35589
2.37997
1
1
1
1
1
1
1.00001
1.00002
1.00005
1.0001
1.0003
1.00056
1.00163
1.00331
1.00859
1.02096
1.04849
1.13827
1.30772
1.82644
2.18673
2.31723
2.36622
2.39978
2.42182
1
1
1
1
1
1
1.00001
1.00001
1.00004
1.00007
1.00022
1.0004
1.00122
1.00225
1.00672
1.0133
1.03575
1.08417
1.21186
1.51994
2.11464
2.31929
2.40647
2.43982
2.44611
1
1
1
1
1
1
1
1.00001
1.00002
1.00006
1.00012
1.00036
1.00066
1.00195
1.00388
1.01033
1.0247
1.05795
1.16493
1.38298
1.95554
2.33599
2.49192
2.50738
2.50023
1
1
1
1
1
1
1
1.00001
1.00002
1.00005
1.00009
1.00027
1.0005
1.00153
1.00289
1.00827
1.01779
1.04501
1.11835
1.28468
1.71058
2.33493
2.55561
2.5605
2.53976
1
1
1
1
1
1
1
1.00001
1.00002
1.00003
1.00009
1.00017
1.00051
1.00097
1.00281
1.00593
1.01555
1.0397
1.09236
1.26099
1.71639
2.36347
2.6265
2.62883
2.58201
1
1
1
1
1
1
1
1.00001
1.00001
1.00003
1.00006
1.00019
1.00035
1.0011
1.00209
1.00611
1.01309
1.03409
1.09175
1.212
1.61672
2.43471
2.68081
2.68578
2.62662
1
1
1
1
1
1
1
1.00001
1.00001
1.00003
1.00005
1.00017
1.00032
1.00101
1.00187
1.0057
1.01173
1.0317
1.08361
1.19369
1.58085
2.41004
2.72199
2.73292
2.67499
1
1
1
1
1
1
1
1
1.00001
1.00003
1.00005
1.00015
1.00028
1.00084
1.00171
1.00464
1.01133
1.02752
1.08033
1.17405
1.56591
2.3664
2.74484
2.7559
2.70967
1
1
1
1
1
1
1
1
1.00001
1.00002
1.00006
1.0001
1.00031
1.00064
1.00169
1.00421
1.00991
1.02884
1.06234
1.20449
1.47991
2.22513
2.74405
2.76456
2.72855
1
1
1
1
1
1
1
1
1.00001
1.00002
1.00005
1.0001
1.00029
1.00058
1.00159
1.00383
1.0092
1.02654
1.05823
1.18923
1.44577
2.14485
2.72875
2.76621
2.73528
1
1
1
1
1
1
1
1
1.00001
1.00002
1.00004
1.00011
1.00022
1.00061
1.00143
1.00343
1.00959
1.02129
1.06622
1.13658
1.47156
2.16075
2.71503
2.75687
2.72544
1
1
1
1
1
1
1
1
1.00001
1.00001
1.00005
1.00009
1.00026
1.00052
1.00141
1.00333
1.00806
1.02283
1.05039
1.16007
1.36864
2.02001
2.69791
2.75638
2.72484
1
1
1
1
1
1
1
1
1.00001
1.00001
1.00004
1.00008
1.00025
1.00048
1.00137
1.00301
1.00752
1.0206
1.04644
1.14334
1.33083
1.91967
2.63835
2.75905
2.73593
1
1
1
1
1
1
1
1
1.00001
1.00002
1.00003
1.0001
1.00019
1.00059
1.00117
1.00326
1.00742
1.01852
1.0512
1.11581
1.34215
1.96349
2.56965
2.75302
2.7368
1
1
1
1
1
1
1
1
1.00001
1.00001
1.00004
1.00007
1.00022
1.00044
1.00119
1.00278
1.00669
1.01855
1.04117
1.12594
1.2853
1.77799
2.6031
2.76517
2.74195
1
1
1
1
1
1
1
1
1.00001
1.00002
1.00003
1.0001
1.00019
1.00059
1.0011
1.00335
1.00672
1.01824
1.04491
1.10643
1.30357
1.85668
2.54043
2.76183
2.73948
1
1
1
1
1
1
1
1
1.00001
1.00002
1.00003
1.0001
1.00018
1.00057
1.00106
1.00327
1.00642
1.01775
1.04281
1.1027
1.29057
1.83022
2.53145
2.75474
2.73013
1
1
1
1
1
1
1
1
1.00001
1.00001
1.00004
1.00007
1.00023
1.00043
1.00132
1.00252
1.00713
1.01597
1.03971
1.11119
1.25731
1.71215
2.57794
2.74867
2.71726
1
1
1
1
1
1
1
1
1.00001
1.00001
1.00004
1.00007
1.00023
1.00042
1.00133
1.00245
1.00734
1.0152
1.04001
1.10513
1.2512
1.69405
2.57727
2.7468
2.71868
1
1
1
1
1
1
1
1
1.00001
1.00001
1.00004
1.00007
1.00022
1.00041
1.00126
1.0024
1.00688
1.01509
1.0383
1.10495
1.24519
1.68717
2.56966
2.74134
2.72266
1
1
1
1
1
1
1
1
1
1.00001
1.00003
1.00008
1.00016
1.00047
1.00096
1.00254
1.00617
1.0146
1.04146
1.0897
1.27862
1.73157
2.4955
2.74467
2.72996
1
1
1
1
1
1
1
1
1.00001
1.00001
1.00004
1.00007
1.00022
1.0004
1.00123
1.00236
1.00677
1.01488
1.03778
1.10366
1.2419
1.67952
2.55786
2.73532
2.7246
2.44731
2.75792
2.96775
3.21347
3.18715
3.15116
3.13742
3.12505
3.10971
3.09089
3.07595
3.06333
3.05443
3.05161
3.05084
3.05311
3.05877
3.06721
3.07743
3.08658
3.09784
3.10592
3.11572
3.12341
3.13101
3.13678
3.14214
3.14554
3.14722
3.14776
3.14766
3.14454
3.14077
3.13483
3.13003
3.12363
3.12088
3.11412
3.10666
3.09973
3.09397
3.08289
3.07647
3.06563
3.05875
3.04672
3.03877
3.02633
3.01722
3.00595
2.9964
2.98421
2.97432
2.96152
2.95121
2.93838
2.92811
2.91521
2.90426
2.89203
2.88045
2.86837
2.85664
2.84425
2.8328
2.82026
2.80899
2.79635
2.78531
2.77245
2.7617
2.7488
2.73811
2.72555
2.7146
2.7026
2.69135
2.67979
2.66851
2.65714
2.64611
2.63485
2.62415
2.61304
2.60267
2.59175
2.58174
2.57102
2.56145
2.55098
2.54185
2.53178
2.52319
2.5138
2.50598
2.49758
2.49115
2.48437
2.48061
2.47579
2.34485
2.52071
2.70547
3.02173
3.17374
3.28296
3.37921
3.38474
3.38816
3.39035
3.39248
3.39301
3.39215
3.39905
3.40056
3.40101
3.39784
3.39292
3.38505
3.37487
3.36498
3.35184
3.3377
3.31985
3.30259
3.28646
3.27829
3.26308
3.24819
3.22945
3.21334
3.19405
3.17545
3.15607
3.13788
3.11826
3.10065
3.08155
3.06249
3.04409
3.02434
3.00816
2.98839
2.97331
2.95365
2.93907
2.92058
2.90604
2.8882
2.87403
2.85763
2.84391
2.82838
2.81532
2.80008
2.78763
2.77254
2.76038
2.74588
2.73387
2.72019
2.70835
2.69541
2.68356
2.67123
2.65919
2.6474
2.63522
2.62386
2.61176
2.60064
2.58892
2.57782
2.56665
2.55555
2.54487
2.53395
2.52357
2.513
2.50279
2.4926
2.48248
2.47267
2.46264
2.45314
2.44319
2.43402
2.42421
2.41535
2.40578
2.39722
2.38804
2.37987
2.3713
2.36385
2.35622
2.35013
2.34407
2.34058
2.33654
2.30991
2.34675
2.45304
2.57023
2.76564
2.93845
3.16512
3.29796
3.38278
3.43486
3.46051
3.5087
3.53694
3.54226
3.54511
3.54122
3.53006
3.50988
3.48659
3.45974
3.43164
3.40198
3.37327
3.33938
3.31071
3.27812
3.24517
3.2123
3.17603
3.14213
3.10669
3.07266
3.03922
3.00745
2.97575
2.94614
2.91703
2.88865
2.86335
2.83661
2.81426
2.79008
2.76969
2.74837
2.72988
2.71019
2.69251
2.67421
2.65786
2.64163
2.62599
2.61113
2.59628
2.58222
2.56824
2.55474
2.5416
2.5287
2.51628
2.50401
2.49228
2.48056
2.46956
2.45832
2.44798
2.43717
2.42726
2.41695
2.40717
2.39749
2.38759
2.37859
2.36851
2.36008
2.34992
2.34186
2.33181
2.32398
2.31416
2.30652
2.297
2.28951
2.28031
2.27296
2.26398
2.25671
2.24802
2.24091
2.23249
2.2257
2.21765
2.21137
2.20379
2.19821
2.19136
2.18674
2.18115
2.17803
2.17483
2.17365
2.31256
2.27993
2.31632
2.35927
2.44588
2.55906
2.68163
2.87003
3.02137
3.19033
3.28895
3.35975
3.40613
3.43389
3.43256
3.41934
3.39349
3.36219
3.32384
3.2814
3.23968
3.19792
3.15715
3.11337
3.07144
3.02632
2.98515
2.94226
2.90339
2.8644
2.82969
2.79467
2.76409
2.73324
2.70659
2.68002
2.65715
2.63515
2.61618
2.59773
2.58184
2.56614
2.55238
2.53935
2.52728
2.5157
2.50358
2.49244
2.48114
2.47105
2.46047
2.45084
2.44048
2.43109
2.42095
2.41184
2.40196
2.39312
2.38353
2.37489
2.36558
2.35707
2.34797
2.33957
2.33058
2.32233
2.31335
2.30529
2.29627
2.28846
2.27943
2.27182
2.26286
2.25537
2.2465
2.23903
2.23029
2.22274
2.21416
2.20649
2.19799
2.1903
2.18194
2.17426
2.16615
2.1586
2.15068
2.14328
2.13552
2.12835
2.12082
2.11401
2.10686
2.10056
2.09411
2.0886
2.0834
2.0792
2.07633
2.07391
2.31179
2.2741
2.25297
2.27132
2.29893
2.35557
2.42167
2.50299
2.61031
2.70184
2.81165
2.90009
2.96328
3.00455
3.0077
2.99654
2.97112
2.94265
2.91071
2.87889
2.84325
2.80795
2.77156
2.73697
2.70246
2.66984
2.63971
2.61126
2.58702
2.56428
2.5452
2.52778
2.51371
2.5003
2.48962
2.47916
2.47087
2.46251
2.45556
2.44837
2.44199
2.43534
2.42917
2.42324
2.41758
2.41174
2.40534
2.39861
2.39196
2.38535
2.37883
2.3721
2.3655
2.3585
2.35186
2.34463
2.33801
2.33053
2.32394
2.31618
2.3096
2.30159
2.29494
2.28676
2.27988
2.27162
2.26442
2.25619
2.24866
2.24052
2.23278
2.22474
2.21695
2.20902
2.20127
2.19334
2.18557
2.17757
2.16976
2.16176
2.15404
2.14614
2.1385
2.13073
2.12323
2.11566
2.10834
2.10098
2.09386
2.08673
2.07988
2.07304
2.06661
2.0602
2.05447
2.04876
2.04419
2.03974
2.03734
2.03459
2.31149
2.266
2.24394
2.22539
2.23761
2.25651
2.2952
2.33644
2.38782
2.4485
2.49778
2.55182
2.57889
2.59912
2.59419
2.58314
2.56121
2.5377
2.51717
2.49981
2.48509
2.47136
2.45906
2.44794
2.43755
2.42865
2.42089
2.4144
2.4093
2.40495
2.40185
2.39867
2.39666
2.39432
2.39278
2.3908
2.38925
2.38739
2.38531
2.38307
2.38021
2.37723
2.37365
2.37034
2.36669
2.36297
2.3583
2.35311
2.34767
2.3421
2.33656
2.33059
2.32484
2.31839
2.31246
2.30555
2.29949
2.29218
2.28599
2.27838
2.27205
2.26428
2.25778
2.25
2.24325
2.23552
2.22844
2.22079
2.21339
2.20581
2.19823
2.19069
2.18309
2.17556
2.16789
2.16033
2.15277
2.14525
2.1378
2.13027
2.12293
2.11539
2.10817
2.10062
2.09353
2.08605
2.0791
2.07178
2.06501
2.058
2.05148
2.04493
2.03884
2.0329
2.02751
2.02244
2.01823
2.01452
2.01249
2.01039
2.30973
2.26331
2.23613
2.21877
2.20659
2.21676
2.23072
2.25982
2.28528
2.31981
2.35078
2.37004
2.38784
2.38612
2.37817
2.36537
2.35174
2.33898
2.32969
2.32037
2.32095
2.32191
2.32315
2.32434
2.32475
2.32595
2.32652
2.32779
2.32879
2.33049
2.33174
2.33329
2.33429
2.33532
2.33548
2.33528
2.33454
2.33365
2.33166
2.3302
2.32723
2.32499
2.32113
2.31838
2.31449
2.31138
2.30663
2.30214
2.29653
2.29143
2.28571
2.28027
2.2745
2.26861
2.26271
2.25628
2.25018
2.24321
2.23689
2.22949
2.22295
2.21535
2.20859
2.20096
2.19395
2.18641
2.17915
2.17169
2.16427
2.1569
2.14932
2.14207
2.13436
2.12721
2.11962
2.11271
2.10525
2.09853
2.09124
2.08468
2.0776
2.07115
2.06428
2.05794
2.05126
2.04505
2.03858
2.03255
2.02631
2.02055
2.01465
2.00926
2.00383
1.99898
1.99427
1.99028
1.98675
1.98411
1.98271
1.98139
2.30205
2.2639
2.2292
2.21622
2.20159
2.20466
2.21416
2.23366
2.25428
2.27173
2.29183
2.29824
2.30212
2.29136
2.27805
2.26175
2.24962
2.2405
2.23503
2.23112
2.23124
2.23592
2.24252
2.24821
2.25345
2.25724
2.26086
2.26367
2.26643
2.26848
2.27067
2.27227
2.27408
2.27524
2.27637
2.27632
2.27604
2.27544
2.2741
2.27298
2.2708
2.26899
2.26606
2.26369
2.26065
2.2579
2.25403
2.24998
2.24505
2.24023
2.23506
2.22992
2.22471
2.21921
2.21384
2.20786
2.20219
2.19575
2.18971
2.18293
2.17655
2.16964
2.16297
2.15606
2.1491
2.14219
2.13489
2.12799
2.12034
2.1134
2.10551
2.09861
2.09064
2.08384
2.07592
2.0692
2.06139
2.05475
2.04711
2.04056
2.03313
2.02667
2.0195
2.01316
2.00627
2.00011
1.9935
1.98764
1.98135
1.9759
1.97004
1.96513
1.95985
1.95561
1.95121
1.94799
1.94497
1.94328
1.94249
1.94176
2.29001
2.26049
2.22885
2.21123
2.20055
2.20141
2.21357
2.22896
2.24922
2.2639
2.27501
2.2798
2.27298
2.25657
2.23707
2.21833
2.20376
2.19313
2.18813
2.18375
2.18387
2.18474
2.1909
2.1976
2.20434
2.20986
2.21481
2.21842
2.22199
2.22468
2.22763
2.22984
2.23231
2.23413
2.23579
2.23687
2.2377
2.23797
2.23775
2.23727
2.23618
2.23492
2.23278
2.23064
2.22833
2.22576
2.22283
2.21897
2.21486
2.21004
2.20553
2.20032
2.1957
2.19016
2.18532
2.17935
2.17415
2.16776
2.16218
2.15549
2.14953
2.14273
2.13645
2.12965
2.12307
2.1163
2.10937
2.10259
2.09531
2.08853
2.08108
2.07436
2.06683
2.06017
2.05266
2.04603
2.03863
2.03199
2.02474
2.01808
2.01099
2.00432
1.9974
1.99082
1.9841
1.97773
1.97127
1.9652
1.9591
1.95345
1.94785
1.94272
1.93782
1.93342
1.92964
1.92638
1.92422
1.92277
1.92278
1.92155
2.29044
2.26145
2.23316
2.21826
2.21047
2.21189
2.22419
2.23785
2.25044
2.26415
2.26947
2.27101
2.2576
2.23553
2.21223
2.19215
2.17515
2.16363
2.15479
2.15144
2.14745
2.14726
2.14766
2.15242
2.158
2.16411
2.16939
2.17441
2.17799
2.18143
2.18396
2.18662
2.18897
2.1912
2.19308
2.19444
2.19539
2.19583
2.19598
2.19574
2.19492
2.19399
2.19206
2.19034
2.18817
2.18603
2.18337
2.18002
2.17629
2.17199
2.16785
2.16304
2.15872
2.15352
2.14893
2.14329
2.13829
2.13224
2.12678
2.12045
2.11461
2.10818
2.10203
2.09564
2.08924
2.08291
2.07619
2.06987
2.06293
2.05663
2.04953
2.04326
2.03613
2.02994
2.0229
2.01684
2.00995
2.00399
1.99724
1.99131
1.98469
1.97871
1.97227
1.96627
1.96009
1.95421
1.94838
1.94289
1.93745
1.9326
1.92766
1.92359
1.91944
1.91636
1.91352
1.91178
1.91092
1.91106
1.9125
1.91108
2.2945
2.26648
2.24375
2.22938
2.22787
2.23318
2.24665
2.25937
2.26889
2.27502
2.27739
2.26868
2.24982
2.22614
2.20232
2.18114
2.1638
2.14981
2.13965
2.13215
2.12757
2.12433
2.12274
2.12276
2.12543
2.13036
2.1353
2.14044
2.14501
2.14886
2.15225
2.15528
2.15805
2.16043
2.16254
2.16422
2.16557
2.16671
2.16733
2.16789
2.16776
2.16724
2.166
2.16476
2.16292
2.16126
2.15893
2.15619
2.15283
2.14907
2.1452
2.14088
2.13671
2.13194
2.12742
2.1222
2.11723
2.11165
2.1062
2.10037
2.09446
2.08849
2.08222
2.07621
2.06964
2.06362
2.05685
2.05083
2.04382
2.03773
2.03049
2.0243
2.01695
2.01067
2.00337
1.99706
1.98994
1.98363
1.97672
1.97042
1.9637
1.95744
1.95087
1.94472
1.93838
1.9324
1.9265
1.92081
1.91558
1.9104
1.90597
1.90157
1.89826
1.89518
1.89333
1.89223
1.89242
1.893
1.89483
1.89349
2.29598
2.27506
2.26084
2.25387
2.2544
2.26388
2.2718
2.28375
2.28711
2.29057
2.28317
2.2673
2.24586
2.22288
2.2008
2.18026
2.16239
2.14676
2.13356
2.12269
2.11414
2.10823
2.10422
2.10222
2.10129
2.10242
2.10576
2.10923
2.1139
2.1188
2.12305
2.12688
2.13003
2.13265
2.13487
2.13649
2.13793
2.13895
2.13982
2.14026
2.14047
2.14014
2.13916
2.138
2.13648
2.13499
2.13313
2.13065
2.12779
2.12426
2.12078
2.11659
2.11268
2.10804
2.10374
2.09871
2.09398
2.08859
2.08338
2.07771
2.07209
2.06625
2.06029
2.05435
2.04808
2.04217
2.03564
2.02972
2.02293
2.01695
2.01003
2.00399
1.99709
1.99099
1.98429
1.97813
1.9717
1.96547
1.9593
1.95306
1.94704
1.94089
1.93494
1.92903
1.92319
1.91769
1.91213
1.90722
1.9022
1.89801
1.89383
1.89058
1.88788
1.88604
1.88537
1.88561
1.88661
1.88785
1.89111
1.89079
2.30209
2.2875
2.27958
2.27939
2.28497
2.2919
2.30027
2.3044
2.30662
2.29957
2.28461
2.26521
2.24428
2.22296
2.20239
2.18277
2.16452
2.14797
2.13269
2.11962
2.10798
2.09886
2.0916
2.08743
2.08436
2.08368
2.08336
2.08506
2.0878
2.09235
2.09676
2.1013
2.10474
2.10782
2.1101
2.11189
2.11343
2.11453
2.11561
2.11618
2.11667
2.1166
2.11594
2.11522
2.11385
2.11272
2.11113
2.10915
2.1066
2.10353
2.1003
2.0965
2.09271
2.08833
2.08401
2.0792
2.07436
2.06924
2.06388
2.05849
2.0527
2.04705
2.04096
2.0351
2.02898
2.02299
2.01686
2.01069
2.00446
1.99815
1.99174
1.98542
1.97883
1.9726
1.96596
1.95986
1.95331
1.94727
1.94095
1.9349
1.92891
1.92284
1.91721
1.91125
1.90602
1.90043
1.89565
1.89087
1.88662
1.8829
1.8796
1.87745
1.87569
1.87566
1.87608
1.87721
1.87882
1.88216
1.88667
1.88906
2.31452
2.31313
2.31158
2.31459
2.32033
2.32414
2.32804
2.32607
2.31733
2.30129
2.28331
2.26416
2.24475
2.22561
2.20627
2.18797
2.16946
2.15233
2.13557
2.12052
2.10673
2.09541
2.08573
2.07854
2.07306
2.0695
2.06739
2.06651
2.06667
2.06888
2.07233
2.07685
2.08096
2.08504
2.08798
2.09084
2.09284
2.09456
2.0959
2.09691
2.09755
2.09794
2.09756
2.097
2.09584
2.09485
2.0935
2.09164
2.08941
2.08644
2.08351
2.07977
2.07622
2.07191
2.06782
2.06311
2.05854
2.0535
2.04848
2.04313
2.0376
2.03196
2.02598
2.02029
2.01413
2.0084
2.00223
1.99635
1.9902
1.98403
1.97784
1.97138
1.96512
1.95854
1.95224
1.94577
1.93946
1.93326
1.92699
1.92112
1.91495
1.90937
1.90344
1.89811
1.89268
1.88769
1.88307
1.87865
1.87502
1.87163
1.86957
1.86786
1.86793
1.86842
1.86946
1.87172
1.87474
1.88025
1.88664
1.89
2.32851
2.33533
2.34441
2.35249
2.35575
2.35755
2.35448
2.34374
2.32513
2.30581
2.28613
2.26778
2.24861
2.23082
2.21223
2.19468
2.17625
2.15895
2.14128
2.12524
2.10988
2.09663
2.08509
2.07528
2.06778
2.06184
2.05774
2.05512
2.05386
2.05398
2.055
2.05803
2.06213
2.06609
2.06976
2.07288
2.07517
2.07706
2.07821
2.07906
2.0795
2.07954
2.07908
2.07833
2.07703
2.07584
2.07434
2.07263
2.07025
2.06753
2.06434
2.061
2.05728
2.05343
2.0493
2.04497
2.0405
2.03572
2.03091
2.0257
2.02051
2.01496
2.00957
2.00392
1.99834
1.99268
1.98693
1.98124
1.97532
1.96949
1.96341
1.95736
1.95117
1.94495
1.93876
1.93246
1.92642
1.92017
1.91433
1.90833
1.90268
1.89706
1.89164
1.88653
1.88149
1.8771
1.87269
1.86919
1.86584
1.86382
1.86232
1.86245
1.86302
1.86426
1.86632
1.87067
1.87613
1.88316
1.89034
1.8936
2.33929
2.35837
2.37019
2.37968
2.38552
2.38312
2.37223
2.35359
2.33236
2.31282
2.2938
2.27564
2.25752
2.23935
2.22148
2.20323
2.18541
2.16727
2.14981
2.13267
2.11678
2.10212
2.08898
2.07776
2.06769
2.05983
2.05312
2.04805
2.04467
2.0426
2.0417
2.04173
2.04299
2.04573
2.0488
2.05159
2.05397
2.05579
2.05694
2.05777
2.05796
2.0579
2.05738
2.0562
2.05497
2.0533
2.05191
2.04993
2.04782
2.04515
2.04226
2.03915
2.03567
2.03214
2.02816
2.02419
2.01981
2.01541
2.01069
2.00582
2.00083
1.99565
1.99054
1.98515
1.9799
1.9744
1.96897
1.96344
1.95784
1.95226
1.94651
1.94085
1.93497
1.92921
1.92328
1.91745
1.91159
1.90577
1.90016
1.89446
1.88924
1.88386
1.87912
1.87434
1.87024
1.86634
1.863
1.86029
1.8584
1.8576
1.85784
1.85874
1.86013
1.8632
1.86718
1.87381
1.88069
1.88797
1.89469
1.89745
2.36452
2.38056
2.39526
2.40076
2.40175
2.39304
2.37438
2.35378
2.33408
2.31605
2.29928
2.283
2.26669
2.24998
2.23291
2.21547
2.1979
2.17973
2.16193
2.14408
2.12728
2.11111
2.09668
2.08288
2.07127
2.05988
2.05089
2.04235
2.03622
2.03081
2.0279
2.02508
2.02417
2.02326
2.02428
2.02629
2.02841
2.03024
2.03181
2.03267
2.03323
2.03317
2.0328
2.0318
2.03055
2.02907
2.0278
2.02605
2.02426
2.02176
2.01929
2.01624
2.01315
2.00962
2.00592
2.00204
1.99777
1.99358
1.98882
1.98428
1.97922
1.97441
1.96925
1.96419
1.95898
1.9537
1.94842
1.94299
1.93761
1.93211
1.92661
1.92113
1.91553
1.91016
1.90451
1.8993
1.89373
1.88868
1.88343
1.87851
1.87379
1.86912
1.86512
1.86098
1.85784
1.85453
1.85246
1.85069
1.85061
1.851
1.852
1.85413
1.85728
1.8628
1.86934
1.87691
1.88405
1.8906
1.8962
1.89814
2.39516
2.40711
2.41068
2.40969
2.40034
2.38391
2.36402
2.34464
2.3275
2.31157
2.29665
2.28178
2.2666
2.25087
2.23484
2.2181
2.20127
2.18362
2.16607
2.14827
2.1311
2.11454
2.09878
2.08418
2.07017
2.05737
2.0455
2.03488
2.0257
2.01799
2.01206
2.00739
2.00437
2.00151
2.00067
2.00002
2.00107
2.00302
2.00488
2.00643
2.00788
2.00839
2.0089
2.00861
2.00776
2.00684
2.00571
2.00462
2.00307
2.00117
1.99892
1.9963
1.99353
1.99017
1.98692
1.98297
1.97921
1.97484
1.97051
1.96589
1.96116
1.9564
1.9514
1.94648
1.94136
1.93626
1.93112
1.9258
1.92069
1.91514
1.91005
1.9044
1.89927
1.89374
1.88853
1.88331
1.8781
1.87331
1.86826
1.86401
1.85942
1.85582
1.85204
1.84925
1.84646
1.84467
1.84355
1.84374
1.84443
1.84579
1.84798
1.85223
1.85807
1.86522
1.87271
1.87997
1.88628
1.89123
1.89546
1.89626
2.43669
2.44117
2.43843
2.42644
2.40242
2.37946
2.35952
2.34152
2.32495
2.30965
2.29491
2.28034
2.26537
2.25016
2.23427
2.21808
2.20141
2.18443
2.16717
2.14989
2.1329
2.11622
2.10018
2.08456
2.06965
2.05535
2.04185
2.02965
2.0185
2.00905
2.00081
1.99442
1.98915
1.98521
1.98228
1.9805
1.97996
1.97998
1.98159
1.98349
1.98537
1.9872
1.9879
1.98881
1.98852
1.98786
1.98681
1.98596
1.98465
1.98307
1.98082
1.97853
1.9757
1.97279
1.96947
1.96593
1.96217
1.95803
1.95385
1.94935
1.94486
1.94019
1.93539
1.93065
1.92562
1.92084
1.91571
1.91086
1.90573
1.90073
1.89567
1.8905
1.88553
1.88028
1.87541
1.87026
1.86557
1.86074
1.8564
1.85217
1.84841
1.84516
1.84225
1.8401
1.83831
1.838
1.8383
1.83946
1.84103
1.84419
1.84892
1.8552
1.86275
1.86986
1.87746
1.88294
1.88827
1.89069
1.89398
1.89343
2.45192
2.44751
2.43471
2.41204
2.3908
2.36953
2.35188
2.33599
2.32139
2.30741
2.29325
2.27939
2.26458
2.24973
2.234
2.21834
2.20196
2.18553
2.16857
2.15156
2.13458
2.11765
2.10128
2.08493
2.06942
2.05422
2.04015
2.02678
2.0146
2.00331
1.99346
1.98469
1.97761
1.97167
1.96697
1.96306
1.96076
1.95948
1.95923
1.95976
1.96138
1.96325
1.96506
1.96607
1.96684
1.96658
1.96584
1.96475
1.96369
1.96232
1.96034
1.95812
1.95539
1.95261
1.94945
1.94617
1.94258
1.93874
1.93472
1.93053
1.92621
1.92183
1.91726
1.91279
1.90801
1.90354
1.89861
1.89414
1.88916
1.88463
1.87971
1.87509
1.87032
1.86566
1.86111
1.85653
1.85236
1.84805
1.84446
1.8408
1.83807
1.83542
1.83374
1.83232
1.83242
1.83305
1.83443
1.83639
1.84039
1.84536
1.8528
1.85971
1.86772
1.87392
1.88024
1.88394
1.88758
1.88849
1.89049
1.88925
2.48517
2.46312
2.43297
2.40645
2.38379
2.36443
2.3478
2.33298
2.31859
2.30506
2.29099
2.27746
2.26294
2.24853
2.23321
2.218
2.20189
2.18581
2.16893
2.15222
2.13525
2.11854
2.10202
2.08582
2.07
2.0547
2.03994
2.02584
2.01249
2.00003
1.98837
1.97811
1.96859
1.96093
1.95398
1.94861
1.94375
1.94072
1.93884
1.93821
1.93795
1.93879
1.94064
1.94185
1.94338
1.94384
1.94413
1.94341
1.94271
1.94168
1.9405
1.93878
1.93639
1.93394
1.93103
1.92809
1.92481
1.92122
1.91763
1.91352
1.9097
1.90525
1.9012
1.89659
1.89225
1.88765
1.88302
1.87856
1.8737
1.86939
1.86445
1.86025
1.85544
1.85137
1.84686
1.84305
1.83904
1.83569
1.83248
1.82992
1.82783
1.82622
1.82546
1.82566
1.82666
1.82803
1.83119
1.8349
1.84164
1.8483
1.85649
1.86334
1.87037
1.87531
1.87961
1.88178
1.88347
1.88372
1.88456
1.88281
2.50873
2.46673
2.43189
2.40402
2.38176
2.3636
2.34765
2.3332
2.31868
2.30487
2.2906
2.27664
2.26229
2.24785
2.23291
2.21788
2.20213
2.18627
2.16982
2.15334
2.13688
2.12022
2.10406
2.08755
2.07183
2.05574
2.04069
2.02544
2.01136
1.99741
1.98491
1.97275
1.96225
1.95239
1.94424
1.93714
1.93102
1.9257
1.92173
1.91976
1.91858
1.91854
1.91889
1.9202
1.92195
1.92394
1.92476
1.92588
1.92564
1.92514
1.92459
1.92357
1.92203
1.91989
1.91723
1.91457
1.91117
1.90809
1.90424
1.90066
1.89659
1.89243
1.88836
1.88371
1.87964
1.8747
1.87055
1.86554
1.86124
1.8563
1.85188
1.8472
1.8428
1.83855
1.83438
1.8307
1.82711
1.82425
1.82165
1.81994
1.81841
1.81816
1.81852
1.81948
1.8216
1.82461
1.83033
1.83673
1.84451
1.85177
1.85923
1.86519
1.87057
1.87389
1.87624
1.87761
1.87748
1.87735
1.87728
1.87579
2.54014
2.49268
2.45085
2.41801
2.39321
2.37353
2.35612
2.34043
2.3246
2.30958
2.29438
2.27958
2.26462
2.24981
2.23464
2.21948
2.20367
2.18782
2.17148
2.15519
2.13887
2.12245
2.1062
2.08972
2.07366
2.05744
2.04197
2.02645
2.01205
1.99769
1.98468
1.97175
1.96046
1.94927
1.94004
1.93112
1.92415
1.91786
1.91285
1.90883
1.9067
1.90575
1.90592
1.90611
1.90707
1.90917
1.91071
1.91314
1.91399
1.91503
1.91492
1.91468
1.91406
1.91273
1.91072
1.90798
1.90516
1.90185
1.89838
1.89463
1.89055
1.88644
1.88195
1.87753
1.87284
1.86819
1.8634
1.85864
1.8538
1.84901
1.84424
1.83953
1.835
1.83058
1.82658
1.82273
1.81975
1.81693
1.81538
1.81378
1.8138
1.81419
1.81532
1.81764
1.82204
1.82799
1.83482
1.84259
1.84967
1.8569
1.86265
1.86716
1.87085
1.87208
1.8737
1.87341
1.87308
1.87284
1.87235
1.87125
2.57153
2.51805
2.47955
2.44881
2.42169
2.39837
2.3769
2.3581
2.34008
2.32313
2.30643
2.29028
2.27405
2.25823
2.24216
2.22634
2.21007
2.19399
2.17758
2.16125
2.14495
2.12846
2.11214
2.09558
2.07945
2.06329
2.04777
2.03247
2.0179
2.00368
1.99031
1.97732
1.96536
1.95379
1.94353
1.93369
1.92561
1.91776
1.91164
1.90555
1.90171
1.89873
1.8978
1.89816
1.89914
1.90072
1.90325
1.9058
1.90861
1.90985
1.91159
1.91149
1.91125
1.91068
1.9095
1.90742
1.90469
1.90166
1.8982
1.89458
1.89059
1.88647
1.88209
1.8776
1.87297
1.86823
1.86349
1.85866
1.85386
1.84907
1.84435
1.83977
1.83533
1.83123
1.82736
1.82413
1.82138
1.81933
1.81789
1.81734
1.81741
1.81843
1.82128
1.82571
1.83212
1.83892
1.84634
1.85358
1.85984
1.86575
1.86926
1.8728
1.87393
1.87478
1.87459
1.87434
1.8737
1.87273
1.87135
1.87024
2.61291
2.55765
2.51887
2.48993
2.4645
2.44162
2.41891
2.39708
2.37564
2.35531
2.3356
2.31668
2.29822
2.28022
2.26224
2.24473
2.22708
2.20997
2.19275
2.17589
2.15896
2.14217
2.12573
2.10928
2.09352
2.07783
2.06275
2.04788
2.03333
2.01922
2.00528
1.99208
1.97914
1.96713
1.95563
1.94521
1.93553
1.92718
1.91965
1.91338
1.90775
1.90367
1.9012
1.8997
1.89982
1.90028
1.9017
1.90304
1.90529
1.90744
1.90922
1.91065
1.91069
1.91049
1.90994
1.90882
1.90671
1.90397
1.90063
1.89713
1.89317
1.88907
1.8846
1.88001
1.87525
1.87037
1.86552
1.86054
1.85577
1.85086
1.84633
1.84175
1.83763
1.8338
1.83044
1.82797
1.826
1.82483
1.82434
1.82467
1.82649
1.83017
1.83558
1.84181
1.84911
1.85594
1.86327
1.86885
1.87424
1.87777
1.88008
1.88185
1.88172
1.88151
1.88117
1.88043
1.87914
1.8775
1.87592
1.87456
2.64348
2.59453
2.55716
2.52678
2.49917
2.47347
2.44996
2.42717
2.40634
2.38565
2.36635
2.34711
2.32864
2.31021
2.29208
2.27421
2.25647
2.23911
2.22172
2.20434
2.18693
2.16963
2.15276
2.13565
2.1191
2.10212
2.08586
2.06952
2.05385
2.03876
2.02411
2.01054
1.99721
1.98511
1.97316
1.96247
1.9519
1.94286
1.93394
1.92689
1.91962
1.91432
1.9094
1.90683
1.90463
1.90464
1.90499
1.90643
1.90764
1.90976
1.91157
1.91387
1.91508
1.91575
1.91548
1.91489
1.9137
1.91169
1.90886
1.90537
1.9016
1.89742
1.89306
1.88849
1.88367
1.87893
1.87393
1.86911
1.86432
1.85961
1.85522
1.85106
1.84736
1.84421
1.84173
1.84003
1.83888
1.83819
1.83874
1.84126
1.84536
1.85103
1.85716
1.86434
1.87109
1.87755
1.88327
1.88727
1.89104
1.89231
1.89385
1.89346
1.89314
1.89243
1.89156
1.88981
1.88795