/*--------------------------------*- C++ -*----------------------------------*\
| =========                 |                                                 |
| \\      /  F ield         | OpenFOAM: The Open Source CFD Toolbox           |
|  \\    /   O peration     | Version:  2412                                  |
|   \\  /    A nd           | Website:  www.openfoam.com                      |
|    \\/     M anipulation  |                                                 |
\*---------------------------------------------------------------------------*/
FoamFile
{
    version     2.0;
    format      ascii;
    arch        "LSB;label=32;scalar=64";
    class       volVectorField;
    location    "9";
    object      U;
}
// * * * * * * * * * * * * * * * * * * * * * * * * * * * * * * * * * * * * * //

dimensions      [0 1 -1 0 0 0 0];

internalField   nonuniform List<vector> 
5250
(
(2.99999 1.658e-08 0)
(2.99998 1.29496e-07 0)
(2.99994 3.98416e-07 0)
(2.99987 1.20426e-06 0)
(2.99966 2.88593e-06 0)
(2.99924 7.44541e-06 0)
(2.99797 1.81627e-05 0)
(2.99572 3.97126e-05 0)
(2.98747 0.000107053 0)
(2.97358 0.000204946 0)
(2.92047 0.000547997 0)
(2.7895 0.00126797 0)
(2.43295 0.00349893 0)
(1.37317 0.0093536 0)
(0.619755 0.0209671 0)
(0.567622 0.0226118 0)
(0.583067 0.0239594 0)
(0.566676 0.0253976 0)
(0.508909 0.0270624 0)
(0.421585 0.0291384 0)
(0.341745 0.0317331 0)
(0.273315 0.0347418 0)
(0.202781 0.0380261 0)
(0.12228 0.0420164 0)
(0.0545017 0.0479898 0)
(2.99999 4.87463e-08 0)
(2.99998 3.7923e-07 0)
(2.99994 1.16762e-06 0)
(2.99987 3.51761e-06 0)
(2.99966 8.39936e-06 0)
(2.99926 2.17352e-05 0)
(2.998 5.19237e-05 0)
(2.99579 0.000118241 0)
(2.98761 0.000300896 0)
(2.97395 0.000630246 0)
(2.92132 0.00161344 0)
(2.79209 0.00381229 0)
(2.43915 0.0110793 0)
(1.38511 0.028795 0)
(0.627995 0.0637949 0)
(0.566103 0.0657474 0)
(0.581249 0.0669322 0)
(0.564917 0.068605 0)
(0.507367 0.0712071 0)
(0.420309 0.0750341 0)
(0.340419 0.0796252 0)
(0.271437 0.0845763 0)
(0.200016 0.0893844 0)
(0.118348 0.0944264 0)
(0.0504106 0.0999582 0)
(2.99999 7.91049e-08 0)
(2.99998 6.1505e-07 0)
(2.99994 1.89392e-06 0)
(2.99987 5.70587e-06 0)
(2.99967 1.36063e-05 0)
(2.99928 3.53783e-05 0)
(2.99805 8.35535e-05 0)
(2.99593 0.000196101 0)
(2.98789 0.000479952 0)
(2.97469 0.00107819 0)
(2.92301 0.0026717 0)
(2.7979 0.00645907 0)
(2.45237 0.0191147 0)
(1.41085 0.0496526 0)
(0.647297 0.111024 0)
(0.564164 0.111934 0)
(0.579515 0.112357 0)
(0.56432 0.115564 0)
(0.50818 0.120469 0)
(0.422211 0.127773 0)
(0.342716 0.136118 0)
(0.273514 0.145081 0)
(0.20149 0.153908 0)
(0.118874 0.162441 0)
(0.0494975 0.169653 0)
(2.99999 1.03817e-07 0)
(2.99998 8.06831e-07 0)
(2.99995 2.48394e-06 0)
(2.99988 7.48893e-06 0)
(2.99969 1.78166e-05 0)
(2.99931 4.67846e-05 0)
(2.99813 0.000108327 0)
(2.99612 0.000267455 0)
(2.98834 0.000618676 0)
(2.9758 0.00155168 0)
(2.9256 0.00366507 0)
(2.80677 0.00928607 0)
(2.47278 0.0269159 0)
(1.45229 0.0713724 0)
(0.677879 0.160606 0)
(0.560619 0.158022 0)
(0.577984 0.156394 0)
(0.565637 0.161786 0)
(0.511664 0.169186 0)
(0.427704 0.180106 0)
(0.349101 0.192517 0)
(0.280065 0.205915 0)
(0.207511 0.219503 0)
(0.12318 0.232362 0)
(0.0507477 0.241818 0)
(2.99999 1.21009e-07 0)
(2.99998 9.39322e-07 0)
(2.99995 2.8911e-06 0)
(2.99989 8.71744e-06 0)
(2.9997 2.06629e-05 0)
(2.99936 5.4903e-05 0)
(2.99823 0.000123779 0)
(2.99635 0.00032481 0)
(2.98895 0.000704772 0)
(2.97726 0.00199384 0)
(2.92915 0.0043758 0)
(2.81879 0.0127188 0)
(2.50063 0.034224 0)
(1.51254 0.0949333 0)
(0.72106 0.214759 0)
(0.555236 0.204843 0)
(0.577266 0.199419 0)
(0.569681 0.206788 0)
(0.518227 0.216622 0)
(0.437001 0.231182 0)
(0.359695 0.247968 0)
(0.291016 0.266327 0)
(0.217898 0.285329 0)
(0.131218 0.303368 0)
(0.0541288 0.315853 0)
(2.99999 1.33115e-07 0)
(2.99998 1.03279e-06 0)
(2.99995 3.1779e-06 0)
(2.9999 9.5867e-06 0)
(2.99972 2.26574e-05 0)
(2.9994 6.07658e-05 0)
(2.99835 0.000134446 0)
(2.99661 0.000367767 0)
(2.98971 0.000771157 0)
(2.9789 0.00231159 0)
(2.9341 0.00482987 0)
(2.83367 0.0158396 0)
(2.53653 0.0388154 0)
(1.60158 0.11908 0)
(0.782741 0.272827 0)
(0.551332 0.252877 0)
(0.580747 0.242136 0)
(0.579432 0.251087 0)
(0.530258 0.263247 0)
(0.452018 0.281586 0)
(0.376159 0.303183 0)
(0.307938 0.32743 0)
(0.233995 0.353415 0)
(0.143755 0.378868 0)
(0.0599089 0.396763 0)
(2.99999 1.41688e-07 0)
(2.99998 1.09851e-06 0)
(2.99996 3.37925e-06 0)
(2.9999 1.01979e-05 0)
(2.99975 2.40132e-05 0)
(2.99945 6.51419e-05 0)
(2.99849 0.000140575 0)
(2.99688 0.000405501 0)
(2.99056 0.000810216 0)
(2.98068 0.00262037 0)
(2.93986 0.00531363 0)
(2.8493 0.018272 0)
(2.57981 0.0432024 0)
(1.72102 0.141503 0)
(0.860068 0.333827 0)
(0.548136 0.302511 0)
(0.588536 0.285598 0)
(0.595652 0.295527 0)
(0.548853 0.309634 0)
(0.474058 0.331883 0)
(0.399907 0.358811 0)
(0.332491 0.390006 0)
(0.258209 0.424865 0)
(0.163959 0.461242 0)
(0.0702798 0.489555 0)
(3 1.48853e-07 0)
(2.99999 1.15144e-06 0)
(2.99996 3.5427e-06 0)
(2.99991 1.06785e-05 0)
(2.99977 2.50608e-05 0)
(2.9995 6.85614e-05 0)
(2.99864 0.000144213 0)
(2.99717 0.000438099 0)
(2.99155 0.000820626 0)
(2.98269 0.00293023 0)
(2.94652 0.00574417 0)
(2.86755 0.0202455 0)
(2.63047 0.048219 0)
(1.87033 0.15795 0)
(0.959417 0.388396 0)
(0.55342 0.350099 0)
(0.605492 0.328936 0)
(0.621318 0.338831 0)
(0.576438 0.354659 0)
(0.505449 0.381282 0)
(0.433337 0.414425 0)
(0.36725 0.454185 0)
(0.293643 0.500454 0)
(0.19617 0.553337 0)
(0.0887046 0.602666 0)
(3 1.71943e-07 0)
(2.99999 1.33046e-06 0)
(2.99997 4.08916e-06 0)
(2.99992 1.23388e-05 0)
(2.9998 2.91078e-05 0)
(2.99955 7.88276e-05 0)
(2.9988 0.000171809 0)
(2.99745 0.000489696 0)
(2.99262 0.000984733 0)
(2.98482 0.0031961 0)
(2.95368 0.00642655 0)
(2.88719 0.0216918 0)
(2.68526 0.0522986 0)
(2.041 0.167821 0)
(1.08244 0.432588 0)
(0.580653 0.404238 0)
(0.638053 0.381678 0)
(0.659802 0.38495 0)
(0.616515 0.40127 0)
(0.549203 0.430633 0)
(0.479268 0.470434 0)
(0.415325 0.518815 0)
(0.345508 0.57901 0)
(0.250233 0.657518 0)
(0.124053 0.750691 0)
(3 1.43734e-08 0)
(2.99999 1.60263e-06 0)
(2.99997 2.69857e-06 0)
(2.99993 1.38622e-05 0)
(2.99983 1.97936e-05 0)
(2.99962 8.66176e-05 0)
(2.99898 0.000112101 0)
(2.99785 0.000539888 0)
(2.99379 0.000512504 0)
(2.98727 0.00376829 0)
(2.96139 0.00239797 0)
(2.90819 0.0252522 0)
(2.74301 0.0319871 0)
(2.23109 0.152799 0)
(1.25979 0.380307 0)
(0.662108 0.432203 0)
(0.697283 0.436524 0)
(0.715855 0.431558 0)
(0.67404 0.450239 0)
(0.609265 0.48082 0)
(0.541013 0.526022 0)
(0.480145 0.582423 0)
(0.421288 0.661006 0)
(0.343298 0.781503 0)
(0.192621 0.989082 0)
(3 1.21683e-07 0)
(2.99999 9.39747e-07 0)
(2.99998 2.89704e-06 0)
(2.99994 8.69225e-06 0)
(2.99986 2.04971e-05 0)
(2.99962 5.48062e-05 0)
(2.99917 0.000118716 0)
(2.99778 0.000336399 0)
(2.9953 0.000647102 0)
(2.98642 0.00217724 0)
(2.97074 0.00417484 0)
(2.91403 0.0135015 0)
(2.77242 0.0366311 0)
(2.39097 0.0919508 0)
(1.3612 0.299998 0)
(0.712274 0.462688 0)
(0.721107 0.489304 0)
(0.746036 0.48413 0)
(0.725368 0.501522 0)
(0.671842 0.53174 0)
(0.612559 0.578789 0)
(0.563178 0.642151 0)
(0.532507 0.735125 0)
(0.530541 0.880839 0)
(0.559766 1.12026 0)
(3 2.55531e-07 0)
(2.99999 4.90121e-07 0)
(2.99998 3.73898e-06 0)
(2.99995 5.55476e-06 0)
(2.99986 2.60615e-05 0)
(2.9997 3.63277e-05 0)
(2.99921 0.000159526 0)
(2.99829 0.000207854 0)
(2.99532 0.00101566 0)
(2.99021 0.00103511 0)
(2.97079 0.007059 0)
(2.9353 0.00613913 0)
(2.80621 0.0448236 0)
(2.44813 0.0757987 0)
(1.61478 0.255879 0)
(0.809188 0.516898 0)
(0.736381 0.535923 0)
(0.762135 0.534445 0)
(0.761979 0.547798 0)
(0.727232 0.578818 0)
(0.685268 0.625887 0)
(0.654527 0.69295 0)
(0.653358 0.788589 0)
(0.703185 0.924342 0)
(0.819805 1.09997 0)
(3 1.1296e-07 0)
(2.99999 8.84021e-07 0)
(2.99998 2.71739e-06 0)
(2.99995 8.25531e-06 0)
(2.99988 1.95535e-05 0)
(2.99974 5.25357e-05 0)
(2.99932 0.000118179 0)
(2.9985 0.000313847 0)
(2.99599 0.000690088 0)
(2.99146 0.00191255 0)
(2.97519 0.0040571 0)
(2.94557 0.012219 0)
(2.83697 0.0278075 0)
(2.5402 0.0877484 0)
(1.83224 0.225686 0)
(0.935474 0.559359 0)
(0.74682 0.56761 0)
(0.774508 0.569449 0)
(0.791656 0.582395 0)
(0.776757 0.616431 0)
(0.753978 0.664519 0)
(0.744098 0.730188 0)
(0.763876 0.817393 0)
(0.832705 0.925651 0)
(0.96422 1.03414 0)
(3 1.10373e-07 0)
(2.99999 8.56707e-07 0)
(2.99998 2.63665e-06 0)
(2.99996 7.95112e-06 0)
(2.9999 1.88463e-05 0)
(2.99978 5.01201e-05 0)
(2.99943 0.000112773 0)
(2.99876 0.000295439 0)
(2.99665 0.000645931 0)
(2.99302 0.00179078 0)
(2.97924 0.00362054 0)
(2.95553 0.0116934 0)
(2.8649 0.0245821 0)
(2.62701 0.0849998 0)
(2.03685 0.211004 0)
(1.0774 0.585266 0)
(0.762355 0.594978 0)
(0.790493 0.598933 0)
(0.820987 0.609594 0)
(0.823895 0.644641 0)
(0.816847 0.693382 0)
(0.823024 0.753914 0)
(0.856155 0.826905 0)
(0.928712 0.908882 0)
(1.0533 0.979003 0)
(3 9.89369e-08 0)
(2.99999 7.64419e-07 0)
(2.99999 2.35418e-06 0)
(2.99997 7.06857e-06 0)
(2.99992 1.6709e-05 0)
(2.99981 4.41953e-05 0)
(2.99952 9.88569e-05 0)
(2.99894 0.000259626 0)
(2.99723 0.000552197 0)
(2.99395 0.00160166 0)
(2.98331 0.00303757 0)
(2.96343 0.0107985 0)
(2.89338 0.0207443 0)
(2.71327 0.0781579 0)
(2.24927 0.189893 0)
(1.26002 0.566479 0)
(0.815483 0.61975 0)
(0.823595 0.632095 0)
(0.856347 0.637995 0)
(0.872795 0.66841 0)
(0.875846 0.713879 0)
(0.891017 0.767768 0)
(0.9309 0.827367 0)
(1.00236 0.889104 0)
(1.11488 0.938774 0)
(3 9.40051e-08 0)
(3 7.31004e-07 0)
(2.99999 2.24979e-06 0)
(2.99997 6.79196e-06 0)
(2.99993 1.61102e-05 0)
(2.99985 4.28844e-05 0)
(2.99961 9.67055e-05 0)
(2.99914 0.000251897 0)
(2.99777 0.000561993 0)
(2.9951 0.00146631 0)
(2.98682 0.00330197 0)
(2.97057 0.00883436 0)
(2.91755 0.0202289 0)
(2.78426 0.0599719 0)
(2.43169 0.153007 0)
(1.47408 0.460111 0)
(0.908448 0.63064 0)
(0.870368 0.66229 0)
(0.89511 0.673418 0)
(0.921093 0.692929 0)
(0.931508 0.730273 0)
(0.951018 0.776236 0)
(0.992655 0.82511 0)
(1.06063 0.872191 0)
(1.16068 0.908919 0)
(3 8.20982e-08 0)
(3 6.37838e-07 0)
(2.99999 1.96339e-06 0)
(2.99998 5.91959e-06 0)
(2.99995 1.40398e-05 0)
(2.99988 3.72835e-05 0)
(2.9997 8.40807e-05 0)
(2.99933 0.000217679 0)
(2.99824 0.00048869 0)
(2.99624 0.00124436 0)
(2.98941 0.00287265 0)
(2.97775 0.0070864 0)
(2.93398 0.0174472 0)
(2.83243 0.0452228 0)
(2.54684 0.11915 0)
(1.68704 0.344765 0)
(1.01866 0.655349 0)
(0.9046 0.692062 0)
(0.923034 0.708955 0)
(0.95569 0.717556 0)
(0.978236 0.744973 0)
(1.00285 0.782505 0)
(1.04472 0.822379 0)
(1.10825 0.85889 0)
(1.19663 0.886198 0)
(3 6.81549e-08 0)
(3 5.26168e-07 0)
(2.99999 1.62144e-06 0)
(2.99998 4.86398e-06 0)
(2.99996 1.15281e-05 0)
(2.99991 3.04111e-05 0)
(2.99976 6.84002e-05 0)
(2.99948 0.000176379 0)
(2.99862 0.00039017 0)
(2.99709 0.00102241 0)
(2.99166 0.0021981 0)
(2.98285 0.0061781 0)
(2.94798 0.0132085 0)
(2.87327 0.0398806 0)
(2.64822 0.0991691 0)
(1.93985 0.301127 0)
(1.18797 0.686697 0)
(0.940247 0.722477 0)
(0.947066 0.736232 0)
(0.98154 0.738889 0)
(1.01627 0.756194 0)
(1.04664 0.786478 0)
(1.0884 0.819101 0)
(1.14742 0.847743 0)
(1.22551 0.867685 0)
(3 3.12825e-08 0)
(3 4.78917e-07 0)
(2.99999 1.12155e-06 0)
(2.99999 4.2626e-06 0)
(2.99997 8.09068e-06 0)
(2.99993 2.63584e-05 0)
(2.99982 4.76782e-05 0)
(2.9996 0.000152498 0)
(2.99895 0.000265417 0)
(2.99775 0.000901176 0)
(2.99368 0.00140473 0)
(2.987 0.00577612 0)
(2.96099 0.00804092 0)
(2.90793 0.0383938 0)
(2.74285 0.0707461 0)
(2.2286 0.265164 0)
(1.43191 0.645556 0)
(1.02606 0.739482 0)
(0.994158 0.755051 0)
(1.01503 0.759212 0)
(1.05338 0.767193 0)
(1.088 0.789701 0)
(1.12775 0.815788 0)
(1.18108 0.838079 0)
(1.24987 0.852207 0)
(3 2.59475e-08 0)
(3 3.78262e-07 0)
(3 9.01956e-07 0)
(2.99999 3.38287e-06 0)
(2.99998 6.53736e-06 0)
(2.99994 2.10066e-05 0)
(2.99987 3.88306e-05 0)
(2.99966 0.00012182 0)
(2.99925 0.000219722 0)
(2.99804 0.000715559 0)
(2.9957 0.00118167 0)
(2.98842 0.0045482 0)
(2.97418 0.00635461 0)
(2.92831 0.0295066 0)
(2.81533 0.0515112 0)
(2.5015 0.185915 0)
(1.6805 0.511744 0)
(1.13551 0.74911 0)
(1.04653 0.775716 0)
(1.05395 0.785613 0)
(1.08925 0.785079 0)
(1.12659 0.796709 0)
(1.164 0.814424 0)
(1.21121 0.829996 0)
(1.2713 0.839316 0)
(3 5.81701e-08 0)
(3 2.11079e-07 0)
(3 1.0057e-06 0)
(2.99999 2.11144e-06 0)
(2.99998 7.01136e-06 0)
(2.99996 1.34065e-05 0)
(2.9999 4.16318e-05 0)
(2.99975 7.77459e-05 0)
(2.99944 0.000240244 0)
(2.99855 0.000441504 0)
(2.99687 0.00140291 0)
(2.99133 0.00247408 0)
(2.98175 0.00859308 0)
(2.94665 0.0146051 0)
(2.86747 0.0550376 0)
(2.6405 0.114923 0)
(1.95508 0.380516 0)
(1.2935 0.749538 0)
(1.09371 0.796839 0)
(1.08715 0.810192 0)
(1.11681 0.806886 0)
(1.15828 0.806042 0)
(1.19548 0.814389 0)
(1.23806 0.823078 0)
(1.29056 0.827945 0)
(3 3.6121e-08 0)
(3 1.97002e-07 0)
(3 7.32224e-07 0)
(2.99999 1.87912e-06 0)
(2.99999 5.16348e-06 0)
(2.99997 1.18319e-05 0)
(2.99992 3.06705e-05 0)
(2.99982 6.85298e-05 0)
(2.99955 0.000176053 0)
(2.99901 0.00038951 0)
(2.99739 0.00101741 0)
(2.99438 0.00219427 0)
(2.98434 0.0061245 0)
(2.96562 0.0130756 0)
(2.90126 0.0379927 0)
(2.7398 0.10038 0)
(2.29894 0.271954 0)
(1.49577 0.721061 0)
(1.16204 0.816077 0)
(1.12702 0.82757 0)
(1.14374 0.826562 0)
(1.18341 0.817438 0)
(1.22292 0.816514 0)
(1.26261 0.818691 0)
(1.30785 0.817568 0)
(3 2.18043e-08 0)
(3 1.69905e-07 0)
(3 5.22909e-07 0)
(3 1.57915e-06 0)
(2.99999 3.74676e-06 0)
(2.99998 9.95556e-06 0)
(2.99995 2.24741e-05 0)
(2.99987 5.82175e-05 0)
(2.99971 0.00013009 0)
(2.99925 0.000334557 0)
(2.99838 0.000753576 0)
(2.99559 0.00192147 0)
(2.99081 0.00434098 0)
(2.9731 0.0113649 0)
(2.94023 0.026642 0)
(2.82714 0.072671 0)
(2.51935 0.206122 0)
(1.825 0.541645 0)
(1.26969 0.815336 0)
(1.17434 0.839114 0)
(1.17606 0.844582 0)
(1.20774 0.833009 0)
(1.24731 0.822399 0)
(1.28425 0.817165 0)
(1.32197 0.807945 0)
(3 1.9403e-08 0)
(3 1.04153e-07 0)
(3 3.88343e-07 0)
(3 9.95564e-07 0)
(2.99999 2.73394e-06 0)
(2.99998 6.25516e-06 0)
(2.99996 1.61752e-05 0)
(2.99991 3.6054e-05 0)
(2.99978 9.22657e-05 0)
(2.99953 0.000203607 0)
(2.99871 0.000529188 0)
(2.99737 0.00113296 0)
(2.99221 0.00317478 0)
(2.98409 0.00639459 0)
(2.95213 0.0198037 0)
(2.88506 0.0441353 0)
(2.67951 0.132868 0)
(2.087 0.384144 0)
(1.45013 0.795668 0)
(1.22543 0.853603 0)
(1.20869 0.859306 0)
(1.22752 0.848439 0)
(1.26524 0.829308 0)
(1.30071 0.81487 0)
(1.33077 0.795919 0)
(3 7.16132e-09 0)
(3 8.96941e-08 0)
(3 2.25823e-07 0)
(3 8.06705e-07 0)
(3 1.6278e-06 0)
(2.99999 4.98858e-06 0)
(2.99997 9.60534e-06 0)
(2.99993 2.85836e-05 0)
(2.99985 5.4027e-05 0)
(2.99961 0.000163488 0)
(2.99915 0.000294225 0)
(2.99779 0.000981415 0)
(2.99518 0.0015907 0)
(2.98696 0.00624015 0)
(2.97134 0.00977581 0)
(2.91986 0.0398569 0)
(2.79272 0.0812157 0)
(2.44176 0.266415 0)
(1.69451 0.683856 0)
(1.30859 0.848027 0)
(1.2493 0.862751 0)
(1.25237 0.857673 0)
(1.28112 0.835121 0)
(1.31242 0.808561 0)
(1.33391 0.777834 0)
(3 1.27833e-08 0)
(3 5.04307e-08 0)
(3 2.2704e-07 0)
(3 4.9864e-07 0)
(3 1.58155e-06 0)
(2.99999 3.15371e-06 0)
(2.99998 9.34062e-06 0)
(2.99995 1.82258e-05 0)
(2.99989 5.33406e-05 0)
(2.99973 0.000103275 0)
(2.9994 0.000303904 0)
(2.99845 0.000582387 0)
(2.9966 0.00176228 0)
(2.99092 0.00325393 0)
(2.9802 0.0107551 0)
(2.94508 0.0190977 0)
(2.86158 0.0683236 0)
(2.63279 0.150707 0)
(1.98102 0.4751 0)
(1.43466 0.816237 0)
(1.28688 0.862167 0)
(1.27396 0.859953 0)
(1.2897 0.838984 0)
(1.31391 0.800577 0)
(1.32873 0.75456 0)
(3 7.74157e-09 0)
(3 4.21951e-08 0)
(3 1.56778e-07 0)
(3 4.02295e-07 0)
(3 1.10431e-06 0)
(2.99999 2.53043e-06 0)
(2.99999 6.54683e-06 0)
(2.99997 1.4642e-05 0)
(2.99992 3.74432e-05 0)
(2.99982 8.31986e-05 0)
(2.99955 0.00021288 0)
(2.99901 0.000471477 0)
(2.99741 0.00121602 0)
(2.99441 0.00268887 0)
(2.9846 0.0070934 0)
(2.96628 0.0159944 0)
(2.90412 0.0430272 0)
(2.74973 0.116056 0)
(2.33086 0.308299 0)
(1.62121 0.763698 0)
(1.33245 0.865955 0)
(1.29051 0.863564 0)
(1.29243 0.835915 0)
(1.30332 0.786891 0)
(1.31255 0.724373 0)
(3 4.19202e-09 0)
(3 3.26036e-08 0)
(3 1.00417e-07 0)
(3 3.02359e-07 0)
(3 7.16904e-07 0)
(3 1.89437e-06 0)
(2.99999 4.26773e-06 0)
(2.99998 1.09737e-05 0)
(2.99995 2.44407e-05 0)
(2.99987 6.25546e-05 0)
(2.99972 0.000138858 0)
(2.99928 0.000355959 0)
(2.99844 0.000790202 0)
(2.99582 0.00204411 0)
(2.99127 0.00451446 0)
(2.97482 0.0120773 0)
(2.94435 0.0277998 0)
(2.84067 0.0764675 0)
(2.56158 0.21471 0)
(1.93788 0.555967 0)
(1.42172 0.844595 0)
(1.30567 0.861209 0)
(1.28502 0.816689 0)
(1.28219 0.7524 0)
(1.28358 0.677618 0)
(3 4.37471e-09 0)
(3 1.73834e-08 0)
(3 7.77156e-08 0)
(3 1.72023e-07 0)
(3 5.40629e-07 0)
(3 1.08558e-06 0)
(2.99999 3.17703e-06 0)
(2.99999 6.24071e-06 0)
(2.99996 1.79844e-05 0)
(2.99992 3.50438e-05 0)
(2.99979 0.000101053 0)
(2.99955 0.000195271 0)
(2.99882 0.000573783 0)
(2.99751 0.00107193 0)
(2.99296 0.00340847 0)
(2.98556 0.00585669 0)
(2.95735 0.0212768 0)
(2.89985 0.0390352 0)
(2.71986 0.136593 0)
(2.20612 0.36053 0)
(1.59399 0.778823 0)
(1.31724 0.843742 0)
(1.25767 0.781244 0)
(1.24756 0.69687 0)
(1.25044 0.616301 0)
(3 1.3901e-09 0)
(3 1.6263e-08 0)
(3 4.20194e-08 0)
(3 1.46405e-07 0)
(3 3.01915e-07 0)
(3 9.03765e-07 0)
(3 1.78222e-06 0)
(2.99999 5.16041e-06 0)
(2.99997 1.00538e-05 0)
(2.99994 2.89575e-05 0)
(2.99985 5.59721e-05 0)
(2.99968 0.000162844 0)
(2.99917 0.000306773 0)
(2.99818 0.000946054 0)
(2.99526 0.00162369 0)
(2.98971 0.00586973 0)
(2.97188 0.00897586 0)
(2.93506 0.0369813 0)
(2.8211 0.0671623 0)
(2.4946 0.247231 0)
(1.85583 0.579473 0)
(1.34503 0.791218 0)
(1.21201 0.725777 0)
(1.20145 0.632204 0)
(1.21815 0.554873 0)
(3 8.9495e-10 0)
(3 1.09663e-08 0)
(3 2.77666e-08 0)
(3 9.84187e-08 0)
(3 1.99378e-07 0)
(3 6.0679e-07 0)
(3 1.17554e-06 0)
(2.99999 3.46349e-06 0)
(2.99998 6.63258e-06 0)
(2.99996 1.94433e-05 0)
(2.9999 3.70103e-05 0)
(2.99976 0.000108954 0)
(2.99947 0.000205622 0)
(2.99861 0.000614105 0)
(2.99705 0.0011307 0)
(2.9917 0.00356931 0)
(2.9828 0.00606453 0)
(2.94909 0.0217359 0)
(2.87744 0.0387992 0)
(2.66144 0.135365 0)
(2.05536 0.353269 0)
(1.38725 0.707221 0)
(1.12695 0.656859 0)
(1.13176 0.570528 0)
(1.17436 0.499655 0)
(3 1.34939e-09 0)
(3 4.85517e-09 0)
(3 2.31687e-08 0)
(3 4.83625e-08 0)
(3 1.59661e-07 0)
(3 3.02357e-07 0)
(3 9.28149e-07 0)
(2.99999 1.71098e-06 0)
(2.99999 5.18636e-06 0)
(2.99997 9.41623e-06 0)
(2.99993 2.86862e-05 0)
(2.99982 5.11331e-05 0)
(2.99959 0.000158918 0)
(2.99895 0.000270451 0)
(2.99772 0.000912721 0)
(2.99382 0.00132625 0)
(2.98697 0.00565783 0)
(2.96248 0.00665644 0)
(2.91107 0.034895 0)
(2.75657 0.0557304 0)
(2.29701 0.216879 0)
(1.49409 0.50131 0)
(1.04227 0.547311 0)
(1.04774 0.50474 0)
(1.11747 0.457662 0)
(3 6.18901e-10 0)
(3 3.3783e-09 0)
(3 1.24827e-08 0)
(3 3.20442e-08 0)
(3 8.67471e-08 0)
(3 1.97983e-07 0)
(3 5.01255e-07 0)
(3 1.11343e-06 0)
(2.99999 2.76647e-06 0)
(2.99998 6.0982e-06 0)
(2.99994 1.50381e-05 0)
(2.99987 3.30002e-05 0)
(2.99965 8.11468e-05 0)
(2.99924 0.000177069 0)
(2.99793 0.000438687 0)
(2.99564 0.000943567 0)
(2.98725 0.00243003 0)
(2.97262 0.00518174 0)
(2.91917 0.0132637 0)
(2.78704 0.0360517 0)
(2.43273 0.0803248 0)
(1.50419 0.258122 0)
(0.932367 0.400072 0)
(0.923937 0.418411 0)
(1.02805 0.414168 0)
(3 4.00597e-11 0)
(3 2.64554e-09 0)
(3 4.6281e-09 0)
(3 2.29241e-08 0)
(3 3.38888e-08 0)
(3 1.39415e-07 0)
(3 1.94945e-07 0)
(3 7.84422e-07 0)
(2.99999 1.0495e-06 0)
(2.99998 4.32963e-06 0)
(2.99995 5.49589e-06 0)
(2.99987 2.38761e-05 0)
(2.99971 2.82477e-05 0)
(2.99925 0.000134848 0)
(2.99836 0.000133306 0)
(2.99548 0.00083718 0)
(2.99049 0.000457627 0)
(2.97139 0.00576555 0)
(2.93641 0.00164924 0)
(2.80729 0.0336984 0)
(2.45008 0.0351136 0)
(1.63401 0.147344 0)
(0.849536 0.29183 0)
(0.79414 0.333759 0)
(0.920531 0.361182 0)
(3 2.68718e-10 0)
(3 1.44528e-09 0)
(3 5.38255e-09 0)
(3 1.37767e-08 0)
(3 3.79148e-08 0)
(3 8.6755e-08 0)
(3 2.25135e-07 0)
(3 5.03661e-07 0)
(2.99999 1.29106e-06 0)
(2.99998 2.88173e-06 0)
(2.99996 7.35332e-06 0)
(2.99989 1.64369e-05 0)
(2.99974 4.13229e-05 0)
(2.99932 9.46005e-05 0)
(2.99852 0.000221938 0)
(2.99591 0.000542449 0)
(2.99136 0.00116275 0)
(2.97384 0.00271002 0)
(2.94224 0.00663279 0)
(2.82204 0.0151438 0)
(2.48851 0.0387919 0)
(1.70429 0.0949955 0)
(0.802876 0.231682 0)
(0.667563 0.2651 0)
(0.810499 0.305861 0)
(3 3.87546e-10 0)
(3 6.71511e-10 0)
(3 5.59349e-09 0)
(3 7.7135e-09 0)
(3 3.86264e-08 0)
(3 5.0572e-08 0)
(3 2.31422e-07 0)
(3 2.99623e-07 0)
(2.99999 1.35502e-06 0)
(2.99998 1.7436e-06 0)
(2.99996 7.95019e-06 0)
(2.9999 9.91587e-06 0)
(2.99978 4.74787e-05 0)
(2.9994 5.02365e-05 0)
(2.99873 0.000295671 0)
(2.99626 0.000170184 0)
(2.9923 0.0018405 0)
(2.97586 -9.93973e-05 0)
(2.9469 0.0116044 0)
(2.83181 -0.00197157 0)
(2.5163 0.0581924 0)
(1.75476 0.066846 0)
(0.794085 0.211372 0)
(0.569733 0.222421 0)
(0.721575 0.258495 0)
(3 3.09105e-10 0)
(3 3.40218e-10 0)
(3 4.13176e-09 0)
(3 4.46341e-09 0)
(3 2.82695e-08 0)
(3 2.95678e-08 0)
(3 1.68123e-07 0)
(3 1.72237e-07 0)
(2.99999 9.73893e-07 0)
(2.99999 9.66747e-07 0)
(2.99996 5.64934e-06 0)
(2.99992 5.2565e-06 0)
(2.99978 3.38128e-05 0)
(2.99953 2.30365e-05 0)
(2.99862 0.000226644 0)
(2.99719 1.66399e-05 0)
(2.99114 0.00159756 0)
(2.98168 -0.000617027 0)
(2.94102 0.0103039 0)
(2.85061 -0.00391246 0)
(2.57557 0.0504181 0)
(1.71145 0.0667407 0)
(0.827857 0.214891 0)
(0.51781 0.204816 0)
(0.672457 0.222399 0)
(3 -8.79325e-11 0)
(3 9.80066e-10 0)
(3 5.41699e-10 0)
(3 7.98845e-09 0)
(3 4.82083e-09 0)
(3 4.89219e-08 0)
(3 2.94653e-08 0)
(3 2.85446e-07 0)
(2.99999 1.68204e-07 0)
(2.99999 1.67171e-06 0)
(2.99997 9.45879e-07 0)
(2.99992 1.0173e-05 0)
(2.99979 3.95398e-06 0)
(2.99956 7.08414e-05 0)
(2.99873 -1.25953e-05 0)
(2.99741 0.000547791 0)
(2.9918 -0.000279145 0)
(2.98311 0.00382452 0)
(2.94544 -0.00172886 0)
(2.86243 0.0254527 0)
(2.6082 0.0101462 0)
(1.78516 0.111203 0)
(0.870652 0.237707 0)
(0.49594 0.198885 0)
(0.658726 0.195524 0)
(3 4.3804e-11 0)
(3 3.58319e-10 0)
(3 1.0825e-09 0)
(3 3.38474e-09 0)
(3 8.03477e-09 0)
(3 2.23325e-08 0)
(3 5.09209e-08 0)
(3 1.38325e-07 0)
(2.99999 3.13065e-07 0)
(2.99999 8.45872e-07 0)
(2.99997 1.90646e-06 0)
(2.99992 5.19131e-06 0)
(2.99983 1.14094e-05 0)
(2.99952 3.30078e-05 0)
(2.99901 6.72987e-05 0)
(2.99697 0.000219706 0)
(2.99383 0.000439648 0)
(2.98049 0.00151094 0)
(2.95756 0.00316167 0)
(2.86361 0.0112679 0)
(2.61671 0.030171 0)
(1.97531 0.0895076 0)
(0.905247 0.258662 0)
(0.462559 0.195426 0)
(0.644173 0.172964 0)
(3 1.97909e-10 0)
(3 -1.04375e-10 0)
(3 2.12594e-09 0)
(3 1.80291e-10 0)
(3 1.45251e-08 0)
(3 3.45088e-09 0)
(3 8.88631e-08 0)
(3 2.78221e-08 0)
(2.99999 5.30926e-07 0)
(2.99999 1.81972e-07 0)
(2.99997 3.16623e-06 0)
(2.99993 9.99652e-07 0)
(2.99982 1.98376e-05 0)
(2.99961 1.27136e-06 0)
(2.99888 0.00014959 0)
(2.99772 -5.69176e-05 0)
(2.99288 0.00122648 0)
(2.98538 -0.000531906 0)
(2.95356 0.00862059 0)
(2.88508 -0.000912788 0)
(2.67299 0.05006 0)
(1.99649 0.0834121 0)
(0.982474 0.271057 0)
(0.470333 0.199487 0)
(0.662719 0.163945 0)
(3 -1.0969e-10 0)
(3 6.21468e-10 0)
(3 -2.76846e-10 0)
(3 4.78265e-09 0)
(3 -1.14759e-09 0)
(3 2.87573e-08 0)
(3 -6.7318e-09 0)
(3 1.65758e-07 0)
(2.99999 -4.56207e-08 0)
(2.99999 9.54123e-07 0)
(2.99997 -3.26352e-07 0)
(2.99993 5.60405e-06 0)
(2.99983 -2.52066e-06 0)
(2.99963 3.64174e-05 0)
(2.99896 -2.93269e-05 0)
(2.99787 0.000296245 0)
(2.99346 -0.000313238 0)
(2.98667 0.00257264 0)
(2.95801 -0.00191111 0)
(2.89744 0.0180292 0)
(2.70858 0.00828939 0)
(2.10302 0.0916667 0)
(1.06758 0.226383 0)
(0.492108 0.178516 0)
(0.683095 0.156701 0)
(3 3.46987e-11 0)
(3 2.74973e-10 0)
(3 8.37183e-10 0)
(3 2.56383e-09 0)
(3 6.08221e-09 0)
(3 1.66398e-08 0)
(3 3.79035e-08 0)
(3 1.02036e-07 0)
(3 2.31511e-07 0)
(2.99999 6.22493e-07 0)
(2.99997 1.41513e-06 0)
(2.99993 3.7793e-06 0)
(2.99984 8.72592e-06 0)
(2.99959 2.20652e-05 0)
(2.9991 5.47974e-05 0)
(2.99748 0.000130507 0)
(2.99475 0.000297717 0)
(2.98406 0.000910831 0)
(2.96561 0.00184612 0)
(2.89567 0.00653696 0)
(2.71597 0.0173302 0)
(2.24196 0.0526412 0)
(1.06754 0.161348 0)
(0.450003 0.16247 0)
(0.658969 0.157316 0)
(3 1.11478e-11 0)
(3 4.4999e-11 0)
(3 1.8569e-10 0)
(3 4.74032e-10 0)
(3 1.35658e-09 0)
(3 3.10204e-09 0)
(3 8.37451e-09 0)
(3 1.84606e-08 0)
(3 5.05761e-08 0)
(2.99999 1.0818e-07 0)
(2.99997 3.15093e-07 0)
(2.99994 6.49263e-07 0)
(2.99984 2.13901e-06 0)
(2.99966 4.12395e-06 0)
(2.99906 1.88384e-05 0)
(2.99807 2.25453e-05 0)
(2.99411 0.000203059 0)
(2.98796 0.000216182 0)
(2.9627 0.00179187 0)
(2.91058 0.00349703 0)
(2.74715 0.013671 0)
(2.23662 0.0390074 0)
(1.17634 0.106435 0)
(0.495114 0.156414 0)
(0.673517 0.158657 0)
(3 -1.35782e-10 0)
(3 3.2794e-10 0)
(3 -1.05685e-09 0)
(3 2.13884e-09 0)
(3 -6.78006e-09 0)
(3 1.18771e-08 0)
(3 -4.12919e-08 0)
(3 6.32255e-08 0)
(3 -2.53406e-07 0)
(2.99999 3.27242e-07 0)
(2.99997 -1.58383e-06 0)
(2.99993 1.70105e-06 0)
(2.99985 -1.01166e-05 0)
(2.9996 1.1408e-05 0)
(2.99911 -7.0781e-05 0)
(2.99763 0.000117919 0)
(2.99492 -0.00048941 0)
(2.98539 0.0012927 0)
(2.96837 -0.00296038 0)
(2.90575 0.0096184 0)
(2.74702 -0.00775387 0)
(2.32143 0.0312162 0)
(1.16694 0.0641945 0)
(0.494974 0.127848 0)
(0.652488 0.142243 0)
(3 1.52164e-10 0)
(3 -2.44725e-10 0)
(3 1.38246e-09 0)
(3 -1.3188e-09 0)
(3 9.13553e-09 0)
(3 -6.63694e-09 0)
(3 5.53743e-08 0)
(3 -3.31351e-08 0)
(3 3.31856e-07 0)
(2.99999 -1.61555e-07 0)
(2.99997 1.99832e-06 0)
(2.99993 -7.68966e-07 0)
(2.99985 1.21967e-05 0)
(2.99961 -3.70807e-06 0)
(2.99914 7.66269e-05 0)
(2.99772 -2.86803e-05 0)
(2.99508 0.000551841 0)
(2.98598 -0.000496444 0)
(2.96958 0.00449191 0)
(2.90951 -0.00388366 0)
(2.75733 0.0260571 0)
(2.34634 0.0120356 0)
(1.19987 0.0887154 0)
(0.506318 0.131769 0)
(0.633174 0.139385 0)
(3 1.39906e-10 0)
(3 -2.96401e-10 0)
(3 1.16128e-09 0)
(3 -1.80811e-09 0)
(3 7.60552e-09 0)
(3 -9.76454e-09 0)
(3 4.60695e-08 0)
(3 -5.21715e-08 0)
(3 2.75741e-07 0)
(2.99999 -2.77193e-07 0)
(2.99997 1.65594e-06 0)
(2.99994 -1.47063e-06 0)
(2.99984 1.00694e-05 0)
(2.99965 -7.9255e-06 0)
(2.99909 6.29143e-05 0)
(2.99803 -5.01248e-05 0)
(2.99453 0.000448493 0)
(2.98861 -0.000541994 0)
(2.96567 0.00377846 0)
(2.92094 -0.0043831 0)
(2.76966 0.0216477 0)
(2.32145 0.0028368 0)
(1.34554 0.0705188 0)
(0.590679 0.11045 0)
(0.666748 0.11477 0)
(3 2.02799e-11 0)
(3 1.61324e-10 0)
(3 4.91026e-10 0)
(3 1.5006e-09 0)
(3 3.55917e-09 0)
(3 9.6123e-09 0)
(3 2.18238e-08 0)
(3 5.72757e-08 0)
(3 1.28901e-07 0)
(2.99999 3.34021e-07 0)
(2.99997 7.49173e-07 0)
(2.99994 1.92008e-06 0)
(2.99985 4.28136e-06 0)
(2.99966 1.08948e-05 0)
(2.99911 2.38394e-05 0)
(2.99804 6.26048e-05 0)
(2.99468 0.000126218 0)
(2.98874 0.00038805 0)
(2.96678 0.000712605 0)
(2.92375 0.00241181 0)
(2.77582 0.00599471 0)
(2.34296 0.014895 0)
(1.38906 0.0454617 0)
(0.614235 0.0864684 0)
(0.66858 0.0908354 0)
(3 -8.28239e-11 0)
(3 6.13377e-10 0)
(3 3.07588e-11 0)
(3 4.85424e-09 0)
(3 1.10317e-09 0)
(3 2.99066e-08 0)
(3 8.99768e-09 0)
(3 1.77815e-07 0)
(3 6.47271e-08 0)
(2.99999 1.05659e-06 0)
(2.99997 4.38641e-07 0)
(2.99994 6.30035e-06 0)
(2.99985 2.51102e-06 0)
(2.99967 3.8395e-05 0)
(2.99914 5.44927e-06 0)
(2.99811 0.000247376 0)
(2.9948 -0.000124273 0)
(2.9891 0.00157172 0)
(2.96731 -0.00205907 0)
(2.92545 0.00919194 0)
(2.7794 -0.0117558 0)
(2.35431 0.0263933 0)
(1.41625 0.00466298 0)
(0.63445 0.0439994 0)
(0.66981 0.0539119 0)
(3 9.12206e-12 0)
(3 7.08243e-11 0)
(3 2.18334e-10 0)
(3 6.58021e-10 0)
(3 1.56546e-09 0)
(3 4.13586e-09 0)
(3 9.35695e-09 0)
(3 2.39284e-08 0)
(3 5.34891e-08 0)
(2.99999 1.34763e-07 0)
(2.99998 2.99724e-07 0)
(2.99994 7.44645e-07 0)
(2.99987 1.64592e-06 0)
(2.99966 4.02444e-06 0)
(2.99928 8.84229e-06 0)
(2.99794 2.12983e-05 0)
(2.99578 4.63465e-05 0)
(2.98714 0.000113845 0)
(2.9727 0.00024313 0)
(2.91637 0.000635443 0)
(2.77694 0.00157677 0)
(2.3984 0.00420588 0)
(1.31149 0.0133386 0)
(0.600812 0.0309281 0)
(0.632005 0.0298304 0)
(3 1.06684e-10 0)
(3 -4.25775e-10 0)
(3 5.38994e-10 0)
(3 -3.13956e-09 0)
(3 2.93411e-09 0)
(3 -1.9147e-08 0)
(3 1.52473e-08 0)
(3 -1.14722e-07 0)
(3 7.66506e-08 0)
(2.99999 -6.9217e-07 0)
(2.99997 3.80336e-07 0)
(2.99994 -4.21694e-06 0)
(2.99985 2.18848e-06 0)
(2.99968 -2.67077e-05 0)
(2.99915 2.09852e-05 0)
(2.99815 -0.00018544 0)
(2.99488 0.000272312 0)
(2.98926 -0.00127655 0)
(2.96774 0.00282466 0)
(2.92656 -0.00773398 0)
(2.78222 0.0157621 0)
(2.36498 -0.0165823 0)
(1.438 0.0245977 0)
(0.648512 0.0270245 0)
(0.666235 0.0194082 0)
(1.11468 0.991718 0)
(1.01355 0.702845 0)
(0.0966714 0.423286 0)
(-0.416633 0.0239893 0)
(-0.537444 -0.0138479 0)
(-0.689958 -0.0269811 0)
(-0.748574 -0.012421 0)
(-0.793254 0.00860679 0)
(-0.849706 0.0166346 0)
(-0.905603 0.0143338 0)
(-0.951769 0.00670431 0)
(-0.986141 0.000151576 0)
(-1.00509 -0.00229337 0)
(-1.00961 -0.00365288 0)
(-1.00612 -0.00531131 0)
(-0.992127 -0.00619473 0)
(-0.966099 -0.00764632 0)
(-0.929664 -0.00950728 0)
(-0.886836 -0.0107797 0)
(-0.840982 -0.0112594 0)
(-0.793595 -0.0113948 0)
(-0.745509 -0.0113714 0)
(-0.696926 -0.0112825 0)
(-0.647798 -0.0112065 0)
(-0.598041 -0.011263 0)
(-0.547685 -0.0114175 0)
(-0.496634 -0.0117933 0)
(-0.444882 -0.0124676 0)
(-0.391449 -0.0143729 0)
(-0.338454 -0.0154018 0)
(-0.285838 -0.0163058 0)
(-0.233931 -0.0172328 0)
(-0.18293 -0.0185428 0)
(-0.133046 -0.0201993 0)
(-0.0837474 -0.0218152 0)
(-0.0359571 -0.0239516 0)
(0.0152636 -0.0257912 0)
(0.0659577 -0.0240532 0)
(0.111377 -0.0224166 0)
(0.156257 -0.0216387 0)
(0.199454 -0.0209202 0)
(0.241177 -0.0203422 0)
(0.280512 -0.0193851 0)
(0.318097 -0.0187006 0)
(0.355819 -0.0184903 0)
(0.394572 -0.0187878 0)
(0.432425 -0.018208 0)
(0.468995 -0.0176135 0)
(0.504261 -0.0169693 0)
(0.538657 -0.0164191 0)
(0.572216 -0.0158439 0)
(0.605002 -0.0153244 0)
(0.637014 -0.0147779 0)
(0.668321 -0.0142786 0)
(0.698923 -0.0137579 0)
(0.72889 -0.013275 0)
(0.758229 -0.0127733 0)
(0.78699 -0.0123023 0)
(0.815171 -0.0118159 0)
(0.842829 -0.0113488 0)
(0.869961 -0.0108794 0)
(0.8966 -0.0104221 0)
(0.922759 -0.0099688 0)
(0.948457 -0.0095271 0)
(0.973712 -0.00909009 0)
(0.998536 -0.00866455 0)
(1.02294 -0.00824297 0)
(1.04694 -0.00783108 0)
(1.07053 -0.00742261 0)
(1.09372 -0.00702346 0)
(1.11652 -0.00662805 0)
(1.13892 -0.00624293 0)
(1.16092 -0.00586418 0)
(1.18252 -0.00549735 0)
(1.20371 -0.00514196 0)
(1.2245 -0.00480061 0)
(1.24488 -0.00447468 0)