/*--------------------------------*- C++ -*----------------------------------*\
| =========                 |                                                 |
| \\      /  F ield         | OpenFOAM: The Open Source CFD Toolbox           |
|  \\    /   O peration     | Version:  2412                                  |
|   \\  /    A nd           | Website:  www.openfoam.com                      |
|    \\/     M anipulation  |                                                 |
\*---------------------------------------------------------------------------*/
FoamFile
{
    version     2.0;
    format      ascii;
    arch        "LSB;label=32;scalar=64";
    class       volScalarField;
    location    "0.0999";
    object      Ma;
}
// * * * * * * * * * * * * * * * * * * * * * * * * * * * * * * * * * * * * * //

dimensions      [0 0 0 0 0 0 0];

internalField   nonuniform List<scalar> 
15000
(
1.99781
1.99781
1.99781
1.99781
1.99781
1.99781
1.99781
1.99781
1.9978
1.99779
1.99777
1.99774
1.99768
1.99758
1.9974
1.99708
1.99652
1.99554
1.99381
1.99078
1.98548
1.97621
1.96013
1.93251
1.88598
1.81008
1.6926
1.52605
1.31831
1.09697
0.896982
0.742502
0.63975
0.580296
0.548991
0.531872
0.519965
0.509031
0.497673
0.485668
0.473051
0.459819
0.445842
0.430925
0.414728
0.396833
0.376635
0.35312
0.325271
0.289839
1.99781
1.99781
1.99781
1.99781
1.99781
1.99781
1.99781
1.99781
1.9978
1.99779
1.99777
1.99774
1.99768
1.99758
1.9974
1.99709
1.99653
1.99556
1.99386
1.99086
1.98561
1.97645
1.96054
1.93322
1.88718
1.81201
1.69552
1.53003
1.323
1.10167
0.901033
0.745615
0.642018
0.582019
0.550477
0.533341
0.521551
0.510818
0.499731
0.488071
0.475903
0.463264
0.450105
0.43634
0.421843
0.406547
0.390418
0.373712
0.357453
0.343048
1.99781
1.99781
1.99781
1.99781
1.99781
1.99781
1.99781
1.99781
1.9978
1.99779
1.99777
1.99774
1.99768
1.99758
1.99741
1.9971
1.99656
1.99561
1.99394
1.99101
1.98587
1.97691
1.96134
1.9346
1.8895
1.81576
1.7012
1.5378
1.33222
1.111
0.909171
0.751956
0.646682
0.585557
0.553497
0.536303
0.524736
0.514394
0.503816
0.492786
0.481399
0.469746
0.457856
0.445748
0.433453
0.421099
0.408925
0.397401
0.387421
0.379807
1.99781
1.99781
1.99781
1.99781
1.99781
1.99781
1.99781
1.99781
1.9978
1.99779
1.99777
1.99774
1.99769
1.99759
1.99742
1.99712
1.9966
1.99568
1.99406
1.99122
1.98625
1.97757
1.96251
1.9366
1.89285
1.8212
1.70946
1.54917
1.34581
1.12485
0.921369
0.761507
0.653675
0.590753
0.557802
0.540423
0.529104
0.519247
0.509301
0.49903
0.48855
0.477989
0.467431
0.456946
0.446634
0.436664
0.427293
0.418892
0.412033
0.407151
1.99781
1.99781
1.99781
1.99781
1.99781
1.99781
1.99781
1.99781
1.9978
1.99779
1.99777
1.99774
1.99769
1.9976
1.99744
1.99715
1.99665
1.99577
1.99422
1.9915
1.98674
1.97842
1.96398
1.93914
1.89713
1.82813
1.72006
1.56386
1.36355
1.14315
0.937634
0.774324
0.663042
0.597611
0.563338
0.545593
0.534496
0.525167
0.515912
0.506448
0.496895
0.487403
0.47808
0.469018
0.460329
0.452167
0.444743
0.438314
0.433247
0.429749
1.99781
1.99781
1.99781
1.99781
1.99781
1.99781
1.99781
1.99781
1.9978
1.99779
1.99778
1.99775
1.9977
1.99761
1.99746
1.99719
1.99671
1.99587
1.9944
1.99182
1.98731
1.97942
1.96572
1.94213
1.90218
1.83635
1.7327
1.58154
1.38518
1.16575
0.957968
0.790468
0.674829
0.606111
0.57001
0.551647
0.540683
0.531868
0.523304
0.514633
0.505959
0.497442
0.489199
0.481325
0.473922
0.467115
0.461057
0.455926
0.451952
0.449205
1.99781
1.99781
1.99781
1.99781
1.99781
1.99781
1.99781
1.99781
1.9978
1.99779
1.99778
1.99775
1.99771
1.99762
1.99748
1.99722
1.99677
1.99599
1.99461
1.99218
1.98794
1.98054
1.96767
1.94549
1.90785
1.84562
1.74704
1.60183
1.41037
1.19251
0.982378
0.810029
0.689123
0.616279
0.577762
0.558455
0.547482
0.539124
0.531217
0.523291
0.515421
0.507764
0.500439
0.493536
0.487139
0.481344
0.476261
0.472004
0.468725
0.466415
1.99781
1.99781
1.99781
1.99781
1.99781
1.99781
1.99781
1.99781
1.9978
1.9978
1.99778
1.99776
1.99771
1.99764
1.9975
1.99726
1.99685
1.99611
1.99483
1.99257
1.98863
1.98174
1.96976
1.94911
1.91397
1.85568
1.76272
1.6243
1.43874
1.22322
1.01086
0.833127
0.706056
0.628186
0.586577
0.565926
0.554745
0.546752
0.539444
0.532201
0.525049
0.518138
0.511583
0.505467
0.499859
0.494828
0.490452
0.486805
0.483988
0.481948
1.99781
1.99781
1.99781
1.99781
1.99781
1.99781
1.99781
1.99781
1.9978
1.9978
1.99778
1.99776
1.99772
1.99765
1.99752
1.9973
1.99692
1.99624
1.99506
1.99298
1.98935
1.983
1.97196
1.95289
1.9204
1.86627
1.77937
1.64847
1.46985
1.25762
1.04341
0.859905
0.725813
0.641962
0.596492
0.574012
0.562366
0.554614
0.547831
0.541201
0.534685
0.528416
0.522505
0.517029
0.512043
0.507599
0.503749
0.500539
0.498041
0.496177
1.99781
1.99781
1.99781
1.99781
1.99781
1.99781
1.99781
1.99781
1.99781
1.9978
1.99779
1.99777
1.99773
1.99766
1.99755
1.99735
1.997
1.99638
1.9953
1.9934
1.99008
1.98428
1.97419
1.95675
1.92697
1.87716
1.79662
1.67386
1.5032
1.29541
1.07995
0.890516
0.748621
0.657794
0.6076
0.58271
0.570281
0.56261
0.556264
0.550178
0.544222
0.538506
0.533136
0.528184
0.523695
0.519708
0.516257
0.513371
0.511104
0.509358
1.99781
1.99781
1.99781
1.99781
1.99781
1.99781
1.99781
1.99781
1.99781
1.9978
1.99779
1.99777
1.99774
1.99768
1.99757
1.99739
1.99707
1.99651
1.99553
1.99381
1.99081
1.98555
1.97641
1.9606
1.93354
1.8881
1.81411
1.69999
1.53825
1.33617
1.1204
0.92511
0.774749
0.675932
0.620056
0.592074
0.578466
0.570678
0.564666
0.559055
0.553592
0.548354
0.543441
0.538922
0.534836
0.531211
0.528071
0.525432
0.523335
0.521674
1.99781
1.99781
1.99781
1.99781
1.99781
1.99781
1.99781
1.99781
1.99781
1.9978
1.99779
1.99777
1.99774
1.99769
1.9976
1.99743
1.99715
1.99664
1.99576
1.99422
1.99152
1.9868
1.97859
1.96437
1.93999
1.89889
1.83151
1.72635
1.57442
1.37942
1.16456
0.963808
0.804493
0.696684
0.634077
0.602206
0.586937
0.578784
0.572987
0.567779
0.562751
0.557929
0.553406
0.549249
0.545493
0.542161
0.539268
0.536823
0.534858
0.53326
1.99781
1.99781
1.99781
1.99781
1.99781
1.99781
1.99781
1.99781
1.99781
1.9978
1.99779
1.99778
1.99775
1.9977
1.99762
1.99747
1.99722
1.99677
1.99598
1.99461
1.9922
1.988
1.98068
1.968
1.94622
1.90935
1.84853
1.75249
1.6111
1.42459
1.21214
1.00668
0.83816
0.720414
0.64995
0.613271
0.595757
0.58693
0.581199
0.576319
0.571671
0.567215
0.563029
0.559178
0.555698
0.552607
0.549915
0.547625
0.545766
0.544217
1.99781
1.99781
1.99781
1.99781
1.99781
1.99781
1.99781
1.99781
1.99781
1.9978
1.9978
1.99778
1.99776
1.99772
1.99764
1.99751
1.99729
1.99689
1.99619
1.99498
1.99285
1.98913
1.98267
1.97144
1.95214
1.91934
1.8649
1.77799
1.64768
1.47104
1.26273
1.05372
0.876042
0.747528
0.668028
0.625496
0.605032
0.595144
0.589297
0.584658
0.58034
0.576207
0.572315
0.568728
0.565481
0.562591
0.560066
0.557905
0.556132
0.554625
1.99781
1.99781
1.99781
1.99781
1.99781
1.99781
1.99781
1.99781
1.99781
1.9978
1.9978
1.99779
1.99776
1.99773
1.99766
1.99755
1.99735
1.997
1.99639
1.99532
1.99346
1.9902
1.98452
1.97467
1.95768
1.92875
1.88043
1.80249
1.68359
1.51806
1.3158
1.10478
0.918388
0.77846
0.68873
0.639176
0.614923
0.603493
0.597295
0.592794
0.588752
0.584906
0.581274
0.577916
0.57487
0.572152
0.569768
0.567715
0.566015
0.564544
1.99781
1.99781
1.99781
1.99781
1.99781
1.99781
1.99781
1.99781
1.99781
1.99781
1.9978
1.99779
1.99777
1.99774
1.99768
1.99758
1.99741
1.9971
1.99657
1.99564
1.99401
1.99117
1.98623
1.97764
1.96282
1.93748
1.89495
1.82569
1.71829
1.56489
1.37067
1.1596
0.965369
0.813651
0.712539
0.65468
0.625649
0.612078
0.60523
0.600735
0.596912
0.593318
0.589918
0.586764
0.583893
0.581323
0.57906
0.5771
0.575463
0.574025
1.99781
1.99781
1.99781
1.99781
1.99781
1.99781
1.99781
1.99781
1.99781
1.99781
1.9978
1.99779
1.99778
1.99775
1.9977
1.99761
1.99746
1.9972
1.99674
1.99593
1.99452
1.99207
1.98779
1.98036
1.96751
1.9455
1.90836
1.84735
1.75132
1.6108
1.42655
1.21772
1.01704
0.853516
0.739984
0.672456
0.637497
0.621048
0.613165
0.608503
0.604827
0.601451
0.598261
0.595288
0.592572
0.590132
0.587976
0.586098
0.584517
0.583109
1.99781
1.99781
1.99781
1.99781
1.99781
1.99781
1.99781
1.99781
1.99781
1.99781
1.9978
1.9978
1.99778
1.99776
1.99771
1.99764
1.99751
1.99728
1.99689
1.99619
1.99498
1.99287
1.9892
1.98281
1.97175
1.95277
1.9206
1.86732
1.78231
1.6551
1.48255
1.27849
1.07328
0.898407
0.771627
0.693025
0.650832
0.630606
0.621193
0.616136
0.612514
0.609318
0.606315
0.603508
0.600931
0.598607
0.596545
0.594739
0.593209
0.591831
1.99781
1.99781
1.99781
1.99781
1.99781
1.99781
1.99781
1.99781
1.99781
1.99781
1.9978
1.9978
1.99779
1.99777
1.99773
1.99767
1.99755
1.99736
1.99702
1.99643
1.9954
1.99359
1.99046
1.985
1.97555
1.95929
1.93163
1.8855
1.81098
1.69716
1.53775
1.3411
1.13377
0.948565
0.808029
0.71698
0.6661
0.64102
0.629447
0.623691
0.619998
0.616933
0.614096
0.611439
0.608989
0.60677
0.604793
0.603053
0.60157
0.60022
1.99781
1.99781
1.99781
1.99781
1.99781
1.99781
1.99781
1.99781
1.99781
1.99781
1.99781
1.9978
1.99779
1.99777
1.99774
1.99769
1.99759
1.99743
1.99714
1.99664
1.99576
1.99423
1.99157
1.98694
1.97892
1.96509
1.94148
1.90186
1.83716
1.73647
1.59123
1.40453
1.19796
1.00406
0.849716
0.744973
0.68384
0.652637
0.638112
0.631253
0.627314
0.624314
0.621617
0.619098
0.616765
0.614642
0.612742
0.611063
0.609623
0.608302
1.99781
1.99781
1.99781
1.99781
1.99781
1.99781
1.99781
1.99781
1.99781
1.99781
1.99781
1.9978
1.99779
1.99778
1.99775
1.99771
1.99763
1.99749
1.99724
1.99682
1.99608
1.99479
1.99255
1.98864
1.98187
1.97019
1.95018
1.91641
1.86075
1.77268
1.64217
1.4677
1.26503
1.06476
0.897118
0.777684
0.704678
0.66589
0.64743
0.638937
0.634513
0.631485
0.628896
0.626501
0.624276
0.622242
0.620414
0.61879
0.617391
0.616098
1.99781
1.99781
1.99781
1.99781
1.99781
1.99781
1.99781
1.99781
1.99781
1.99781
1.99781
1.9978
1.9978
1.99778
1.99776
1.99772
1.99766
1.99754
1.99734
1.99698
1.99636
1.99528
1.9934
1.99012
1.98444
1.97463
1.95779
1.92923
1.88176
1.80555
1.68985
1.52943
1.33393
1.13023
0.950511
0.815787
0.729323
0.681314
0.657725
0.646908
0.641668
0.638478
0.635949
0.633661
0.631538
0.629587
0.627825
0.626254
0.624894
0.623628
1.99781
1.99781
1.99781
1.99781
1.99781
1.99781
1.99781
1.99781
1.99781
1.99781
1.99781
1.99781
1.9978
1.99779
1.99777
1.99774
1.99768
1.99758
1.99741
1.99712
1.9966
1.9957
1.99413
1.9914
1.98667
1.97848
1.96439
1.94041
1.90026
1.83498
1.73375
1.58863
1.4034
1.19973
1.00995
0.859891
0.758546
0.699547
0.669409
0.655386
0.648883
0.64534
0.642799
0.640595
0.638564
0.636693
0.634994
0.633472
0.632148
0.63091
1.99781
1.99781
1.99781
1.99781
1.99781
1.99781
1.99781
1.99781
1.99781
1.99781
1.99781
1.99781
1.9978
1.99779
1.99778
1.99775
1.9977
1.99762
1.99748
1.99724
1.99681
1.99606
1.99476
1.99249
1.98857
1.98177
1.97007
1.95007
1.91638
1.861
1.77352
1.64431
1.47205
1.27222
1.07517
0.91047
0.793145
0.721334
0.683001
0.664668
0.656302
0.652133
0.649475
0.64732
0.645369
0.643572
0.641934
0.640459
0.639171
0.63796
1.99781
1.99781
1.99781
1.99781
1.99781
1.99781
1.99781
1.99781
1.99781
1.99781
1.99781
1.99781
1.9978
1.9978
1.99778
1.99776
1.99772
1.99766
1.99754
1.99734
1.99698
1.99636
1.99529
1.99343
1.99019
1.98458
1.97491
1.95834
1.93028
1.88372
1.809
1.69571
1.53848
1.34634
1.14558
0.967779
0.833888
0.747508
0.699138
0.675141
0.664125
0.658948
0.656017
0.653854
0.651968
0.650239
0.648659
0.64723
0.645976
0.644793
1.99781
1.99781
1.99781
1.99781
1.99781
1.99781
1.99781
1.99781
1.99781
1.99781
1.99781
1.99781
1.99781
1.9978
1.99779
1.99777
1.99774
1.99768
1.99759
1.99742
1.99713
1.99662
1.99574
1.99421
1.99156
1.98695
1.97901
1.96536
1.94216
1.90335
1.84022
1.7423
1.60142
1.42051
1.22016
1.03176
0.881439
0.778965
0.718579
0.687308
0.672625
0.665915
0.662481
0.660225
0.658374
0.656706
0.655181
0.653796
0.652577
0.651421
1.99781
1.99781
1.99781
1.99781
1.99781
1.99781
1.99781
1.99781
1.99781
1.99781
1.99781
1.99781
1.99781
1.9978
1.99779
1.99778
1.99775
1.99771
1.99763
1.99749
1.99725
1.99684
1.99612
1.99487
1.9927
1.98895
1.98246
1.97129
1.95222
1.92013
1.86732
1.78381
1.6598
1.49307
1.29752
1.10197
0.936263
0.816607
0.742202
0.701794
0.682168
0.673216
0.668948
0.666466
0.664605
0.662985
0.661512
0.660171
0.658985
0.657856
1.99781
1.99781
1.99781
1.99781
1.99781
1.99781
1.99781
1.99781
1.99781
1.99781
1.99781
1.99781
1.99781
1.9978
1.9978
1.99779
1.99776
1.99773
1.99766
1.99755
1.99736
1.99702
1.99644
1.99542
1.99366
1.99061
1.98533
1.97624
1.96068
1.93433
1.89057
1.82022
1.71285
1.56241
1.37593
1.17749
0.998509
0.861269
0.770975
0.719366
0.693235
0.681105
0.675536
0.67263
0.670686
0.66909
0.667662
0.666363
0.665211
0.66411
1.99781
1.99781
1.99781
1.99781
1.99781
1.99781
1.99781
1.99781
1.99781
1.99781
1.99781
1.99781
1.99781
1.99781
1.9978
1.99779
1.99777
1.99774
1.99769
1.9976
1.99744
1.99717
1.9967
1.99588
1.99445
1.99199
1.98772
1.98036
1.96773
1.94625
1.9103
1.85168
1.76015
1.62712
1.45349
1.25695
1.06791
0.913603
0.805912
0.740929
0.706442
0.689928
0.682413
0.678789
0.676648
0.675037
0.673644
0.672384
0.671265
0.670192
1.99781
1.99781
1.99781
1.99781
1.99781
1.99781
1.99781
1.99781
1.99781
1.99781
1.99781
1.99781
1.99781
1.99781
1.9978
1.9978
1.99778
1.99776
1.99772
1.99764
1.99752
1.9973
1.99692
1.99625
1.99511
1.99312
1.98969
1.98376
1.97356
1.95617
1.92686
1.87852
1.80157
1.68615
1.52826
1.33851
1.14367
0.973963
0.847993
0.767509
0.722554
0.70015
0.689819
0.685054
0.682537
0.680847
0.679468
0.678243
0.677157
0.676114
1.99781
1.99781
1.99781
1.99781
1.99781
1.99781
1.99781
1.99781
1.99781
1.99781
1.99781
1.99781
1.99781
1.99781
1.99781
1.9978
1.99779
1.99777
1.99773
1.99768
1.99757
1.9974
1.99709
1.99656
1.99565
1.99405
1.9913
1.98655
1.97836
1.96436
1.94064
1.90114
1.83725
1.73885
1.5985
1.42007
1.22446
1.04226
0.898051
0.800211
0.742497
0.712374
0.698083
0.691581
0.688422
0.686548
0.685148
0.683949
0.682895
0.681882
1.99781
1.99781
1.99781
1.99781
1.99781
1.99781
1.99781
1.99781
1.99781
1.99781
1.99781
1.99781
1.99781
1.99781
1.99781
1.9978
1.99779
1.99778
1.99775
1.9977
1.99762
1.99748
1.99724
1.99682
1.99608
1.99481
1.99262
1.98882
1.98229
1.97107
1.952
1.92
1.86756
1.78496
1.66284
1.4994
1.30838
1.11785
0.956631
0.840141
0.767342
0.727368
0.707658
0.698598
0.694404
0.692185
0.690704
0.68951
0.688481
0.687495
1.99781
1.99781
1.99781
1.99781
1.99781
1.99781
1.99781
1.99781
1.99781
1.99781
1.99781
1.99781
1.99781
1.99781
1.99781
1.9978
1.9978
1.99778
1.99776
1.99773
1.99766
1.99755
1.99736
1.99702
1.99644
1.99543
1.99368
1.99067
1.98547
1.97654
1.9613
1.93557
1.89295
1.82458
1.72039
1.57442
1.39313
1.19944
1.02383
0.888288
0.798269
0.746075
0.719141
0.706426
0.700636
0.69782
0.69616
0.694937
0.693922
0.692958
1.99781
1.99781
1.99781
1.99781
1.99781
1.99781
1.99781
1.99781
1.99781
1.99781
1.99781
1.99781
1.99781
1.99781
1.99781
1.99781
1.9978
1.99779
1.99777
1.99774
1.99769
1.9976
1.99745
1.99718
1.99672
1.99593
1.99455
1.99216
1.98805
1.98097
1.96886
1.94832
1.91399
1.85808
1.77074
1.64344
1.47623
1.28511
1.09913
0.945364
0.836493
0.769605
0.733302
0.715509
0.707338
0.703554
0.70156
0.70025
0.69923
0.698284
1.99781
1.99781
1.99781
1.99781
1.99781
1.99781
1.99781
1.99781
1.99781
1.99781
1.99781
1.99781
1.99781
1.99781
1.99781
1.99781
1.9978
1.9978
1.99778
1.99776
1.99772
1.99765
1.99753
1.99732
1.99695
1.99633
1.99524
1.99336
1.99012
1.98453
1.97496
1.95866
1.93123
1.88602
1.81392
1.70529
1.55528
1.37243
1.18131
1.01163
0.883141
0.799207
0.751102
0.726444
0.714828
0.709535
0.706968
0.705478
0.704419
0.703481
1.99781
1.99781
1.99781
1.99781
1.99781
1.99781
1.99781
1.99781
1.99781
1.99781
1.99781
1.99781
1.99781
1.99781
1.99781
1.99781
1.99781
1.9978
1.99779
1.99777
1.99774
1.99768
1.99759
1.99742
1.99714
1.99664
1.99579
1.99432
1.99177
1.98739
1.97986
1.967
1.94524
1.90902
1.85031
1.75937
1.62826
1.45865
1.26842
1.08669
0.939079
0.836192
0.77369
0.740009
0.723546
0.715982
0.712482
0.71066
0.709507
0.70856
1.99781
1.99781
1.99781
1.99781
1.99781
1.99781
1.99781
1.99781
1.99781
1.99781
1.99781
1.99781
1.99781
1.99781
1.99781
1.99781
1.99781
1.9978
1.99779
1.99778
1.99775
1.99771
1.99764
1.99751
1.99728
1.9969
1.99623
1.99508
1.99309
1.98966
1.98376
1.97367
1.95653
1.92776
1.8805
1.80565
1.69374
1.54108
1.35787
1.16938
1.00471
0.881805
0.802378
0.757188
0.734096
0.723212
0.71825
0.715862
0.714522
0.713532
1.99781
1.99781
1.99781
1.99781
1.99781
1.99781
1.99781
1.99781
1.99781
1.99781
1.99781
1.99781
1.99781
1.99781
1.99781
1.99781
1.99781
1.99781
1.9978
1.99779
1.99777
1.99773
1.99768
1.99758
1.9974
1.9971
1.99658
1.99568
1.99413
1.99146
1.98686
1.97898
1.96555
1.94287
1.90522
1.8445
1.75096
1.61739
1.44669
1.25772
1.07975
0.937043
0.838561
0.779173
0.747271
0.731672
0.724492
0.721181
0.719503
0.718416
1.99781
1.99781
1.99781
1.99781
1.99781
1.99781
1.99781
1.99781
1.99781
1.99781
1.99781
1.99781
1.99781
1.99781
1.99781
1.99781
1.99781
1.99781
1.9978
1.99779
1.99778
1.99775
1.99771
1.99763
1.99749
1.99726
1.99686
1.99616
1.99496
1.99288
1.98931
1.98319
1.97272
1.95495
1.92523
1.87658
1.79982
1.6859
1.53189
1.34899
1.16308
1.00242
0.883593
0.807335
0.764083
0.741975
0.731532
0.726768
0.724516
0.723236
1.99781
1.99781
1.99781
1.99781
1.99781
1.99781
1.99781
1.99781
1.99781
1.99781
1.99781
1.99781
1.99781
1.99781
1.99781
1.99781
1.99781
1.99781
1.9978
1.9978
1.99779
1.99777
1.99773
1.99767
1.99757
1.99738
1.99707
1.99653
1.9956
1.994
1.99124
1.98649
1.97837
1.96455
1.94126
1.9027
1.84069
1.7457
1.61088
1.43998
1.25264
1.07774
0.938579
0.843154
0.785769
0.754939
0.739825
0.732849
0.72966
0.728035
1.99781
1.99781
1.99781
1.99781
1.99781
1.99781
1.99781
1.99781
1.99781
1.99781
1.99781
1.99781
1.99781
1.99781
1.99781
1.99781
1.99781
1.99781
1.99781
1.9978
1.99779
1.99778
1.99775
1.9977
1.99762
1.99748
1.99724
1.99683
1.99611
1.99487
1.99275
1.98909
1.98282
1.97211
1.95399
1.92371
1.87428
1.7966
1.68176
1.52745
1.34554
1.16186
1.00413
0.888073
0.813763
0.771611
0.750005
0.739754
0.735089
0.732877
1.99781
1.99781
1.99781
1.99781
1.99781
1.99781
1.99781
1.99781
1.99781
1.99781
1.99781
1.99781
1.99781
1.99781
1.99781
1.99781
1.99781
1.99781
1.99781
1.9978
1.9978
1.99779
1.99776
1.99773
1.99767
1.99756
1.99737
1.99705
1.9965
1.99555
1.99392
1.99111
1.98629
1.97804
1.96402
1.94044
1.90147
1.83899
1.7435
1.60857
1.43838
1.25265
1.08008
0.943285
0.849621
0.79328
0.762919
0.747958
0.741037
0.737868
1.99781
1.99781
1.99781
1.99781
1.99781
1.99781
1.99781
1.99781
1.99781
1.99781
1.99781
1.99781
1.99781
1.99781
1.99781
1.99781
1.99781
1.99781
1.99781
1.99781
1.9978
1.99779
1.99778
1.99775
1.9977
1.99762
1.99748
1.99723
1.99681
1.99608
1.99483
1.99268
1.98899
1.98266
1.97187
1.95363
1.92321
1.87364
1.79585
1.68123
1.52765
1.34705
1.16526
1.00946
0.894869
0.821449
0.77966
0.758121
0.747849
0.743169
1.99781
1.99781
1.99781
1.99781
1.99781
1.99781
1.99781
1.99781
1.99781
1.99781
1.99781
1.99781
1.99781
1.99781
1.99781
1.99781
1.99781
1.99781
1.99781
1.99781
1.9978
1.9978
1.99778
1.99776
1.99773
1.99766
1.99756
1.99737
1.99705
1.99649
1.99554
1.9939
1.99107
1.98624
1.97798
1.96396
1.9404
1.90153
1.83926
1.7443
1.61029
1.44143
1.25741
1.08641
0.950768
0.857749
0.801575
0.771128
0.756023
0.749026
1.99781
1.99781
1.99781
1.99781
1.99781
1.99781
1.99781
1.99781
1.99781
1.99781
1.99781
1.99781
1.99781
1.99781
1.99781
1.99781
1.99781
1.99781
1.99781
1.99781
1.99781
1.9978
1.99779
1.99778
1.99775
1.9977
1.99762
1.99747
1.99723
1.99681
1.99608
1.99483
1.99269
1.989
1.98271
1.97198
1.95387
1.92369
1.87455
1.79755
1.68409
1.53207
1.35326
1.1729
1.01801
0.903777
0.830238
0.788129
0.766252
0.755807
1.99781
1.99781
1.99781
1.99781
1.99781
1.99781
1.99781
1.99781
1.99781
1.99781
1.99781
1.99781
1.99781
1.99781
1.99781
1.99781
1.99781
1.99781
1.99781
1.99781
1.99781
1.9978
1.9978
1.99778
1.99776
1.99773
1.99766
1.99756
1.99737
1.99705
1.9965
1.99555
1.99392
1.99113
1.98635
1.97819
1.96434
1.94111
1.90279
1.84146
1.74787
1.61572
1.44893
1.26649
1.09637
0.960836
0.867359
0.810543
0.779475
0.764045
1.99781
1.99781
1.99781
1.99781
1.99781
1.99781
1.99781
1.99781
1.99781
1.99781
1.99781
1.99781
1.99781
1.99781
1.99781
1.99781
1.99781
1.99781
1.99781
1.99781
1.99781
1.99781
1.9978
1.99779
1.99778
1.99775
1.9977
1.99762
1.99748
1.99724
1.99682
1.9961
1.99487
1.99276
1.98914
1.98295
1.97243
1.95466
1.92508
1.87694
1.80144
1.69009
1.54049
1.36368
1.18447
1.0296
0.914597
0.840028
0.796909
0.774489
1.99781
1.99781
1.99781
1.99781
1.99781
1.99781
1.99781
1.99781
1.99781
1.99781
1.99781
1.99781
1.99781
1.99781
1.99781
1.99781
1.99781
1.99781
1.99781
1.99781
1.99781
1.99781
1.9978
1.9978
1.99779
1.99776
1.99773
1.99767
1.99756
1.99738
1.99706
1.99652
1.9956
1.994
1.99127
1.9866
1.97864
1.96514
1.94249
1.90516
1.84535
1.75401
1.62459
1.46037
1.27964
1.10976
0.973283
0.878377
0.820063
0.788152
1.99781
1.99781
1.99781
1.99781
1.99781
1.99781
1.99781
1.99781
1.99781
1.99781
1.99781
1.99781
1.99781
1.99781
1.99781
1.99781
1.99781
1.99781
1.99781
1.99781
1.99781
1.99781
1.99781
1.9978
1.99779
1.99778
1.99775
1.9977
1.99762
1.99749
1.99725
1.99684
1.99615
1.99495
1.9929
1.98938
1.98338
1.97317
1.95596
1.9273
1.88063
1.80737
1.69893
1.55247
1.37814
1.19973
1.04406
0.92732
0.850705
0.80636
1.99781
1.99781
1.99781
1.99781
1.99781
1.99781
1.99781
1.99781
1.99781
1.99781
1.99781
1.99781
1.99781
1.99781
1.99781
1.99781
1.99781
1.99781
1.99781
1.99781
1.99781
1.99781
1.99781
1.9978
1.9978
1.99779
1.99777
1.99773
1.99767
1.99757
1.99739
1.99709
1.99656
1.99567
1.99413
1.99149
1.98698
1.97931
1.9663
1.94449
1.90851
1.85083
1.76243
1.63657
1.47565
1.29663
1.12648
0.988217
0.890746
0.830765
1.99781
1.99781
1.99781
1.99781
1.99781
1.99781
1.99781
1.99781
1.99781
1.99781
1.99781
1.99781
1.99781
1.99781
1.99781
1.99781
1.99781
1.99781
1.99781
1.99781
1.99781
1.99781
1.99781
1.99781
1.9978
1.99779
1.99778
1.99775
1.99771
1.99763
1.9975
1.99727
1.99688
1.99621
1.99506
1.99309
1.98972
1.98396
1.97419
1.95771
1.93027
1.88553
1.8151
1.71043
1.56795
1.39647
1.2188
1.06167
0.942035
0.863313
1.99781
1.99781
1.99781
1.99781
1.99781
1.99781
1.99781
1.99781
1.99781
1.99781
1.99781
1.99781
1.99781
1.99781
1.99781
1.99781
1.99781
1.99781
1.99781
1.99781
1.99781
1.99781
1.99781
1.99781
1.9978
1.9978
1.99779
1.99777
1.99773
1.99768
1.99758
1.99741
1.99712
1.99662
1.99576
1.99429
1.99178
1.98749
1.98018
1.96781
1.94706
1.91281
1.85775
1.7731
1.65168
1.49476
1.31786
1.14715
1.00604
0.906137
1.99781
1.99781
1.99781
1.99781
1.99781
1.99781
1.99781
1.99781
1.99781
1.99781
1.99781
1.99781
1.99781
1.99781
1.99781
1.99781
1.99781
1.99781
1.99781
1.99781
1.99781
1.99781
1.99781
1.99781
1.99781
1.9978
1.99779
1.99778
1.99775
1.99771
1.99764
1.99751
1.9973
1.99692
1.99629
1.9952
1.99333
1.99015
1.98471
1.97548
1.95992
1.93398
1.89163
1.82477
1.72473
1.58724
1.41948
1.24275
1.08346
0.961404
1.99781
1.99781
1.99781
1.99781
1.99781
1.99781
1.99781
1.99781
1.99781
1.99781
1.99781
1.99781
1.99781
1.99781
1.99781
1.99781
1.99781
1.99781
1.99781
1.99781
1.99781
1.99781
1.99781
1.99781
1.99781
1.99781
1.9978
1.99779
1.99777
1.99774
1.99768
1.99759
1.99743
1.99716
1.99669
1.99588
1.9945
1.99215
1.98812
1.98128
1.96969
1.95026
1.91814
1.8664
1.78637
1.67064
1.51902
1.34515
1.17379
1.03083
1.99781
1.99781
1.99781
1.99781
1.99781
1.99781
1.99781
1.99781
1.99781
1.99781
1.99781
1.99781
1.99781
1.99781
1.99781
1.99781
1.99781
1.99781
1.99781
1.99781
1.99781
1.99781
1.99781
1.99781
1.99781
1.99781
1.9978
1.99779
1.99778
1.99776
1.99772
1.99765
1.99753
1.99733
1.99698
1.99639
1.99538
1.99364
1.99069
1.98565
1.97709
1.96267
1.93863
1.89931
1.83694
1.74299
1.61221
1.44991
1.27512
1.11518
1.99781
1.99781
1.99781
1.99781
1.99781
1.99781
1.99781
1.99781
1.99781
1.99781
1.99781
1.99781
1.99781
1.99781
1.99781
1.99781
1.99781
1.99781
1.99781
1.99781
1.99781
1.99781
1.99781
1.99781
1.99781
1.99781
1.99781
1.9978
1.99779
1.99777
1.99774
1.99769
1.99761
1.99746
1.99721
1.99677
1.99603
1.99477
1.99261
1.98892
1.98266
1.97207
1.95431
1.92493
1.87745
1.80363
1.69567
1.55195
1.3835
1.21367
1.99781
1.99781
1.99781
1.99781
1.99781
1.99781
1.99781
1.99781
1.99781
1.99781
1.99781
1.99781
1.99781
1.99781
1.99781
1.99781
1.99781
1.99781
1.99781
1.99781
1.99781
1.99781
1.99781
1.99781
1.99781
1.99781
1.99781
1.9978
1.9978
1.99778
1.99776
1.99773
1.99766
1.99756
1.99737
1.99706
1.99652
1.9956
1.99404
1.99137
1.98683
1.97914
1.96619
1.9446
1.90922
1.85289
1.76729
1.6464
1.49324
1.32331
1.99781
1.99781
1.99781
1.99781
1.99781
1.99781
1.99781
1.99781
1.99781
1.99781
1.99781
1.99781
1.99781
1.99781
1.99781
1.99781
1.99781
1.99781
1.99781
1.99781
1.99781
1.99781
1.99781
1.99781
1.99781
1.99781
1.99781
1.99781
1.9978
1.99779
1.99778
1.99775
1.9977
1.99763
1.99749
1.99727
1.99688
1.99622
1.9951
1.99318
1.98993
1.98441
1.97509
1.95948
1.93365
1.8918
1.82634
1.72941
1.59805
1.43866
1.99781
1.99781
1.99781
1.99781
1.99781
1.99781
1.99781
1.99781
1.99781
1.99781
1.99781
1.99781
1.99781
1.99781
1.99781
1.99781
1.99781
1.99781
1.99781
1.99781
1.99781
1.99781
1.99781
1.99781
1.99781
1.99781
1.99781
1.99781
1.9978
1.9978
1.99779
1.99777
1.99774
1.99768
1.99759
1.99742
1.99715
1.99668
1.99588
1.99452
1.99221
1.98829
1.98168
1.97055
1.95204
1.92168
1.87317
1.79869
1.69204
1.55196
1.99781
1.99781
1.99781
1.99781
1.99781
1.99781
1.99781
1.99781
1.99781
1.99781
1.99781
1.99781
1.99781
1.99781
1.99781
1.99781
1.99781
1.99781
1.99781
1.99781
1.99781
1.99781
1.99781
1.99781
1.99781
1.99781
1.99781
1.99781
1.99781
1.9978
1.99779
1.99778
1.99776
1.99772
1.99765
1.99754
1.99734
1.99701
1.99645
1.99549
1.99387
1.99112
1.98648
1.97866
1.9656
1.944
1.90897
1.85374
1.77114
1.65535
1.99781
1.99781
1.99781
1.99781
1.99781
1.99781
1.99781
1.99781
1.99781
1.99781
1.99781
1.99781
1.99781
1.99781
1.99781
1.99781
1.99781
1.99781
1.99781
1.99781
1.99781
1.99781
1.99781
1.99781
1.99781
1.99781
1.99781
1.99781
1.99781
1.99781
1.9978
1.99779
1.99777
1.99775
1.9977
1.99762
1.99748
1.99725
1.99686
1.99619
1.99506
1.99315
1.98992
1.98449
1.9754
1.96027
1.93549
1.89565
1.83408
1.74335
1.99781
1.99781
1.99781
1.99781
1.99781
1.99781
1.99781
1.99781
1.99781
1.99781
1.99781
1.99781
1.99781
1.99781
1.99781
1.99781
1.99781
1.99781
1.99781
1.99781
1.99781
1.99781
1.99781
1.99781
1.99781
1.99781
1.99781
1.99781
1.99781
1.99781
1.9978
1.9978
1.99779
1.99777
1.99773
1.99768
1.99758
1.99742
1.99715
1.99669
1.99591
1.99459
1.99236
1.98862
1.98234
1.97187
1.95458
1.92641
1.88181
1.81354
1.99781
1.99781
1.99781
1.99781
1.99781
1.99781
1.99781
1.99781
1.99781
1.99781
1.99781
1.99781
1.99781
1.99781
1.99781
1.99781
1.99781
1.99781
1.99781
1.99781
1.99781
1.99781
1.99781
1.99781
1.99781
1.99781
1.99781
1.99781
1.99781
1.99781
1.99781
1.9978
1.99779
1.99778
1.99776
1.99772
1.99765
1.99754
1.99735
1.99704
1.9965
1.9956
1.99407
1.9915
1.9872
1.98
1.96805
1.94841
1.91675
1.86693
1.99781
1.99781
1.99781
1.99781
1.99781
1.99781
1.99781
1.99781
1.99781
1.99781
1.99781
1.99781
1.99781
1.99781
1.99781
1.99781
1.99781
1.99781
1.99781
1.99781
1.99781
1.99781
1.99781
1.99781
1.99781
1.99781
1.99781
1.99781
1.99781
1.99781
1.99781
1.99781
1.9978
1.99779
1.99778
1.99775
1.9977
1.99763
1.9975
1.99728
1.99691
1.99629
1.99525
1.9935
1.99056
1.98563
1.97743
1.96385
1.94169
1.90612
1.99781
1.99781
1.99781
1.99781
1.99781
1.99781
1.99781
1.99781
1.99781
1.99781
1.99781
1.99781
1.99781
1.99781
1.99781
1.99781
1.99781
1.99781
1.99781
1.99781
1.99781
1.99781
1.99781
1.99781
1.99781
1.99781
1.99781
1.99781
1.99781
1.99781
1.99781
1.99781
1.9978
1.9978
1.99779
1.99777
1.99774
1.99769
1.9976
1.99745
1.9972
1.99678
1.99606
1.99487
1.99286
1.9895
1.98389
1.97456
1.95919
1.93418
1.99781
1.99781
1.99781
1.99781
1.99781
1.99781
1.99781
1.99781
1.99781
1.99781
1.99781
1.99781
1.99781
1.99781
1.99781
1.99781
1.99781
1.99781
1.99781
1.99781
1.99781
1.99781
1.99781
1.99781
1.99781
1.99781
1.99781
1.99781
1.99781
1.99781
1.99781
1.99781
1.99781
1.9978
1.9978
1.99778
1.99776
1.99773
1.99767
1.99756
1.99739
1.99711
1.99662
1.99581
1.99444
1.99215
1.98832
1.98193
1.97135
1.95394
1.99781
1.99781
1.99781
1.99781
1.99781
1.99781
1.99781
1.99781
1.99781
1.99781
1.99781
1.99781
1.99781
1.99781
1.99781
1.99781
1.99781
1.99781
1.99781
1.99781
1.99781
1.99781
1.99781
1.99781
1.99781
1.99781
1.99781
1.99781
1.99781
1.99781
1.99781
1.99781
1.99781
1.99781
1.9978
1.99779
1.99778
1.99775
1.99771
1.99764
1.99753
1.99733
1.997
1.99645
1.99552
1.99396
1.99135
1.98698
1.97972
1.9677
1.99781
1.99781
1.99781
1.99781
1.99781
1.99781
1.99781
1.99781
1.99781
1.99781
1.99781
1.99781
1.99781
1.99781
1.99781
1.99781
1.99781
1.99781
1.99781
1.99781
1.99781
1.99781
1.99781
1.99781
1.99781
1.99781
1.99781
1.99781
1.99781
1.99781
1.99781
1.99781
1.99781
1.99781
1.99781
1.9978
1.99779
1.99777
1.99775
1.9977
1.99762
1.99749
1.99726
1.99688
1.99625
1.99519
1.99341
1.99044
1.98546
1.9772
1.99781
1.99781
1.99781
1.99781
1.99781
1.99781
1.99781
1.99781
1.99781
1.99781
1.99781
1.99781
1.99781
1.99781
1.99781
1.99781
1.99781
1.99781
1.99781
1.99781
1.99781
1.99781
1.99781
1.99781
1.99781
1.99781
1.99781
1.99781
1.99781
1.99781
1.99781
1.99781
1.99781
1.99781
1.99781
1.9978
1.9978
1.99779
1.99777
1.99773
1.99768
1.99759
1.99744
1.99718
1.99675
1.99603
1.99482
1.99279
1.98939
1.98373
1.99781
1.99781
1.99781
1.99781
1.99781
1.99781
1.99781
1.99781
1.99781
1.99781
1.99781
1.99781
1.99781
1.99781
1.99781
1.99781
1.99781
1.99781
1.99781
1.99781
1.99781
1.99781
1.99781
1.99781
1.99781
1.99781
1.99781
1.99781
1.99781
1.99781
1.99781
1.99781
1.99781
1.99781
1.99781
1.99781
1.9978
1.9978
1.99778
1.99776
1.99772
1.99766
1.99756
1.99738
1.99709
1.9966
1.99578
1.99439
1.99208
1.98821
1.99781
1.99781
1.99781
1.99781
1.99781
1.99781
1.99781
1.99781
1.99781
1.99781
1.99781
1.99781
1.99781
1.99781
1.99781
1.99781
1.99781
1.99781
1.99781
1.99781
1.99781
1.99781
1.99781
1.99781
1.99781
1.99781
1.99781
1.99781
1.99781
1.99781
1.99781
1.99781
1.99781
1.99781
1.99781
1.99781
1.99781
1.9978
1.99779
1.99778
1.99775
1.99771
1.99764
1.99752
1.99732
1.99699
1.99643
1.99549
1.99391
1.99127
1.99781
1.99781
1.99781
1.99781
1.99781
1.99781
1.99781
1.99781
1.99781
1.99781
1.99781
1.99781
1.99781
1.99781
1.99781
1.99781
1.99781
1.99781
1.99781
1.99781
1.99781
1.99781
1.99781
1.99781
1.99781
1.99781
1.99781
1.99781
1.99781
1.99781
1.99781
1.99781
1.99781
1.99781
1.99781
1.99781
1.99781
1.99781
1.9978
1.99779
1.99777
1.99774
1.9977
1.99762