/*--------------------------------*- C++ -*----------------------------------*\
| =========                 |                                                 |
| \\      /  F ield         | OpenFOAM: The Open Source CFD Toolbox           |
|  \\    /   O peration     | Version:  2412                                  |
|   \\  /    A nd           | Website:  www.openfoam.com                      |
|    \\/     M anipulation  |                                                 |
\*---------------------------------------------------------------------------*/
FoamFile
{
    version     2.0;
    format      ascii;
    arch        "LSB;label=32;scalar=64";
    class       volScalarField;
    location    "0.0999";
    object      p;
}
// * * * * * * * * * * * * * * * * * * * * * * * * * * * * * * * * * * * * * //

dimensions      [1 -1 -2 0 0 0 0];

internalField   nonuniform List<scalar> 
15000
(
101325
101325
101325
101325
101325
101325
101325
101326
101327
101328
101330
101333
101340
101351
101370
101404
101464
101570
101757
102085
102661
103675
105455
108574
114013
123442
139536
166016
206397
260571
321529
377490
419241
444976
458671
465705
470020
473623
477233
480991
484876
488866
492971
497233
501697
506445
511582
517252
523624
530807
101325
101325
101325
101325
101325
101325
101325
101326
101326
101328
101330
101333
101339
101350
101370
101403
101463
101568
101752
102076
102647
103649
105410
108493
113872
123196
139116
165335
205395
259310
320228
376400
418472
444471
458312
465394
469697
473255
476801
480477
484259
488118
492049
496070
500199
504461
508855
513345
517759
521556
101325
101325
101325
101325
101325
101325
101325
101326
101326
101328
101330
101333
101339
101350
101369
101402
101460
101563
101743
102060
102618
103599
105321
108336
113597
122717
138300
164010
203439
256823
317617
374155
416832
443359
457503
464685
468960
472424
475837
479352
482938
486555
490183
493815
497440
501037
504550
507873
510813
513036
101325
101325
101325
101325
101325
101325
101325
101326
101326
101328
101329
101333
101339
101349
101367
101399
101456
101555
101730
102037
102577
103526
105192
108110
113200
122026
137122
162091
200589
253167
313727
370757
414321
441656
456288
463650
467907
471252
474496
477806
481154
484488
487777
491000
494132
497137
499952
502482
504600
506115
101325
101325
101325
101325
101325
101325
101325
101326
101326
101327
101329
101332
101338
101348
101366
101396
101451
101546
101713
102007
102525
103433
105028
107822
112695
121149
135624
159644
196928
248413
308590
366197
410910
439343
454669
462310
466577
469792
472844
475929
479021
482065
485023
487868
490571
493095
495388
497380
498988
500095
101325
101325
101325
101325
101325
101325
101325
101326
101326
101327
101329
101332
101337
101347
101364
101393
101444
101535
101693
101972
102463
103324
104836
107483
112102
120117
133858
156745
192552
242651
302253
360470
406570
436399
452649
460698
465023
468119
470976
473832
476673
479444
482100
484615
486962
489108
491015
492633
493911
494775
101325
101325
101325
101325
101325
101325
101325
101326
101326
101327
101329
101332
101337
101346
101361
101389
101437
101522
101671
101933
102394
103202
104621
107105
111439
118963
131880
153482
187575
235990
294777
353571
401258
432786
450220
458834
463289
466290
468960
471596
474202
476722
479114
481350
483407
485259
486879
488235
489293
490007
101325
101325
101325
101325
101325
101325
101325
101326
101326
101327
101329
101331
101336
101344
101359
101384
101429
101509
101647
101891
102319
103071
104389
106698
110726
117722
129749
149946
182121
228557
286241
345504
394927
428452
447356
456725
461406
464353
466855
469285
471673
473971
476135
478138
479960
481583
482988
484153
485060
485677
101325
101325
101325
101325
101325
101325
101325
101326
101326
101327
101328
101331
101335
101343
101356
101380
101421
101494
101622
101847
102242
102934
104148
106273
109982
116426
127520
146229
176319
220495
276744
336281
387519
423328
444015
454362
459392
462342
464701
466944
469136
471238
473206
475014
476646
478088
479328
480353
481151
481700
101325
101325
101325
101325
101325
101325
101325
101326
101326
101327
101328
101330
101334
101341
101354
101375
101413
101480
101597
101802
102163
102795
103902
105842
109226
115109
125250
142421
170301
211959
266407
325933
378979
417327
440132
451722
457254
460280
462530
464607
466623
468551
470351
471996
473473
474772
475883
476800
477518
478019
101325
101325
101325
101325
101325
101325
101325
101326
101326
101327
101328
101330
101333
101340
101351
101371
101405
101466
101572
101758
102084
102656
103658
105412
108474
113798
122986
138603
164195
203113
255377
314519
369261
410352
435622
448757
454980
458177
460363
462296
464155
465930
467585
469094
470442
471624
472634
473467
474123
474587
101325
101325
101325
101325
101325
101325
101325
101325
101326
101326
101327
101329
101333
101338
101348
101366
101397
101451
101547
101714
102007
102520
103419
104993
107740
112517
120771
134850
158121
194124
243822
302125
358331
402296
430379
445402
452546
456033
458209
460025
461745
463385
464915
466307
467549
468635
469562
470329
470937
471372
101325
101325
101325
101325
101325
101325
101325
101325
101326
101326
101327
101329
101332
101337
101346
101362
101389
101438
101523
101672
101933
102390
103190
104590
107035
111287
118642
131225
152188
185159
231932
288877
346187
393054
424277
441566
449906
453837
456073
457804
459402
460923
462342
463634
464786
465793
466652
467364
467933
468346
101325
101325
101325
101325
101325
101325
101325
101325
101326
101326
101327
101328
101331
101336
101344
101358
101382
101425
101500
101632
101863
102266
102973
104209
106368
110123
116625
127777
146489
176373
219910
274941
332862
382532
417175
437136
446997
451562
453950
455635
457130
458544
459866
461071
462147
463086
463889
464556
465092
465486
101325
101325
101325
101325
101325
101325
101325
101325
101326
101326
101327
101328
101330
101334
101341
101354
101375
101413
101479
101595
101797
102151
102771
103854
105745
109038
114741
124546
141098
167905
207962
260517
318439
370656
408922
431974
443732
449168
451825
453515
454929
456249
457484
458613
459622
460504
461259
461889
462398
462776
101325
101325
101325
101325
101325
101325
101325
101325
101325
101326
101327
101328
101330
101333
101339
101350
101369
101402
101459
101560
101737
102045
102584
103527
105172
108037
113003
121558
136073
159875
196291
245839
303056
357396
399367
425917
439999
446597
449676
451437
452798
454036
455193
456255
457206
458038
458752
459349
459835
460199
101325
101325
101325
101325
101325
101325
101325
101325
101325
101326
101326
101327
101329
101332
101337
101347
101363
101392
101442
101529
101681
101948
102414
103229
104650
107126
111420
118828
131451
152375
185084
231164
286911
342771
388375
418785
435658
443768
447466
449389
450731
451902
452989
453990
454889
455679
456357
456926
457391
457743
101325
101325
101325
101325
101325
101325
101325
101325
101325
101326
101326
101327
101329
101331
101336
101344
101358
101382
101425
101500
101632
101861
102261
102960
104180
106304
109992
116361
127253
145471
174500
216751
270255
326870
375842
410386
430540
440577
445144
447347
448721
449842
450868
451813
452666
453418
454065
454609
455056
455398
101325
101325
101325
101325
101325
101325
101325
101325
101325
101326
101326
101327
101328
101330
101334
101341
101353
101374
101411
101475
101587
101783
102124
102720
103761
105572
108718
114157
123484
139202
164666
202852
253386
309862
361716
400531
424447
436888
442637
445281
446753
447851
448825
449720
450531
451247
451867
452389
452820
453152
101325
101325
101325
101325
101325
101325
101325
101325
101325
101325
101326
101326
101328
101329
101333
101339
101349
101367
101398
101452
101548
101714
102003
102509
103390
104925
107591
112205
120136
133581
155671
189692
236628
291993
346018
389048
417162
432535
439850
443146
444810
445920
446854
447704
448476
449162
449756
450259
450676
450999
101325
101325
101325
101325
101325
101325
101325
101325
101325
101325
101326
101326
101327
101329
101332
101337
101345
101360
101387
101433
101513
101653
101897
102323
103065
104358
106604
110494
117191
128601
147562
177454
220310
273585
328861
375813
408455
427315
436657
440878
442863
444037
444949
445761
446497
447154
447726
448212
448616
448930
101325
101325
101325
101325
101325
101325
101325
101325
101325
101325
101326
101326
101327
101328
101331
101335
101342
101355
101377
101415
101483
101600
101805
102162
102783
103865
105746
109006
114626
124235
140353
166270
204741
255016
310462
360769
398099
420996
432898
438391
440874
442186
443104
443885
444590
445220
445771
446241
446633
446940
101325
101325
101325
101325
101325
101325
101325
101325
101325
101325
101326
101326
101327
101328
101330
101333
101339
101350
101368
101401
101457
101555
101725
102022
102540
103441
105007
107722
112409
120446
134024
156218
190185
236692
291141
343959
385901
413319
428372
435569
438788
440343
441306
442071
442748
443354
443885
444340
444722
445021
101325
101325
101325
101325
101325
101325
101325
101325
101325
101325
101325
101326
101326
101327
101329
101332
101337
101346
101361
101388
101434
101516
101657
101903
102332
103078
104375
106623
110510
117188
128533
147323
176843
219014
271307
325545
371729
404019
422841
432260
436526
438475
439544
440312
440967
441551
442064
442506
442877
443170
101325
101325
101325
101325
101325
101325
101325
101325
101325
101325
101325
101326
101326
101327
101328
101331
101335
101342
101355
101377
101415
101482
101599
101802
102155
102770
103838
105690
108894
114410
123818
139563
164843
202345
251433
305820
355546
392842
416031
428271
433982
436531
437794
438599
439243
439807
440304
440732
441094
441381
101325
101325
101325
101325
101325
101325
101325
101325
101325
101325
101325
101326
101326
101327
101328
101330
101333
101339
101350
101368
101399
101454
101550
101717
102006
102510
103385
104903
107530
112059
119808
132880
154240
186975
232011
285201
337447
379587
407645
423363
431013
434441
436027
436919
437569
438118
438599
439015
439369
439650
101325
101325
101325
101325
101325
101325
101325
101325
101325
101325
101325
101325
101326
101326
101327
101329
101332
101337
101345
101360
101386
101431
101509
101645
101881
102292
103005
104243
106386
110084
116427
127191
145022
173106
213506
264207
317677
364142
397386
417252
427433
432108
434199
435254
435936
436479
436947
437352
437697
437972
101325
101325
101325
101325
101325
101325
101325
101325
101325
101325
101325
101325
101326
101326
101327
101328
101330
101334
101341
101353
101375
101411
101475
101585
101777
102110
102689
103693
105432
108436
113598
122396
137125
160842
196312
243406
296640
346526
384992
409621
423005
429395
432245
433576
434334
434885
435344
435738
436075
436345
101325
101325
101325
101325
101325
101325
101325
101325
101325
101325
101325
101325
101325
101326
101326
101328
101329
101333
101338
101348
101365
101395
101446
101536
101691
101960
102427
103238
104643
107070
111248
118392
130445
150197
180721
223364
274877
326927
370279
400138
417441
426124
430072
431844
432745
433328
433785
434171
434501
434765
101325
101325
101325
101325
101325
101325
101325
101325
101325
101325
101325
101325
101325
101326
101326
101327
101329
101331
101336
101344
101357
101381
101423
101495
101619
101836
102212
102864
103993
105945
109309
115075
124860
141109
166904
204585
253020
305720
353196
388490
410410
422060
427553
429998
431145
431799
432267
432648
432970
433229
101325
101325
101325
101325
101325
101325
101325
101325
101325
101325
101325
101325
101325
101326
101326
101327
101328
101330
101334
101340
101351
101370
101403
101461
101561
101735
102036
102557
103461
105023
107719
112347
120234
133463
154913
187459
231727
283452
333869
374432
401550
416914
424513
427950
429495
430280
430781
431163
431480
431734
101325
101325
101325
101325
101325
101325
101325
101325
101325
101325
101325
101325
101325
101325
101326
101326
101327
101329
101332
101337
101346
101361
101388
101434
101514
101652
101892
102307
103027
104272
106422
110118
116435
127110
144700
172235
211607
260803
312634
357848
390510
410341
420719
425577
427737
428750
429319
429715
430030
430280
101325
101325
101325
101325
101325
101325
101325
101325
101325
101325
101325
101325
101325
101325
101326
101326
101327
101328
101331
101335
101342
101354
101375
101411
101475
101585
101775
102105
102676
103664
105370
108308
113340
121887
136142
159015
193151
238508
290034
338804
376993
401960
415881
422706
425786
427169
427866
428297
428618
428867
101325
101325
101325
101325
101325
101325
101325
101325
101325
101325
101325
101325
101325
101325
101325
101326
101326
101328
101329
101333
101338
101348
101365
101394
101444
101531
101681
101942
102394
103174
104523
106846
110834
117632
129070
147775
176694
217275
266784
317598
360823
391384
409643
419107
423522
425484
426398
426900
427239
427490
101325
101325
101325
101325
101325
101325
101325
101325
101325
101325
101325
101325
101325
101325
101325
101326
101326
101327
101328
101331
101335
101343
101356
101379
101419
101487
101606
101811
102167
102781
103842
105672
108817
114193
123294
138390
162394
197696
243689
294766
342018
378273
401605
414484
420772
423609
424879
425507
425884
426145
101325
101325
101325
101325
101325
101325
101325
101325
101325
101325
101325
101325
101325
101325
101325
101326
101326
101327
101328
101330
101333
101339
101350
101368
101399
101453
101546
101707
101985
102467
103299
104734
107203
111432
118623
130674
150253
180189
221547
271048
320837
362404
391352
408473
417305
421423
423253
424096
424546
424828
101325
101325
101325
101325
101325
101325
101325
101325
101325
101325
101325
101325
101325
101325
101325
101325
101326
101326
101327
101329
101331
101336
101344
101358
101383
101425
101498
101624
101841
102217
102867
103988
105918
109229
114877
124411
140149
164971
201042
247311
297810
343750
378507
400655
412818
418753
421435
422630
423208
423532
101325
101325
101325
101325
101325
101325
101325
101325
101325
101325
101325
101325
101325
101325
101325
101325
101326
101326
101327
101328
101330
101334
101340
101351
101370
101403
101460
101558
101727
102020
102526
103398
104900
107481
111893
119379
131880
152071
182672
224434
273704
322546
362809
390590
406937
415364
419302
421051
421848
422249
101325
101325
101325
101325
101325
101325
101325
101325
101325
101325
101325
101325
101325
101325
101325
101325
101325
101326
101326
101327
101329
101332
101337
101345
101360
101386
101430
101506
101637
101864
102256
102932
104097
106100
109531
115373
125206
141372
166708
203186
249443
299320
344200
377871
399225
410944
416677
419274
420426
420962
101325
101325
101325
101325
101325
101325
101325
101325
101325
101325
101325
101325
101325
101325
101325
101325
101325
101326
101326
101327
101328
101330
101334
101341
101352
101372
101406
101465
101567
101742
102045
102567
103467
105015
107671
112205
119880
132659
153206
184135
225978
274870
322898
362208
389219
405105
413317
417171
418885
419648
101325
101325
101325
101325
101325
101325
101325
101325
101325
101325
101325
101325
101325
101325
101325
101325
101325
101325
101326
101326
101327
101329
101332
101337
101346
101361
101388
101433
101511
101647
101880
102282
102975
104167
106214
109716
115668
125666
142048
167598
204154
250174
299442
343523
376489
397394
408901
414560
417136
418267
101325
101325
101325
101325
101325
101325
101325
101325
101325
101325
101325
101325
101325
101325
101325
101325
101325
101325
101326
101326
101327
101328
101330
101334
101341
101353
101373
101408
101468
101572
101751
102060
102591
103506
105078
107771
112361
120119
133005
153653
184599
226249
274665
322033
360725
387327
403025
411187
415044
416759
101325
101325
101325
101325
101325
101325
101325
101325
101325
101325
101325
101325
101325
101325
101325
101325
101325
101325
101325
101326
101326
101327
101329
101332
101337
101346
101362
101389
101435
101514
101651
101887
102294
102993
104196
106259
109782
115762
125788
142178
167666
204006
249601
298300
341841
374453
395215
406718
412420
415029
101325
101325
101325
101325
101325
101325
101325
101325
101325
101325
101325
101325
101325
101325
101325
101325
101325
101325
101325
101326
101326
101327
101328
101331
101335
101341
101353
101374
101409
101470
101574
101754
102064
102597
103514
105088
107780
112365
120100
132926
153440
184117
225331
273201
320068
358452
384969
400729
408997
412939
101325
101325
101325
101325
101325
101325
101325
101325
101325
101325
101325
101325
101325
101325
101325
101325
101325
101325
101325
101325
101326
101326
101327
101329
101332
101337
101347
101362
101389
101435
101515
101651
101887
102292
102989
104185
106235
109733
115661
125587
141792
166957
202816
247830
296005
339245
371822
392727
404421
410284
101325
101325
101325
101325
101325
101325
101325
101325
101325
101325
101325
101325
101325
101325
101325
101325
101325
101325
101325
101325
101326
101326
101327
101328
101331
101335
101341
101353
101374
101409
101469
101573
101751
102058
102586
103493
105047
107704
112222
119838
132452
152610
182759
223323
270586
317095
355454
382191
398249
406783
101325
101325
101325
101325
101325
101325
101325
101325
101325
101325
101325
101325
101325
101325
101325
101325
101325
101325
101325
101325
101325
101326
101326
101327
101329
101332
101337
101346
101362
101388
101434
101512
101647
101879
102278
102963
104138
106148
109575
115379
125087
140927
165540
200679
244963
292652
335807
368646
389963
402058
101325
101325
101325
101325
101325
101325
101325
101325
101325
101325
101325
101325
101325
101325
101325
101325
101325
101325
101325
101325
101325
101326
101326
101327
101328
101330
101334
101341
101353
101373
101407
101466
101568
101743
102043
102559
103444
104960
107548
111947
119354
131617
151225
180612
220323
266915
313187
351779
379020
395638
101325
101325
101325
101325
101325
101325
101325
101325
101325
101325
101325
101325
101325
101325
101325
101325
101325
101325
101325
101325
101325
101325
101326
101326
101327
101329
101332
101337
101346
101361
101387
101431
101508
101639
101865
102252
102917
104056
106004
109321
114934
124320
139640
163487
197683
241094
288310
331565
364939
386972
101325
101325
101325
101325
101325
101325
101325
101325
101325
101325
101325
101325
101325
101325
101325
101325
101325
101325
101325
101325
101325
101325
101326
101326
101327
101328
101330
101334
101341
101352
101371
101405
101462
101561
101730
102020
102517
103371
104831
107322
111552
118672
130463
149342
177749
216411
262242
308365
347414
375486
101325
101325
101325
101325
101325
101325
101325
101325
101325
101325
101325
101325
101325
101325
101325
101325
101325
101325
101325
101325
101325
101325
101325
101326
101326
101327
101329
101332
101337
101345
101360
101385
101428
101501
101627
101844
102216
102853
103944
105807
108979
114343
123312
137966
160853
193884
236246
282963
326453
360675
101325
101325
101325
101325
101325
101325
101325
101325
101325
101325
101325
101325
101325
101325
101325
101325
101325
101325
101325
101325
101325
101325
101325
101326
101326
101327
101328
101330
101334
101340
101351
101370
101401
101456
101550
101712
101988
102462
103274
104663
107030
111047
117807
129007
146986
174187
211562
256490
302469
342224
101325
101325
101325
101325
101325
101325
101325
101325
101325
101325
101325
101325
101325
101325
101325
101325
101325
101325
101325
101325
101325
101325
101325
101325
101326
101326
101327
101329
101332
101336
101344
101358
101382
101423
101492
101612
101817
102169
102771
103801
105559
108550
113606
122061
135899
157602
189190
230248
276303
320127
101325
101325
101325
101325
101325
101325
101325
101325
101325
101325
101325
101325
101325
101325
101325
101325
101325
101325
101325
101325
101325
101325
101325
101325
101326
101326
101327
101328
101330
101333
101339
101350
101367
101397
101449
101537
101689
101948
102393
103154
104453
106666
110420
116736
127209
144071
169756
205481
249144
294862
101325
101325
101325
101325
101325
101325
101325
101325
101325
101325
101325
101325
101325
101325
101325
101325
101325
101325
101325
101325
101325
101325
101325
101325
101325
101326
101326
101327
101329
101331
101336
101343
101356
101378
101416
101481
101593
101783
102110
102668
103623
105250
108015
112687
120499
133307
153493
183172
222355
267297
101325
101325
101325
101325
101325
101325
101325
101325
101325
101325
101325
101325
101325
101325
101325
101325
101325
101325
101325
101325
101325
101325
101325
101325
101325
101326
101326
101327
101328
101330
101333
101338
101348
101364
101392
101439
101521
101660
101898
102306
103001
104188
106207
109628
115378
124917
140318
163953
197281
238858
101325
101325
101325
101325
101325
101325
101325
101325
101325
101325
101325
101325
101325
101325
101325
101325
101325
101325
101325
101325
101325
101325
101325
101325
101325
101325
101326
101326
101327
101328
101331
101335
101342
101353
101374
101408
101467
101568
101741
102035
102539
103396
104856
107333
111510
118491
129942
148068
175021
211242
101325
101325
101325
101325
101325
101325
101325
101325
101325
101325
101325
101325
101325
101325
101325
101325
101325
101325
101325
101325
101325
101325
101325
101325
101325
101325
101325
101326
101326
101327
101329
101332
101337
101346
101360
101385
101428
101500
101624
101835
102196
102810
103854
105626
108620
113645
121970
135427
156246
186013
101325
101325
101325
101325
101325
101325
101325
101325
101325
101325
101325
101325
101325
101325
101325
101325
101325
101325
101325
101325
101325
101325
101325
101325
101325
101325
101325
101326
101326
101327
101328
101330
101334
101340
101350
101368
101398
101450
101538
101688
101944
102379
103118
104371
106489
110051
115988
125714
141179
164389
101325
101325
101325
101325
101325
101325
101325
101325
101325
101325
101325
101325
101325
101325
101325
101325
101325
101325
101325
101325
101325
101325
101325
101325
101325
101325
101325
101325
101326
101326
101327
101329
101331
101336
101343
101356
101377
101414
101476
101581
101761
102066
102583
103459
104940
107433
111601
118486
129631
146961
101325
101325
101325
101325
101325
101325
101325
101325
101325
101325
101325
101325
101325
101325
101325
101325
101325
101325
101325
101325
101325
101325
101325
101325
101325
101325
101325
101325
101326
101326
101327
101328
101329
101332
101338
101347
101362
101387
101431
101504
101629
101841
102200
102808
103833
105558
108449
113249
121105
133624
101325
101325
101325
101325
101325
101325
101325
101325
101325
101325
101325
101325
101325
101325
101325
101325
101325
101325
101325
101325
101325
101325
101325
101325
101325
101325
101325
101325
101325
101326
101326
101327
101328
101330
101334
101340
101351
101368
101399
101450
101536
101682
101930
102348
103052
104237
106226
109538
115001
123848
101325
101325
101325
101325
101325
101325
101325
101325
101325
101325
101325
101325
101325
101325
101325
101325
101325
101325
101325
101325
101325
101325
101325
101325
101325
101325
101325
101325
101325
101325
101326
101326
101327
101329
101331
101335
101343
101355
101376
101411
101471
101571
101741
102027
102509
103319
104679
106950
110716
116881
101325
101325
101325
101325
101325
101325
101325
101325
101325
101325
101325
101325
101325
101325
101325
101325
101325
101325
101325
101325
101325
101325
101325
101325
101325
101325
101325
101325
101325
101325
101326
101326
101326
101328
101329
101332
101337
101346
101360
101384
101425
101494
101610
101805
102133
102686
103613
105165
107746
112006
101325
101325
101325
101325
101325
101325
101325
101325
101325
101325
101325
101325
101325
101325
101325
101325
101325
101325
101325
101325
101325
101325
101325
101325
101325
101325
101325
101325
101325
101325
101325
101326
101326
101327
101328
101330
101333
101339
101349
101366
101393
101440
101519
101652
101876
102252
102883
103941
105705
108633
101325
101325
101325
101325
101325
101325
101325
101325
101325
101325
101325
101325
101325
101325
101325
101325
101325
101325
101325
101325
101325
101325
101325
101325
101325
101325
101325
101325
101325
101325
101325
101325
101326
101326
101327
101328
101331
101335
101341
101353
101372
101404
101458
101548
101700
101956
102385
103105
104309
106313
101325
101325
101325
101325
101325
101325
101325
101325
101325
101325
101325
101325
101325
101325
101325
101325
101325
101325
101325
101325
101325
101325
101325
101325
101325
101325
101325
101325
101325
101325
101325
101325
101325
101326
101326
101327
101329
101332
101336
101344
101357
101379
101415
101477
101580
101754
102046
102536
103356
104726
101325
101325
101325
101325
101325
101325
101325
101325
101325
101325
101325
101325
101325
101325
101325
101325
101325
101325
101325
101325
101325
101325
101325
101325
101325
101325
101325
101325
101325
101325
101325
101325
101325
101326
101326
101327
101328
101330
101333
101338
101347
101362
101386
101428
101499
101617
101816
102149
102707
103641
101325
101325
101325
101325
101325
101325
101325
101325
101325
101325
101325
101325
101325
101325
101325
101325
101325
101325
101325
101325
101325
101325
101325
101325
101325
101325
101325
101325
101325
101325
101325
101325
101325
101325
101326
101326
101327
101328
101330
101334
101340
101350
101367
101395
101443
101524
101659
101885
102266
102902
101325
101325
101325
101325
101325
101325
101325
101325
101325
101325
101325
101325
101325
101325
101325
101325
101325
101325
101325
101325
101325
101325
101325
101325
101325
101325
101325
101325
101325
101325
101325
101325
101325
101325
101325
101326
101326
101327
101329
101331
101335
101342
101353
101373
101405
101460
101552
101706
101965
102398
101325
101325
101325
101325
101325
101325
101325
101325
101325
101325
101325
101325
101325
101325
101325
101325
101325
101325
101325
101325
101325
101325
101325
101325
101325
101325
101325
101325
101325
101325
101325
101325
101325
101325
101325
101326
101326
101326
101327
101329
101332
101337
101344
101358
101380
101417
101479
101584
101760
102056
101325
101325
101325
101325
101325
101325
101325
101325
101325
101325
101325
101325
101325
101325
101325
101325
101325
101325
101325
101325
101325
101325
101325
101325
101325
101325
101325
101325
101325
101325
101325
101325
101325
101325
101325
101325
101326
101326
101327
101328
101330
101333
101338
101347
101362
101387
101430
101501
101621
101822
101325
101325
101325
101325
101325
101325
101325
101325
101325
101325
101325
101325
101325
101325
101325
101325
101325
101325
101325
101325
101325
101325
101325
101325
101325
101325
101325
101325
101325
101325
101325
101325
101325
101325
101325
101325
101325
101326
101326
101327
101328
101330
101334
101340
101350
101368
101396
101445
101526
101663
101325
101325
101325
101325
101325
101325
101325
101325
101325
101325
101325
101325
101325
101325
101325
101325
101325
101325
101325
101325
101325
101325
101325
101325
101325
101325
101325
101325
101325
101325
101325
101325
101325
101325
101325
101325
101325
101325
101326
101326
101327
101329
101331
101335
101342
101354
101374
101407
101462
101555
101325
101325
101325
101325
101325
101325
101325
101325
101325
101325
101325
101325
101325
101325
101325
101325
101325
101325
101325
101325
101325
101325
101325
101325
101325
101325
101325
101325
101325
101325
101325
101325
101325
101325
101325
101325
101325
101325
101326
101326
101326
101327
101329
101332
101337
101345
101358
101380
101418
101481
101325
101325
101325
101325
101325
101325
101325
101325
101325
101325
101325
101325
101325
101325
101325
101325
101325
101325
101325
101325
101325
101325
101325
101325
101325
101325
101325
101325
101325
101325
101325
101325
101325
101325
101325
101325
101325
101325
101325
101326
101326
101327
101328
101330
101333
101338
101347
101363
101388
101431
101325
101325
101325
101325
101325
101325
101325
101325
101325
101325
101325
101325
101325
101325
101325
101325
101325
101325
101325
101325
101325
101325
101325
101325
101325
101325
101325
101325
101325
101325
101325
101325
101325
101325
101325
101325
101325
101325
101325
101325
101326
101326
101327
101328
101330
101334
101340
101351
101368
101397
101325
101325
101325
101325
101325
101325
101325
101325
101325
101325
101325
101325
101325
101325
101325
101325
101325
101325
101325
101325
101325
101325
101325
101325
101325
101325
101325
101325
101325
101325
101325
101325
101325
101325
101325
101325
101325
101325
101325
101325
101325
101326
101326
101327
101329
101331
101335
101342
101354
101374
101325
101325
101325
101325
101325
101325
101325
101325
101325
101325
101325
101325
101325
101325
101325
101325
101325
101325
101325
101325
101325
101325
101325
101325
101325
101325
101325
101325
101325
101325
101325
101325
101325
101325
101325
101325
101325
101325
101325
101325
101325
101326
101326
101326
101327
101329
101332
101337
101345
101358
101325
101325
101325
101325
101325
101325
101325
101325
101325
101325
101325
101325
101325
101325
101325
101325
101325
101325
101325
101325
101325
101325
101325
101325
101325
101325
101325
101325
101325
101325
101325
101325
101325
101325
101325
101325
101325
101325
101325
101325
101325
101325
101326
101326
101327
101328
101330
101333
101338
101348
101325
101325
101325
101325
101325
101325
101325
101325
101325
101325
101325
101325
101325
101325
101325
101325
101325
101325
101325
101325
101325
101325
101325
101325
101325
101325
101325
101325
101325
101325
101325
101325
101325
101325
101325
101325
101325
101325
101325
101325
101325
101325
101325
101326
101326
101327
101328
101330
101334
101340
101325
101325
101325
101325
101325
101325
101325
101325
101325
101325
101325
101325
101325
101325
101325
101325
101325
101325
101325
101325
101325
101325
101325
101325
101325
101325
101325
101325
101325
101325
101325
101325
101325
101325
101325
101325
101325
101325
101325
101325
101325
101325
101325
101325
101326
101326
101327
101329
101331
101335
101325
101325
101325
101325
101325
101325
101325
101325
101325
101325
101325
101325
101325
101325
101325
101325
101325
101325
101325
101325
101325
101325
101325
101325
101325
101325
101325
101325
101325
101325
101325
101325
101325
101325
101325
101325
101325
101325
101325
101325
101325
101325
101325
101325
101326
101326
101326
101328
101329
101332
101325
101325
101325
101325
101325
101325