/*--------------------------------*- C++ -*----------------------------------*\
| =========                 |                                                 |
| \\      /  F ield         | OpenFOAM: The Open Source CFD Toolbox           |
|  \\    /   O peration     | Version:  2412                                  |
|   \\  /    A nd           | Website:  www.openfoam.com                      |
|    \\/     M anipulation  |                                                 |
\*---------------------------------------------------------------------------*/
FoamFile
{
    version     2.0;
    format      ascii;
    arch        "LSB;label=32;scalar=64";
    class       surfaceScalarField;
    location    "0.0999";
    object      phi;
}
// * * * * * * * * * * * * * * * * * * * * * * * * * * * * * * * * * * * * * //

dimensions      [1 0 -1 0 0 0 0];

oriented        oriented;

internalField   nonuniform List<scalar> 
29750
(
13.8651
8.69544e-10
13.8651
2.82778e-09
13.8651
6.66496e-09
13.8651
1.37273e-08
13.8651
2.65062e-08
13.8651
4.93946e-08
13.8651
9.01658e-08
13.8651
1.62586e-07
13.8651
2.91015e-07
13.8651
5.18604e-07
13.8651
9.21726e-07
13.8651
1.63571e-06
13.8651
2.90012e-06
13.8651
5.13961e-06
13.8651
9.10632e-06
13.8651
1.61345e-05
13.8651
2.85898e-05
13.865
5.06736e-05
13.8649
8.98504e-05
13.8648
0.000159437
13.8645
0.00028329
13.864
0.000504442
13.8631
0.000901161
13.8615
0.00161795
13.8587
0.00292758
13.8535
0.00536054
13.8433
0.00994337
13.8244
0.0185077
13.79
0.0336415
13.7322
0.0572841
13.6455
0.0879753
13.527
0.119887
13.3811
0.146477
13.2159
0.165079
13.038
0.177261
12.8513
0.186203
12.6565
0.194513
12.4527
0.203745
12.238
0.214723
12.0101
0.228015
11.7658
0.244209
11.5017
0.264174
11.2121
0.289143
10.8912
0.321157
10.5274
0.362952
10.1079
0.419493
9.60774
0.498828
8.99246
0.614716
8.20809
0.793369
1.08288
7.12854
13.8651
1.70806e-09
13.8651
5.55505e-09
13.8651
1.30931e-08
13.8651
2.69656e-08
13.8651
5.20644e-08
13.8651
9.70126e-08
13.8651
1.77066e-07
13.8651
3.19234e-07
13.8651
5.71298e-07
13.8651
1.01788e-06
13.8651
1.8087e-06
13.8651
3.20897e-06
13.8651
5.68806e-06
13.8651
1.00776e-05
13.8651
1.78499e-05
13.8651
3.16155e-05
13.8651
5.6001e-05
13.865
9.92183e-05
13.8649
0.000175849
13.8648
0.000311886
13.8645
0.000553842
13.864
0.000985548
13.8632
0.0017593
13.8617
0.00315606
13.859
0.00570577
13.8541
0.0104383
13.8444
0.0193451
13.8266
0.0359911
13.794
0.0654788
13.7389
0.111845
13.6554
0.172688
13.54
0.236715
13.3965
0.290452
13.2336
0.327911
13.0582
0.352067
12.8744
0.369453
12.6833
0.385415
12.4839
0.403026
12.2749
0.423805
12.0543
0.448699
11.8198
0.47861
11.5693
0.514794
11.2992
0.558932
11.0069
0.613541
10.6875
0.681894
10.338
0.769039
9.95433
0.881479
9.54056
1.02853
9.11743
1.22083
1.46415
8.73963
13.8651
2.48737e-09
13.8651
8.09074e-09
13.8651
1.90699e-08
13.8651
3.92729e-08
13.8651
7.58188e-08
13.8651
1.41254e-07
13.8651
2.57765e-07
13.8651
4.64627e-07
13.8651
8.31287e-07
13.8651
1.4807e-06
13.8651
2.63033e-06
13.8651
4.66523e-06
13.8651
8.26656e-06
13.8651
1.46408e-05
13.8651
2.59227e-05
13.8651
4.58961e-05
13.8651
8.12625e-05
13.865
0.000143911
13.8649
0.000254935
13.8648
0.000451922
13.8646
0.000802081
13.8641
0.00142642
13.8634
0.0025445
13.862
0.00456091
13.8596
0.00823739
13.8551
0.0150533
13.8463
0.0278717
13.8302
0.0518465
13.8004
0.0944767
13.7496
0.162034
13.6718
0.25173
13.5625
0.347399
13.4249
0.428586
13.2674
0.485353
13.0973
0.521535
12.9194
0.54687
12.735
0.569515
12.5439
0.594098
12.345
0.622772
12.1371
0.656673
11.919
0.696754
11.6896
0.744229
11.4478
0.80067
11.1931
0.868209
10.9255
0.949413
10.6467
1.04773
10.3609
1.16687
10.0782
1.31119
9.81595
1.48424
1.68711
9.59587
13.8651
3.18522e-09
13.8651
1.0361e-08
13.8651
2.44199e-08
13.8651
5.02864e-08
13.8651
9.7067e-08
13.8651
1.80806e-07
13.8651
3.29865e-07
13.8651
5.94429e-07
13.8651
1.0632e-06
13.8651
1.89318e-06
13.8651
3.36187e-06
13.8651
5.96053e-06
13.8651
1.05577e-05
13.8651
1.86909e-05
13.8651
3.30799e-05
13.8651
5.8542e-05
13.8651
0.000103605
13.865
0.00018339
13.865
0.000324712
13.8648
0.000575303
13.8646
0.00102043
13.8642
0.00181348
13.8636
0.00323245
13.8624
0.00578884
13.8603
0.010444
13.8564
0.0190621
13.8488
0.0352544
13.8348
0.0655727
13.8088
0.119749
13.7637
0.206451
13.6934
0.32321
13.5923
0.449783
13.4627
0.558754
13.3126
0.635469
13.1497
0.683892
12.9793
0.716735
12.8035
0.745025
12.6225
0.775036
12.4358
0.809549
12.2428
0.849807
12.0429
0.896645
11.8362
0.951043
11.6226
1.01421
11.4031
1.08769
11.1792
1.17322
10.9541
1.27278
10.7325
1.38831
10.5221
1.52147
10.3337
1.67326
1.84215
10.1794
13.8651
3.78202e-09
13.8651
1.23045e-08
13.8651
2.90006e-08
13.8651
5.9714e-08
13.8651
1.15247e-07
13.8651
2.14625e-07
13.8651
3.91462e-07
13.8651
7.05218e-07
13.8651
1.26094e-06
13.8651
2.24445e-06
13.8651
3.98411e-06
13.8651
7.06085e-06
13.8651
1.25013e-05
13.8651
2.21221e-05
13.8651
3.91345e-05
13.8651
6.92245e-05
13.8651
0.000122451
13.865
0.000216639
13.865
0.000383375
13.8649
0.000678853
13.8647
0.00120337
13.8644
0.00213712
13.8638
0.00380634
13.8628
0.00680995
13.8611
0.0122706
13.8579
0.0223612
13.8517
0.0412966
13.8403
0.0767936
13.8187
0.140594
13.7806
0.243899
13.7194
0.385392
13.6287
0.541801
13.5091
0.678927
13.3682
0.776508
13.2138
0.837689
13.0522
0.877806
12.8861
0.910837
12.7162
0.944854
12.5425
0.983346
12.3647
1.02766
12.183
1.07847
11.9976
1.13647
11.8094
1.20248
11.6195
1.2775
11.4301
1.36258
11.2441
1.45876
11.0654
1.56688
10.8994
1.68734
10.7531
1.81998
1.96261
10.6328
13.8651
4.26819e-09
13.8651
1.38867e-08
13.8651
3.27284e-08
13.8651
6.73817e-08
13.8651
1.30022e-07
13.8651
2.42082e-07
13.8651
4.41415e-07
13.8651
7.94944e-07
13.8651
1.42084e-06
13.8651
2.52807e-06
13.8651
4.48565e-06
13.8651
7.94616e-06
13.8651
1.40622e-05
13.8651
2.48724e-05
13.8651
4.39784e-05
13.8651
7.7753e-05
13.8651
0.000137465
13.8651
0.00024307
13.865
0.00042991
13.8649
0.000760794
13.8648
0.00134768
13.8645
0.00239154
13.8641
0.00425557
13.8633
0.00760529
13.862
0.0136847
13.8596
0.0248943
13.8549
0.0458947
13.8462
0.0853032
13.8295
0.156584
13.7991
0.273545
13.7485
0.436908
13.6698
0.621705
13.5621
0.787372
13.4316
0.907079
13.2869
0.981941
13.1347
1.02942
12.9787
1.06653
12.8201
1.10338
12.6592
1.14431
12.4961
1.19085
12.3311
1.24353
12.1649
1.30277
11.9983
1.36906
11.8328
1.44299
11.6703
1.52513
11.5131
1.61593
11.3642
1.71564
11.2274
1.82412
11.1068
1.94079
2.06363
11.0059
13.8651
4.63507e-09
13.8651
1.50834e-08
13.8651
3.55487e-08
13.8651
7.31804e-08
13.8651
1.41186e-07
13.8651
2.62802e-07
13.8651
4.79048e-07
13.8651
8.6241e-07
13.8651
1.54082e-06
13.8651
2.74037e-06
13.8651
4.86015e-06
13.8651
8.60551e-06
13.8651
1.52216e-05
13.8651
2.69094e-05
13.8651
4.75553e-05
13.8651
8.40323e-05
13.8651
0.000148485
13.8651
0.000262408
13.865
0.000463834
13.865
0.000820303
13.8649
0.00145208
13.8647
0.00257477
13.8644
0.00457739
13.8638
0.00817087
13.8629
0.0146793
13.8613
0.0266494
13.8581
0.0490272
13.8522
0.0910503
13.8405
0.167563
13.8183
0.294945
13.7793
0.476816
13.714
0.688069
13.6196
0.882561
13.5009
1.02597
13.3665
1.11591
13.2241
1.17126
13.0782
1.21212
12.9305
1.25092
12.7818
1.29311
12.6322
1.34049
12.4823
1.39353
12.3327
1.45243
12.1843
1.51743
12.0385
1.58881
11.8968
1.66682
11.7611
1.75159
11.6336
1.84308
11.5168
1.94092
11.4133
2.04448
2.15201
11.325
13.8651
4.88549e-09
13.8651
1.58991e-08
13.8651
3.74693e-08
13.8651
7.71237e-08
13.8651
1.48763e-07
13.8651
2.7683e-07
13.8651
5.04454e-07
13.8651
9.07804e-07
13.8651
1.62124e-06
13.8651
2.8821e-06
13.8651
5.10905e-06
13.8651
9.04169e-06
13.8651
1.59848e-05
13.8651
2.82436e-05
13.8651
4.98858e-05
13.8651
8.81006e-05
13.8651
0.000155583
13.8651
0.000274787
13.8651
0.000485417
13.865
0.000857901
13.865
0.00151748
13.8649
0.00268834
13.8647
0.00477431
13.8643
0.00851148
13.8638
0.015266
13.8629
0.027654
13.8612
0.0507536
13.858
0.0941409
13.8512
0.173646
13.8373
0.308054
13.8102
0.504611
13.7595
0.73981
13.6797
0.963144
13.5739
1.13208
13.4504
1.239
13.318
1.30319
13.1819
1.34786
13.0446
1.38806
12.9071
1.43065
12.7697
1.47789
12.6331
1.53026
12.4977
1.58783
12.3646
1.65061
12.2347
1.7187
12.1094
1.79215
11.9901
1.87091
11.8783
1.9548
11.7758
2.04339
11.6843
2.13612
2.23149
11.6049
13.8651
5.02061e-09
13.8651
1.63423e-08
13.8651
3.85137e-08
13.8651
7.92641e-08
13.8651
1.5286e-07
13.8651
2.84376e-07
13.8651
5.18027e-07
13.8651
9.31864e-07
13.8651
1.66348e-06
13.8651
2.9558e-06
13.8651
5.23708e-06
13.8651
9.26343e-06
13.8651
1.6368e-05
13.8651
2.89046e-05
13.8651
5.10242e-05
13.8651
9.00586e-05
13.8651
0.000158946
13.8651
0.000280553
13.8651
0.000495281
13.8651
0.000874728
13.8651
0.00154606
13.865
0.00273657
13.8649
0.00485497
13.8648
0.00864405
13.8647
0.0154765
13.8645
0.0279689
13.864
0.0511918
13.8634
0.0947924
13.8611
0.17517
13.8552
0.313191
13.8401
0.520251
13.8046
0.776219
13.7406
1.02794
13.6489
1.22431
13.5369
1.35061
13.4144
1.42518
13.2877
1.47411
13.1601
1.5155
13.0328
1.55793
12.9064
1.60436
12.7814
1.6554
12.6582
1.71101
12.5378
1.7711
12.4209
1.8356
12.3086
1.90445
12.202
1.97751
12.1022
2.05455
12.0104
2.13515
11.9278
2.21884
2.30432
11.8551
13.8651
5.05261e-09
13.8651
1.64474e-08
13.8651
3.87593e-08
13.8651
7.97579e-08
13.8651
1.53778e-07
13.8651
2.85998e-07
13.8651
5.20797e-07
13.8651
9.36462e-07
13.8651
1.67093e-06
13.8651
2.96758e-06
13.8651
5.25522e-06
13.8651
9.29048e-06
13.8651
1.64066e-05
13.8651
2.89561e-05
13.8651
5.1085e-05
13.8651
9.01112e-05
13.8651
0.000158939
13.8651
0.000280361
13.8651
0.000494616
13.8651
0.000872935
13.8651
0.00154165
13.8651
0.0027262
13.8652
0.00483111
13.8652
0.00858967
13.8654
0.0153516
13.8658
0.0276755
13.8665
0.0505061
13.868
0.0933202
13.8698
0.172658
13.8713
0.31101
13.8678
0.524135
13.8478
0.796982
13.8006
1.07593
13.724
1.30154
13.6242
1.45007
13.5118
1.53714
13.3942
1.59127
13.2755
1.63395
13.1575
1.67593
13.0408
1.72113
12.9259
1.77041
12.8132
1.82374
12.7034
1.88091
12.5973
1.94178
12.4955
2.00621
12.399
2.07401
12.3086
2.14494
12.2251
2.21862
12.1493
2.29468
2.37198
12.0818
13.8651
4.98932e-09
13.8651
1.6245e-08
13.8651
3.82821e-08
13.8651
7.8766e-08
13.8651
1.51832e-07
13.8651
2.82296e-07
13.8651
5.13869e-07
13.8651
9.23617e-07
13.8651
1.64725e-06
13.8651
2.92404e-06
13.8651
5.17537e-06
13.8651
9.14423e-06
13.8651
1.61391e-05
13.8651
2.84671e-05
13.8651
5.0192e-05
13.8651
8.84814e-05
13.8651
0.000155966
13.8651
0.000274938
13.8651
0.000484718
13.8652
0.000854846
13.8652
0.00150849
13.8653
0.0026651
13.8654
0.00471773
13.8656
0.00837672
13.8661
0.0149438
13.8669
0.0268723
13.8686
0.0488847
13.8719
0.0900841
13.8772
0.166748
13.8851
0.302418
13.8924
0.517097
13.8876
0.802244
13.8581
1.10636
13.7977
1.36264
13.711
1.53655
13.6089
1.63883
13.5001
1.69962
13.3897
1.74405
13.2801
1.78553
13.1719
1.82928
13.0658
1.87658
12.9622
1.92747
12.8615
1.98168
12.7642
2.03902
12.6712
2.09929
12.5829
2.1623
12.5
2.22781
12.4231
2.29549
12.3528
2.36503
2.43543
12.2894
13.8651
4.848e-09
13.8651
1.57858e-08
13.8651
3.71979e-08
13.8651
7.65235e-08
13.8651
1.47475e-07
13.8651
2.7411e-07
13.8651
4.9878e-07
13.8651
8.96109e-07
13.8651
1.59742e-06
13.8651
2.83414e-06
13.8651
5.01352e-06
13.8651
8.85322e-06
13.8651
1.56163e-05
13.8651
2.75284e-05
13.8651
4.8507e-05
13.8651
8.54569e-05
13.8651
0.000150536
13.8651
0.000265189
13.8652
0.000467211
13.8652
0.000823369
13.8652
0.00145176
13.8654
0.00256243
13.8655
0.00453073
13.8659
0.00803332
13.8666
0.0143052
13.8678
0.0256592
13.8703
0.0465255
13.875
0.0854731
13.883
0.158155
13.8963
0.288519
13.9131
0.500346
13.923
0.792619
13.9116
1.11874
13.8686
1.40641
13.796
1.60904
13.7046
1.72985
13.6044
1.79934
13.5018
1.84636
13.3997
1.88754
13.2992
1.92977
13.2009
1.97499
13.105
2.0234
13.0121
2.07472
12.9224
2.1287
12.8366
2.18512
12.7551
2.24379
12.6784
2.30449
12.6069
2.36692
12.5412
2.43086
2.49537
12.4813
13.8651
4.63945e-09
13.8651
1.51102e-08
13.8651
3.56057e-08
13.8651
7.32384e-08
13.8651
1.41112e-07
13.8651
2.62203e-07
13.8651
4.76933e-07
13.8651
8.56487e-07
13.8651
1.52605e-06
13.8651
2.70611e-06
13.8651
4.78438e-06
13.8651
8.44373e-06
13.8651
1.48851e-05
13.8651
2.62235e-05
13.8651
4.61789e-05
13.8651
8.13036e-05
13.8651
0.000143127
13.8651
0.000251968
13.8652
0.000443609
13.8652
0.000781202
13.8653
0.0013763
13.8654
0.00242697
13.8657
0.00428654
13.8661
0.00759008
13.867
0.013492
13.8685
0.0241399
13.8715
0.043623
13.8773
0.0798623
13.8874
0.147589
13.9048
0.270509
13.9297
0.475407
13.9531
0.769234
13.9598
1.11303
13.9353
1.43176
13.8781
1.66628
13.7981
1.8095
13.7066
1.89037
13.6113
1.9413
13.5161
1.98262
13.4224
2.02342
13.3309
2.06657
13.2419
2.11253
13.1556
2.16106
13.0724
2.21189
12.9928
2.26478
12.917
2.31954
12.8455
2.37595
12.7786
2.43378
12.7167
2.49284
2.55229
12.6598
13.8651
4.38194e-09
13.8651
1.42725e-08
13.8651
3.36296e-08
13.8651
6.91629e-08
13.8651
1.33227e-07
13.8651
2.47473e-07
13.8651
4.49968e-07
13.8651
8.07704e-07
13.8651
1.43843e-06
13.8651
2.54938e-06
13.8651
4.50476e-06
13.8651
7.94561e-06
13.8651
1.39985e-05
13.8651
2.46464e-05
13.8651
4.33743e-05
13.8651
7.63167e-05
13.8651
0.000134259
13.8652
0.000236196
13.8652
0.00041555
13.8652
0.000731253
13.8653
0.00128726
13.8655
0.00226786
13.8658
0.00400094
13.8663
0.00707455
13.8673
0.0125535
13.869
0.022406
13.8724
0.040355
13.8788
0.0736039
13.8902
0.135739
13.9107
0.249616
13.9418
0.444024
13.9772
0.733694
14.0015
1.08966
13.9965
1.43776
13.956
1.70686
13.8884
1.87681
13.8059
1.97244
13.7178
2.02909
13.6289
2.07131
13.5414
2.11093
13.4559
2.15209
13.3728
2.19568
13.2924
2.24157
13.2148
2.28947
13.1405
2.33913
13.0697
2.39036
13.0027
2.44296
12.9397
2.49672
12.8811
2.55151
2.60654
12.8269
13.8651
4.08616e-09
13.8651
1.33121e-08
13.8651
3.13666e-08
13.8651
6.45002e-08
13.8651
1.24217e-07
13.8651
2.30665e-07
13.8651
4.19245e-07
13.8651
7.52222e-07
13.8651
1.33896e-06
13.8651
2.37183e-06
13.8651
4.18868e-06
13.8651
7.38378e-06
13.8651
1.30009e-05
13.8651
2.28757e-05
13.8651
4.02326e-05
13.8651
7.07432e-05
13.8651
0.000124372
13.8652
0.000218654
13.8652
0.000384421
13.8652
0.00067598
13.8653
0.00118902
13.8655
0.00209287
13.8658
0.00368829
13.8664
0.00651323
13.8674
0.0115382
13.8693
0.0205455
13.8729
0.0368819
13.8796
0.0670036
13.8919
0.123212
13.9142
0.226998
13.9497
0.408046
13.995
0.688044
14.0359
1.0497
14.0508
1.4238
14.0286
1.72924
13.9749
1.93044
13.902
2.04493
13.8209
2.10976
13.738
2.154
13.656
2.19287
13.5759
2.2322
13.4981
2.27354
13.4228
2.31694
13.3502
2.36212
13.2805
2.40884
13.214
2.45687
13.1509
2.50606
13.0914
2.55622
13.0357
2.60725
2.65841
12.9839
13.8651
3.76837e-09
13.8651
1.22776e-08
13.8651
2.89273e-08
13.8651
5.94748e-08
13.8651
1.14511e-07
13.8651
2.12573e-07
13.8651
3.86211e-07
13.8651
6.92643e-07
13.8651
1.2323e-06
13.8651
2.18172e-06
13.8651
3.85078e-06
13.8651
6.78413e-06
13.8651
1.19378e-05
13.8651
2.0992e-05
13.8651
3.68963e-05
13.8651
6.48349e-05
13.8651
0.000113909
13.8652
0.000200124
13.8652
0.000351596
13.8653
0.00061781
13.8654
0.00108585
13.8655
0.00190958
13.8659
0.00336164
13.8665
0.00592858
13.8675
0.0104851
13.8695
0.0186283
13.8731
0.033335
13.8799
0.0603182
13.8924
0.110529
13.9155
0.203705
13.9537
0.369317
14.0066
0.634658
14.0622
0.99486
14.0971
1.38979
14.0948
1.73188
14.0566
1.96875
13.9942
2.10688
13.9205
2.18308
13.8433
2.23091
13.7664
2.26967
13.6912
2.30744
13.6181
2.34669
13.5474
2.38775
13.4791
2.43042
13.4136
2.47444
13.3508
2.5196
13.2912
2.56573
13.2347
2.61267
13.1816
2.66037
2.7081
13.132
13.8651
3.43716e-09
13.8651
1.1201e-08
13.8651
2.63907e-08
13.8651
5.42523e-08
13.8651
1.04431e-07
13.8651
1.93801e-07
13.8651
3.51971e-07
13.8651
6.30956e-07
13.8651
1.122e-06
13.8651
1.98538e-06
13.8651
3.50226e-06
13.8651
6.1665e-06
13.8651
1.08444e-05
13.8651
1.90575e-05
13.8651
3.34749e-05
13.8651
5.87848e-05
13.8651
0.000103212
13.8652
0.000181209
13.8652
0.000318144
13.8653
0.000558627
13.8654
0.000981076
13.8655
0.00172383
13.8659
0.00303158
13.8665
0.00533993
13.8675
0.00942949
13.8695
0.0167176
13.8731
0.0298257
13.8797
0.0537521
13.8921
0.0980997
13.915
0.180606
13.9542
0.329545
14.0122
0.576092
14.0802
0.927496
14.1344
1.33637
14.1533
1.71349
14.1325
1.9898
14.0821
2.15693
14.0162
2.24848
13.9448
2.30206
13.8727
2.34166
13.8019
2.37825
13.733
2.41559
13.6664
2.45449
13.602
2.49484
13.5401
2.53639
13.4808
2.57894
13.4242
2.62232
13.3705
2.66639
13.3198
2.71111
2.75579
13.2721
13.8651
3.10522e-09
13.8651
1.012e-08
13.8651
2.38421e-08
13.8651
4.90053e-08
13.8651
9.43085e-08
13.8651
1.7496e-07
13.8651
3.17629e-07
13.8651
5.69139e-07
13.8651
1.01157e-06
13.8651
1.78903e-06
13.8651
3.15411e-06
13.8651
5.55024e-06
13.8651
9.7547e-06
13.8651
1.71319e-05
13.8651
3.00735e-05
13.8651
5.27778e-05
13.8651
9.26043e-05
13.8652
0.000162475
13.8652
0.000285057
13.8653
0.000500172
13.8654
0.000877756
13.8655
0.001541
13.8659
0.00270734
13.8664
0.00476298
13.8675
0.00839782
13.8694
0.0148585
13.8728
0.0264347
13.8792
0.0474569
13.891
0.086235
13.9132
0.158397
13.9519
0.29023
14.0125
0.514922
14.09
0.850502
14.162
1.26498
14.2029
1.6732
14.2015
1.99152
14.1649
2.19328
14.1079
2.30504
14.0424
2.36723
13.9749
2.40901
13.9082
2.44496
13.8432
2.48065
13.7802
2.51755
13.7193
2.55575
13.6607
2.59505
13.6045
2.63523
13.5507
2.67613
13.4994
2.71761
13.4509
2.75966
2.80162
13.4051
13.8651
2.77821e-09
13.8651
9.0563e-09
13.8651
2.13361e-08
13.8651
4.38486e-08
13.8651
8.43653e-08
13.8651
1.56465e-07
13.8651
2.83944e-07
13.8651
5.08557e-07
13.8651
9.03452e-07
13.8651
1.59696e-06
13.8651
2.81392e-06
13.8651
4.94872e-06
13.8651
8.69228e-06
13.8651
1.52566e-05
13.8651
2.67648e-05
13.8651
4.6941e-05
13.8651
8.23096e-05
13.8652
0.000144318
13.8652
0.000253028
13.8652
0.000443661
13.8653
0.000778007
13.8655
0.00136477
13.8658
0.00239548
13.8664
0.00420955
13.8674
0.00741167
13.8692
0.0130893
13.8724
0.0232266
13.8784
0.0415433
13.8895
0.0751476
13.9104
0.13757
13.9475
0.252568
14.0083
0.453548
14.0919
0.767149
14.1793
1.178
14.2423
1.61089
14.2625
1.97188
14.2418
2.21373
14.1951
2.35139
14.1361
2.4259
14.0732
2.47171
14.0103
2.50782
13.9488
2.54219
13.8891
2.57727
13.8314
2.6135
13.7758
2.65072
13.7223
2.68874
13.6711
2.72739
13.6222
2.76654
13.5756
2.8062
2.84572
13.5316
13.8651
2.46485e-09
13.8651
8.03532e-09
13.8651
1.89296e-08
13.8651
3.88968e-08
13.8651
7.48201e-08
13.8651
1.38718e-07
13.8651
2.51642e-07
13.8651
4.50503e-07
13.8651
7.99928e-07
13.8651
1.41323e-06
13.8651
2.48878e-06
13.8651
4.37436e-06
13.8651
7.67882e-06
13.8651
1.34695e-05
13.8651
2.36149e-05
13.8651
4.13903e-05
13.8651
7.25297e-05
13.8652
0.000127086
13.8652
0.000222665
13.8652
0.00039015
13.8653
0.000683674
13.8655
0.00119835
13.8658
0.00210146
13.8663
0.00368881
13.8673
0.0064858
13.8689
0.0114338
13.8719
0.0202402
13.8775
0.0360773
13.8877
0.0649676
13.9069
0.118447
13.9415
0.217451
14.0005
0.394062
14.0869
0.680843
14.1864
1.07864
14.2706
1.52744
14.314
1.92915
14.3119
2.21575
14.2774
2.38567
14.2257
2.47719
14.1676
2.52955
14.1084
2.56695
14.0501
2.60046
13.9935
2.63394
13.9387
2.66835
13.8859
2.70367
13.8349
2.73971
13.786
2.77633
13.7392
2.81337
13.6946
2.85087
2.88818
13.6521
13.8651
2.16793e-09
13.8651
7.06896e-09
13.8651
1.6653e-08
13.8651
3.42143e-08
13.8651
6.57983e-08
13.8651
1.21954e-07
13.8651
2.21148e-07
13.8651
3.95739e-07
13.8651
7.02348e-07
13.8651
1.24019e-06
13.8651
2.18283e-06
13.8651
3.83441e-06
13.8651
6.72698e-06
13.8651
1.17927e-05
13.8651
2.06622e-05
13.8651
3.61923e-05
13.8651
6.33806e-05
13.8652
0.000110983
13.8652
0.000194322
13.8652
0.000340256
13.8653
0.000595819
13.8655
0.00104356
13.8658
0.00182844
13.8662
0.00320627
13.8671
0.00563028
13.8686
0.00990962
13.8714
0.0175036
13.8764
0.0311001
13.8857
0.0557603
13.903
0.101193
13.9347
0.185439
13.9902
0.338104
14.0761
0.594854
14.1838
0.970837
14.2871
1.42488
14.3547
1.8623
14.3739
2.19667
14.3539
2.40553
14.3109
2.51974
14.2582
2.58202
14.2027
2.6223
14.1475
2.65561
14.0937
2.68779
14.0416
2.72055
13.9912
2.75412
13.9426
2.78835
13.8958
2.82311
13.851
2.85824
13.8081
2.89377
2.9291
13.7672
13.8651
1.89259e-09
13.8651
6.1715e-09
13.8651
1.45379e-08
13.8651
2.98642e-08
13.8651
5.74189e-08
13.8651
1.0639e-07
13.8651
1.92853e-07
13.8651
3.44955e-07
13.8651
6.11922e-07
13.8651
1.07995e-06
13.8651
1.89976e-06
13.8651
3.33525e-06
13.8651
5.84781e-06
13.8651
1.02453e-05
13.8651
1.79399e-05
13.8651
3.14042e-05
13.8651
5.49608e-05
13.8652
9.61775e-05
13.8652
0.000168288
13.8652
0.00029447
13.8653
0.000515281
13.8654
0.000901831
13.8657
0.00157881
13.8661
0.00276582
13.8669
0.00485085
13.8683
0.00852451
13.8708
0.0150263
13.8753
0.0266211
13.8836
0.0475351
13.8991
0.085852
13.9274
0.156825
13.9784
0.286844
14.0609
0.512079
14.1725
0.858875
14.2916
1.30651
14.3834
1.77134
14.4263
2.15397
14.4237
2.40812
14.3914
2.55172
14.3448
2.62829
14.2932
2.67365
14.2411
2.70773
14.1899
2.739
14.1402
2.7703
14.0921
2.80226
14.0457
2.83483
14.0009
2.86788
13.9579
2.90127
13.9167
2.93503
2.96855
13.8773
13.8651
1.6393e-09
13.8651
5.34675e-09
13.8651
1.2595e-08
13.8651
2.58698e-08
13.8651
4.9728e-08
13.8651
9.21123e-08
13.8651
1.66909e-07
13.8651
2.98423e-07
13.8651
5.29127e-07
13.8651
9.33351e-07
13.8651
1.64098e-06
13.8651
2.8793e-06
13.8651
5.04542e-06
13.8651
8.83419e-06
13.8651
1.54596e-05
13.8651
2.70457e-05
13.8651
4.73033e-05
13.8652
8.2725e-05
13.8652
0.000144655
13.8652
0.00025295
13.8653
0.000442325
13.8654
0.000773588
13.8656
0.00135323
13.866
0.00236846
13.8667
0.0041493
13.868
0.00728143
13.8702
0.0128116
13.8742
0.022638
13.8816
0.0402701
13.8951
0.0723804
13.9202
0.131659
13.9659
0.240948
14.0427
0.434816
14.1541
0.747069
14.2845
1.17667
14.3989
1.65768
14.4676
2.08564
14.4856
2.39028
14.4663
2.57066
14.4272
2.66705
14.3801
2.72053
14.331
2.75675
14.2823
2.78767
14.2349
2.81777
14.189
2.84826
14.1446
2.87931
14.1017
2.91079
14.0604
2.94259
14.0207
2.97472
3.0066
13.9827
13.8651
1.41041e-09
13.8651
4.60045e-09
13.8651
1.08363e-08
13.8651
2.22542e-08
13.8651
4.2768e-08
13.8651
7.91961e-08
13.8651
1.43452e-07
13.8651
2.56373e-07
13.8651
4.54355e-07
13.8651
8.01048e-07
13.8651
1.40761e-06
13.8651
2.46843e-06
13.8651
4.32295e-06
13.8651
7.56469e-06
13.8651
1.323e-05
13.8651
2.3131e-05
13.8651
4.04313e-05
13.8651
7.06626e-05
13.8652
0.000123484
13.8652
0.000215787
13.8653
0.000377083
13.8654
0.000659018
13.8656
0.00115194
13.8659
0.0020144
13.8666
0.00352526
13.8677
0.006178
13.8696
0.0108512
13.8732
0.0191283
13.8796
0.0339114
13.8914
0.060671
13.9132
0.109829
13.9534
0.20067
14.023
0.364684
14.1302
0.639351
14.2668
1.04051
14.4008
1.52432
14.4962
1.99072
14.538
2.34877
14.5349
2.57354
14.5051
2.69648
14.4633
2.76213
14.4174
2.80244
14.3712
2.83384
14.326
2.86306
14.282
2.89226
14.2395
2.9219
14.1984
2.95195
14.1587
2.98229
14.1205
3.01294
3.04332
14.0838
13.8651
1.20482e-09
13.8651
3.93071e-09
13.8651
9.25877e-09
13.8651
1.9012e-08
13.8651
3.65294e-08
13.8651
6.76238e-08
13.8651
1.22446e-07
13.8651
2.18741e-07
13.8651
3.87481e-07
13.8651
6.82802e-07
13.8651
1.19919e-06
13.8651
2.10177e-06
13.8651
3.6787e-06
13.8651
6.43355e-06
13.8651
1.1245e-05
13.8651
1.96486e-05
13.8651
3.43232e-05
13.8651
5.99502e-05
13.8652
0.000104698
13.8652
0.000182841
13.8653
0.000319301
13.8654
0.000557652
13.8655
0.00097404
13.8658
0.00170191
13.8664
0.00297547
13.8674
0.00520816
13.8691
0.00913359
13.8722
0.0160664
13.8777
0.0283965
13.8879
0.0505857
13.9066
0.0911047
13.9414
0.165908
14.003
0.302572
14.1029
0.538929
14.2403
0.903437
14.3892
1.37581
14.5107
1.86976
14.5792
2.28072
14.5958
2.55683
14.5779
2.71409
14.5425
2.7972
14.5004
2.84433
14.4568
2.87742
14.4136
2.90626
14.3715
2.93438
14.3307
2.96274
14.2913
2.99147
14.2531
3.02047
14.2164
3.04975
3.07876
14.1809
13.8651
1.02296e-09
13.8651
3.33755e-09
13.8651
7.86111e-09
13.8651
1.61397e-08
13.8651
3.10035e-08
13.8651
5.73771e-08
13.8651
1.03855e-07
13.8651
1.85452e-07
13.8651
3.28361e-07
13.8651
5.78334e-07
13.8651
1.01518e-06
13.8651
1.77827e-06
13.8651
3.11072e-06
13.8651
5.43707e-06
13.8651
9.49768e-06
13.8651
1.65854e-05
13.8651
2.89548e-05
13.8651
5.05425e-05
13.8652
8.82132e-05
13.8652
0.000153955
13.8652
0.00026868
13.8653
0.000468927
13.8655
0.000818487
13.8658
0.001429
13.8662
0.00249603
13.8671
0.00436394
13.8686
0.00764176
13.8712
0.013416
13.876
0.023648
13.8847
0.0419623
13.9007
0.0751934
13.9303
0.136327
13.9837
0.248742
14.0741
0.44809
14.207
0.770592
14.365
1.21796
14.5102
1.72522
14.6073
2.18415
14.6474
2.51671
14.6445
2.71675
14.6175
2.82393
14.5799
2.88165
14.5391
2.91817
14.498
2.94735
14.4577
2.97469
14.4186
3.00192
14.3807
3.02943
14.344
3.05719
14.3085
3.08523
3.11299
14.2743
13.8651
8.62847e-10
13.8651
2.81577e-09
13.8651
6.63213e-09
13.8651
1.36148e-08
13.8651
2.61479e-08
13.8651
4.83771e-08
13.8651
8.75338e-08
13.8651
1.56244e-07
13.8651
2.76518e-07
13.8651
4.86785e-07
13.8651
8.5403e-07
13.8651
1.49518e-06
13.8651
2.61404e-06
13.8651
4.56633e-06
13.8651
7.97196e-06
13.8651
1.39129e-05
13.8651
2.42745e-05
13.8651
4.23471e-05
13.8652
7.38643e-05
13.8652
0.000128833
13.8652
0.000224694
13.8653
0.0003919
13.8654
0.00068357
13.8657
0.00119256
13.8661
0.00208124
13.8668
0.00363496
13.8681
0.00635687
13.8704
0.011141
13.8745
0.0195912
13.8818
0.0346424
13.8953
0.0617785
13.9203
0.111437
13.9658
0.202929
14.0455
0.368105
14.1696
0.646328
14.3301
1.05727
14.4944
1.56155
14.6206
2.05866
14.6879
2.44954
14.7038
2.70066
14.6876
2.83985
14.6558
2.91318
14.6182
2.95564
14.5792
2.98625
14.5407
3.01323
14.5032
3.03952
14.4667
3.06593
14.4314
3.09254
14.3973
3.11943
3.14603
14.3643
13.8651
7.23766e-10
13.8651
2.36201e-09
13.8651
5.56304e-09
13.8651
1.14185e-08
13.8651
2.19249e-08
13.8651
4.05523e-08
13.8651
7.33496e-08
13.8651
1.30872e-07
13.8651
2.31511e-07
13.8651
4.07356e-07
13.8651
7.14307e-07
13.8651
1.24989e-06
13.8651
2.18398e-06
13.8651
3.8129e-06
13.8651
6.65276e-06
13.8651
1.16038e-05
13.8651
2.02336e-05
13.8651
3.52766e-05
13.8651
6.14943e-05
13.8652
0.000107191
13.8652
0.000186832
13.8653
0.000325652
13.8654
0.000567634
13.8656
0.000989586
13.8659
0.00172563
13.8666
0.00301093
13.8677
0.00525899
13.8696
0.0092021
13.8731
0.016147
13.8793
0.0284641
13.8906
0.0505385
13.9114
0.090684
13.9496
0.164525
14.0182
0.299339
14.1304
0.533852
14.2871
0.900196
14.4642
1.38502
14.6176
1.90591
14.715
2.3524
14.7541
2.66157
14.752
2.84175
14.7277
2.93715
14.6941
2.98906
14.6575
3.02269
14.6208
3.04998
14.5848
3.07559
14.5498
3.10102
14.5158
3.12658
14.4828
3.1524
3.17795
14.451
13.8651
6.03418e-10
13.8651
1.96967e-09
13.8651
4.63898e-09
13.8651
9.52067e-09
13.8651
1.82772e-08
13.8651
3.3796e-08
13.8651
6.1108e-08
13.8651
1.08987e-07
13.8651
1.92711e-07
13.8651
3.38921e-07
13.8651
5.94003e-07
13.8651
1.03883e-06
13.8651
1.81419e-06
13.8651
3.16551e-06
13.8651
5.52004e-06
13.8651
9.62249e-06
13.8651
1.6769e-05
13.8651
2.92189e-05
13.8651
5.09041e-05
13.8652
8.86778e-05
13.8652
0.000154468
13.8653
0.000269072
13.8654
0.000468706
13.8655
0.000816556
13.8658
0.00142282
13.8664
0.00248035
13.8673
0.00432746
13.8689
0.00756139
13.8719
0.0132431
13.877
0.0232823
13.8865
0.0411763
13.9037
0.0735057
13.9355
0.132715
13.9933
0.241397
14.0917
0.435036
14.239
0.752437
14.4214
1.20309
14.5978
1.73006
14.7267
2.22389
14.7933
2.59515
14.8092
2.82562
14.795
2.95108
14.7666
3.01724
14.7329
3.05623
14.6981
3.08481
14.6635
3.11014
14.6299
3.13475
14.5971
3.15936
14.5654
3.18419
3.20876
14.5346
13.8651
5.00524e-10
13.8651
1.63387e-09
13.8651
3.84788e-09
13.8651
7.89596e-09
13.8651
1.51549e-08
13.8651
2.80147e-08
13.8651
5.06373e-08
13.8651
9.02765e-08
13.8651
1.59557e-07
13.8651
2.80479e-07
13.8651
4.91326e-07
13.8651
8.58806e-07
13.8651
1.49898e-06
13.8651
2.61407e-06
13.8651
4.55585e-06
13.8651
7.93716e-06
13.8651
1.3824e-05
13.8651
2.40733e-05
13.8651
4.19148e-05
13.8652
7.29743e-05
13.8652
0.000127037
13.8652
0.000221152
13.8653
0.000384984
13.8655
0.000670247
13.8657
0.00116703
13.8662
0.00203276
13.867
0.00354288
13.8683
0.00618232
13.8708
0.0108091
13.8751
0.0189577
13.8829
0.0334134
13.8971
0.0593645
13.9232
0.106612
13.9712
0.193391
14.0553
0.350502
14.189
0.618335
14.3688
1.02352
14.5616
1.53759
14.7211
2.06486
14.819
2.49765
14.8576
2.78686
14.8568
2.95169
14.8353
3.03842
14.8053
3.08609
14.7726
3.11746
14.7396
3.14311
14.7073
3.16715
14.6758
3.19092
14.6452
3.21484
3.2385
14.6155
13.8651
4.12827e-10
13.8651
1.34788e-09
13.8651
3.17436e-09
13.8651
6.51313e-09
13.8651
1.24983e-08
13.8651
2.30976e-08
13.8651
4.17355e-08
13.8651
7.43772e-08
13.8651
1.31399e-07
13.8651
2.30872e-07
13.8651
4.04227e-07
13.8651
7.06195e-07
13.8651
1.23195e-06
13.8651
2.14721e-06
13.8651
3.7401e-06
13.8651
6.51227e-06
13.8651
1.13358e-05
13.8651
1.97289e-05
13.8651
3.43306e-05
13.8651
5.97351e-05
13.8652
0.000103928
13.8652
0.000180812
13.8653
0.000314564
13.8654
0.000547293
13.8656
0.000952284
13.866
0.00165741
13.8667
0.002886
13.8678
0.00503017
13.8698
0.00878137
13.8734
0.0153696
13.8799
0.0270091
13.8915
0.0477806
13.9128
0.0853445
13.9521
0.154138
14.0224
0.279804
14.1398
0.500555
14.31
0.853436
14.5109
1.33677
14.6973
1.87899
14.8287
2.36675
14.895
2.72057
14.9117
2.93483
14.8997
3.05011
14.8745
3.1111
14.8444
3.14747
14.8131
3.17437
14.7821
3.1982
14.7518
3.22126
14.7224
3.24433
3.26711
14.6938
13.8651
3.38898e-10
13.8651
1.10654e-09
13.8651
2.60584e-09
13.8651
5.34592e-09
13.8651
1.02564e-08
13.8651
1.89491e-08
13.8651
3.4228e-08
13.8651
6.09744e-08
13.8651
1.07674e-07
13.8651
1.89099e-07
13.8651
3.30924e-07
13.8651
5.77834e-07
13.8651
1.00749e-06
13.8651
1.75503e-06
13.8651
3.05529e-06
13.8651
5.31689e-06
13.8651
9.24978e-06
13.8651
1.60891e-05
13.8651
2.79809e-05
13.8651
4.86583e-05
13.8652
8.46067e-05
13.8652
0.000147109
13.8653
0.000255772
13.8654
0.00044472
13.8655
0.000773291
13.8659
0.00134489
13.8664
0.0023398
13.8674
0.00407377
13.869
0.00710174
13.872
0.0124067
13.8773
0.0217463
13.8868
0.0383258
13.9041
0.0681077
13.9359
0.122366
13.9937
0.221782
14.0938
0.400105
14.2487
0.698456
14.4487
1.13663
14.6554
1.67284
14.8203
2.20246
14.9187
2.62228
14.9579
2.89556
14.9588
3.04897
14.9401
3.12948
14.9134
3.17406
14.8841
3.20364
14.8545
3.22784
14.8254
3.25042
14.797
3.27273
3.29465
14.7695
13.8651
2.76736e-10
13.8651
9.03763e-10
13.8651
2.12831e-09
13.8651
4.36576e-09
13.8651
8.37427e-09
13.8651
1.54678e-08
13.8651
2.79305e-08
13.8651