/*--------------------------------*- C++ -*----------------------------------*\
| =========                 |                                                 |
| \\      /  F ield         | OpenFOAM: The Open Source CFD Toolbox           |
|  \\    /   O peration     | Version:  2412                                  |
|   \\  /    A nd           | Website:  www.openfoam.com                      |
|    \\/     M anipulation  |                                                 |
\*---------------------------------------------------------------------------*/
FoamFile
{
    version     2.0;
    format      ascii;
    arch        "LSB;label=32;scalar=64";
    class       volScalarField;
    location    "0.0999";
    object      T;
}
// * * * * * * * * * * * * * * * * * * * * * * * * * * * * * * * * * * * * * //

dimensions      [0 0 0 1 0 0 0];

internalField   nonuniform List<scalar> 
15000
(
300
300
300
300
300
300
300.001
300.001
300.002
300.004
300.006
300.011
300.019
300.034
300.06
300.105
300.185
300.326
300.574
301.009
301.771
303.106
305.432
309.458
316.313
327.659
345.652
372.025
405.968
442.019
472.104
491.745
502.231
507.249
509.752
511.26
512.456
513.595
514.76
515.951
517.167
518.405
519.677
521.001
522.432
523.937
525.523
527.452
529.741
533.838
300
300
300
300
300
300
300.001
300.001
300.002
300.004
300.006
300.011
300.019
300.034
300.059
300.104
300.183
300.323
300.568
300.998
301.752
303.072
305.372
309.354
316.137
327.368
345.201
371.388
405.201
441.279
471.536
491.376
501.995
507.076
509.598
511.104
512.287
513.408
514.55
515.71
516.886
518.072
519.275
520.498
521.749
522.988
524.217
525.452
526.647
528.326
300
300
300
300
300
300
300.001
300.001
300.002
300.003
300.006
300.011
300.019
300.033
300.058
300.102
300.18
300.316
300.555
300.976
301.714
303.005
305.255
309.152
315.793
326.802
344.32
370.139
403.689
439.801
470.385
490.62
501.514
506.724
509.286
510.787
511.944
513.027
514.121
515.224
516.33
517.429
518.522
519.602
520.669
521.679
522.625
523.495
524.2
525.01
300
300
300
300
300
300
300.001
300.001
300.002
300.003
300.006
300.01
300.018
300.032
300.056
300.099
300.174
300.306
300.538
300.945
301.659
302.909
305.087
308.86
315.295
325.983
343.041
368.315
401.458
437.592
468.646
489.478
500.797
506.217
508.851
510.354
511.482
512.519
513.556
514.593
515.622
516.628
517.611
518.56
519.469
520.314
521.073
521.74
522.237
522.766
300
300
300
300
300
300
300.001
300.001
300.002
300.003
300.006
300.01
300.017
300.031
300.054
300.095
300.167
300.293
300.516
300.906
301.59
302.787
304.873
308.488
314.662
324.94
341.404
365.963
398.545
434.661
466.302
487.926
499.833
505.552
508.295
509.813
510.91
511.896
512.871
513.838
514.787
515.704
516.585
517.421
518.204
518.917
519.543
520.073
520.455
520.849
300
300
300
300
300
300
300.001
300.001
300.002
300.003
300.005
300.009
300.017
300.029
300.051
300.09
300.158
300.278
300.489
300.859
301.508
302.643
304.621
308.051
313.916
323.705
339.457
363.139
394.996
431.017
463.332
485.939
498.609
504.731
507.631
509.182
510.254
511.188
512.102
513.001
513.875
514.711
515.503
516.243
516.924
517.536
518.064
518.503
518.816
519.145
300
300
300
300
300
300
300.001
300.001
300.002
300.003
300.005
300.009
300.016
300.027
300.048
300.085
300.149
300.262
300.46
300.807
301.416
302.482
304.339
307.562
313.079
322.317
337.255
359.912
390.867
426.679
459.711
483.48
497.102
503.748
506.865
508.474
509.531
510.418
511.272
512.106
512.913
513.677
514.393
515.055
515.656
516.19
516.646
517.022
517.289
517.578
300
300
300
300
300
300
300
300.001
300.002
300.003
300.005
300.008
300.015
300.026
300.045
300.079
300.139
300.244
300.428
300.751
301.318
302.308
304.036
307.034
312.176
320.813
334.855
356.355
386.227
421.672
455.416
480.507
495.281
502.594
506.001
507.7
508.756
509.602
510.401
511.176
511.922
512.624
513.277
513.874
514.412
514.886
515.289
515.62
515.855
516.118
300
300
300
300
300
300
300
300.001
300.001
300.002
300.004
300.008
300.013
300.024
300.042
300.073
300.128
300.225
300.395
300.693
301.215
302.127
303.719
306.483
311.232
319.234
332.317
352.546
381.156
416.037
450.424
476.967
493.105
501.249
505.035
506.868
507.941
508.755
509.504
510.226
510.918
511.566
512.166
512.71
513.199
513.626
513.989
514.288
514.501
514.745
300
300
300
300
300
300
300
300.001
300.001
300.002
300.004
300.007
300.012
300.022
300.038
300.067
300.117
300.206
300.361
300.633
301.11
301.943
303.397
305.922
310.267
317.616
329.698
348.568
375.743
409.83
444.723
472.801
490.519
499.683
503.96
505.978
507.093
507.887
508.593
509.267
509.911
510.513
511.068
511.57
512.018
512.409
512.742
513.017
513.214
513.446
300
300
300
300
300
300
300
300.001
300.001
300.002
300.004
300.006
300.011
300.02
300.035
300.061
300.106
300.187
300.327
300.574
301.005
301.76
303.076
305.363
309.305
315.993
327.054
344.501
370.086
403.121
438.316
467.95
487.456
497.856
502.759
505.03
506.218
507.006
507.677
508.307
508.909
509.471
509.988
510.454
510.87
511.233
511.542
511.799
511.985
512.208
300
300
300
300
300
300
300
300.001
300.001
300.002
300.003
300.006
300.01
300.018
300.031
300.055
300.096
300.168
300.294
300.516
300.903
301.581
302.762
304.817
308.361
314.397
324.434
340.424
364.288
396.006
431.224
462.357
483.836
495.714
501.406
504.015
505.316
506.116
506.76
507.353
507.918
508.445
508.93
509.366
509.755
510.095
510.385
510.628
510.806
511.023
300
300
300
300
300
300
300
300.001
300.001
300.002
300.003
300.005
300.009
300.016
300.028
300.049
300.085
300.15
300.262
300.46
300.805
301.408
302.46
304.291
307.453
312.854
321.883
336.407
358.452
388.591
423.496
455.978
479.573
493.188
499.867
502.92
504.385
505.22
505.848
506.408
506.941
507.437
507.894
508.305
508.672
508.993
509.268
509.5
509.672
509.883
300
300
300
300
300
300
300
300
300.001
300.001
300.003
300.005
300.008
300.014
300.025
300.043
300.076
300.133
300.232
300.407
300.712
301.245
302.175
303.793
306.591
311.384
319.438
332.513
352.678
381.003
415.213
448.787
474.574
490.193
498.091
501.722
503.416
504.318
504.942
505.477
505.979
506.449
506.881
507.271
507.619
507.924
508.187
508.411
508.577
508.785
300
300
300
300
300
300
300
300
300.001
300.001
300.002
300.004
300.007
300.012
300.022
300.038
300.067
300.117
300.204
300.357
300.625
301.093
301.908
303.327
305.785
310.005
317.129
328.796
347.058
373.372
406.484
440.791
468.748
486.627
496.016
500.392
502.398
503.404
504.043
504.559
505.036
505.481
505.892
506.264
506.596
506.888
507.14
507.356
507.518
507.722
300
300
300
300
300
300
300
300
300.001
300.001
300.002
300.004
300.006
300.011
300.019
300.033
300.058
300.102
300.178
300.311
300.545
300.952
301.662
302.898
305.04
308.727
314.977
325.297
341.674
365.832
397.452
432.036
462.021
482.377
493.559
498.885
501.311
502.473
503.149
503.656
504.111
504.534
504.927
505.282
505.601
505.881
506.124
506.334
506.493
506.693
300
300
300
300
300
300
300
300
300.001
300.001
300.002
300.003
300.005
300.009
300.016
300.029
300.05
300.088
300.154
300.27
300.471
300.824
301.438
302.507
304.361
307.557
312.998
322.049
336.591
358.508
388.276
422.612
454.342
477.32
490.618
497.147
500.129
501.513
502.256
502.766
503.205
503.609
503.985
504.326
504.632
504.902
505.138
505.342
505.498
505.695
300
300
300
300
300
300
300
300
300
300.001
300.002
300.003
300.005
300.008
300.014
300.025
300.043
300.076
300.133
300.232
300.405
300.708
301.236
302.154
303.747
306.499
311.198
319.07
331.861
351.515
379.134
412.658
445.705
471.336
487.071
495.101
498.815
500.508
501.358
501.889
502.318
502.705
503.065
503.393
503.689
503.95
504.179
504.378
504.531
504.726
300
300
300
300
300
300
300
300
300
300.001
300.001
300.002
300.004
300.007
300.012
300.021
300.037
300.065
300.114
300.198
300.346
300.605
301.055
301.839
303.199
305.551
309.58
316.372
327.517
344.942
370.196
402.356
436.159
464.321
482.776
492.651
497.32
499.434
500.445
501.02
501.447
501.821
502.167
502.483
502.769
503.023
503.246
503.441
503.591
503.783
300
300
300
300
300
300
300
300
300
300.001
300.001
300.002
300.003
300.006
300.01
300.018
300.032
300.055
300.097
300.169
300.294
300.513
300.895
301.56
302.714
304.711
308.141
313.954
323.578
338.861
361.625
391.921
425.818
456.207
477.583
489.678
495.577
498.26
499.503
500.153
500.592
500.957
501.291
501.596
501.873
502.12
502.338
502.528
502.677
502.865
300
300
300
300
300
300
300
300
300
300.001
300.001
300.002
300.003
300.005
300.009
300.015
300.027
300.047
300.082
300.142
300.248
300.433
300.755
301.315
302.288
303.974
306.874
311.811
320.05
333.315
353.553
381.581
414.862
446.981
471.342
486.034
493.498
496.942
498.511
499.28
499.749
500.111
500.435
500.73
500.999
501.24
501.452
501.64
501.786
501.971
300
300
300
300
300
300
300
300
300
300
300.001
300.001
300.002
300.004
300.007
300.013
300.023
300.039
300.069
300.12
300.208
300.363
300.633
301.103
301.918
303.332
305.767
309.931
316.926
328.326
346.085
371.558
403.532
436.707
463.924
481.551
490.969
495.42
497.44
498.388
498.912
499.281
499.598
499.884
500.146
500.381
500.589
500.773
500.917
501.1
300
300
300
300
300
300
300
300
300
300
300.001
300.001
300.002
300.004
300.006
300.011
300.019
300.033
300.057
300.1
300.174
300.303
300.528
300.919
301.599
302.777
304.811
308.297
314.189
323.895
339.287
362.05
392.105
425.535
455.25
476.051
487.846
493.614
496.252
497.458
498.074
498.464
498.779
499.058
499.314
499.543
499.747
499.928
500.07
500.25
300
300
300
300
300
300
300
300
300
300
300.001
300.001
300.002
300.003
300.005
300.009
300.016
300.027
300.048
300.083
300.144
300.252
300.438
300.762
301.326
302.302
303.99
306.89
311.815
320.006
333.194
353.217
380.869
413.702
445.32
469.357
483.956
491.418
494.892
496.466
497.224
497.656
497.976
498.251
498.5
498.724
498.925
499.103
499.243
499.42
300
300
300
300
300
300
300
300
300
300
300
300.001
300.001
300.002
300.004
300.007
300.013
300.023
300.039
300.069
300.119
300.208
300.361
300.629
301.093
301.898
303.291
305.688
309.776
316.63
327.81
345.168
370.096
401.516
434.232
461.33
479.1
488.694
493.289
495.376
496.345
496.851
497.187
497.46
497.705
497.924
498.121
498.296
498.436
498.609
300
300
300
300
300
300
300
300
300
300
300
300.001
300.001
300.002
300.004
300.006
300.011
300.019
300.032
300.056
300.098
300.171
300.297
300.516
300.897
301.557
302.7
304.67
308.04
313.73
323.113
337.963
360.013
389.322
422.199
451.901
473.07
485.27
491.342
494.138
495.414
496.036
496.408
496.685
496.926
497.142
497.336
497.508
497.646
497.817
300
300
300
300
300
300
300
300
300
300
300
300.001
300.001
300.002
300.003
300.005
300.009
300.015
300.027
300.046
300.08
300.139
300.242
300.421
300.732
301.271
302.204
303.814
306.575
311.263
319.066
331.617
350.784
377.467
409.538
441.103
465.673
480.939
488.922
492.685
494.399
495.199
495.631
495.923
496.164
496.377
496.567
496.738
496.874
497.042
300
300
300
300
300
300
300
300
300
300
300
300
300.001
300.001
300.002
300.004
300.007
300.012
300.022
300.038
300.065
300.113
300.197
300.343
300.595
301.033
301.79
303.099
305.348
309.183
315.616
326.109
342.512
366.259
396.638
429.104
456.774
475.468
485.859
490.925
493.253
494.317
494.849
495.17
495.416
495.627
495.815
495.983
496.118
496.284
300
300
300
300
300
300
300
300
300
300
300
300
300.001
300.001
300.002
300.003
300.006
300.01
300.018
300.03
300.053
300.092
300.16
300.277
300.481
300.835
301.447
302.506
304.327
307.444
312.706
321.39
335.231
355.938
383.916
416.203
446.342
468.629
481.943
488.731
491.913
493.36
494.047
494.421
494.68
494.892
495.078
495.244
495.378
495.541
300
300
300
300
300
300
300
300
300
300
300
300
300.001
300.001
300.002
300.003
300.005
300.008
300.014
300.025
300.043
300.074
300.129
300.223
300.387
300.672
301.165
302.017
303.484
306.002
310.275
317.396
328.928
346.658
371.759
402.814
434.487
460.233
476.928
485.94
490.291
492.285
493.205
493.667
493.953
494.17
494.355
494.52
494.652
494.813
300
300
300
300
300
300
300
300
300
300
300
300
300
300.001
300.001
300.002
300.004
300.007
300.011
300.02
300.034
300.059
300.103
300.179
300.311
300.539
300.933
301.616
302.792
304.815
308.261
314.052
323.553
338.492
360.485
389.408
421.485
450.186
470.554
482.338
488.266
491.03
492.294
492.895
493.229
493.458
493.646
493.81
493.941
494.098
300
300
300
300
300
300
300
300
300
300
300
300
300
300.001
300.001
300.002
300.003
300.005
300.009
300.016
300.027
300.048
300.082
300.143
300.248
300.43
300.744
301.289
302.228
303.844
306.606
311.278
319.027
331.439
350.308
376.451
407.758
438.541
462.588
477.672
485.676
489.51
491.272
492.086
492.5
492.755
492.949
493.113
493.243
493.399
300
300
300
300
300
300
300
300
300
300
300
300
300
300
300.001
300.001
300.002
300.004
300.007
300.013
300.022
300.038
300.066
300.114
300.197
300.342
300.591
301.024
301.77
303.055
305.256
308.999
315.261
325.449
341.343
364.34
393.822
425.534
452.879
471.661
482.309
487.607
490.08
491.211
491.755
492.055
492.262
492.428
492.559
492.714
300
300
300
300
300
300
300
300
300
300
300
300
300
300
300.001
300.001
300.002
300.003
300.006
300.01
300.017
300.03
300.052
300.09
300.156
300.27
300.468
300.81
301.4
302.417
304.163
307.142
312.161
320.432
333.609
353.362
380.215
411.584
441.426
464.035
477.904
485.161
488.635
490.231
490.973
491.35
491.582
491.755
491.888
492.041
300
300
300
300
300
300
300
300
300
300
300
300
300
300
300.001
300.001
300.002
300.003
300.005
300.008
300.014
300.024
300.041
300.071
300.123
300.213
300.369
300.638
301.103
301.905
303.282
305.639
309.633
316.283
327.058
343.679
367.411
397.241
428.429
454.599
472.162
481.959
486.819
489.085
490.128
490.627
490.904
491.091
491.228
491.381
300
300
300
300
300
300
300
300
300
300
300
300
300
300
300
300.001
300.001
300.002
300.004
300.006
300.011
300.019
300.032
300.056
300.097
300.167
300.29
300.501
300.866
301.495
302.577
304.432
307.588
312.889
321.595
335.339
355.763
383.1
414.302
443.306
464.783
477.731
484.471
487.691
489.179
489.869
490.22
490.433
490.578
490.732
300
300
300
300
300
300
300
300
300
300
300
300
300
300
300
300.001
300.001
300.002
300.003
300.005
300.008
300.015
300.025
300.044
300.076
300.131
300.227
300.392
300.677
301.169
302.015
303.468
305.948
310.141
317.101
328.299
345.479
369.709
399.623
430.321
455.532
472.164
481.376
485.931
488.065
489.047
489.519
489.777
489.937
490.094
300
300
300
300
300
300
300
300
300
300
300
300
300
300
300
300
300.001
300.001
300.002
300.004
300.007
300.011
300.02
300.034
300.059
300.102
300.177
300.305
300.527
300.91
301.57
302.703
304.641
307.934
313.448
322.456
336.632
357.489
385.048
416.05
444.323
464.935
477.256
483.641
486.704
488.12
488.781
489.113
489.3
489.464
300
300
300
300
300
300
300
300
300
300
300
300
300
300
300
300
300.001
300.001
300.002
300.003
300.005
300.009
300.015
300.027
300.046
300.079
300.137
300.237
300.409
300.706
301.218
302.098
303.606
306.176
310.51
317.677
329.185
346.698
371.188
401.095
431.298
455.779
471.784
480.601
484.974
487.027
487.977
488.43
488.663
488.842
300
300
300
300
300
300
300
300
300
300
300
300
300
300
300
300
300
300.001
300.001
300.002
300.004
300.007
300.012
300.021
300.036
300.062
300.106
300.183
300.317
300.546
300.942
301.623
302.79
304.786
308.167
313.816
323.03
337.433
358.522
386.16
416.861
444.582
464.614
476.522
482.708
485.682
487.065
487.707
488.018
488.223
300
300
300
300
300
300
300
300
300
300
300
300
300
300
300
300
300
300.001
300.001
300.002
300.003
300.005
300.009
300.016
300.028
300.048
300.082
300.142
300.244
300.421
300.726
301.251
302.151
303.693
306.316
310.73
318.021
329.666
347.347
371.916
401.648
431.47
455.456
471.063
479.677
483.959
485.982
486.917
487.353
487.603
300
300
300
300
300
300
300
300
300
300
300
300
300
300
300
300
300
300
300.001
300.001
300.002
300.004
300.007
300.012
300.021
300.037
300.063
300.109
300.188
300.324
300.558
300.96
301.652
302.839
304.862
308.287
313.998
323.279
337.777
358.895
386.412
416.858
444.177
463.86
475.583
481.685
484.637
486.013
486.646
486.973
300
300
300
300
300
300
300
300
300
300
300
300
300
300
300
300
300
300
300.001
300.001
300.002
300.003
300.005
300.009
300.016
300.028
300.048
300.083
300.144
300.248
300.427
300.735
301.265
302.174
303.727
306.367
310.804
318.111
329.783
347.428
371.879
401.409
430.901
454.607
470.065
478.619
482.901
484.93
485.867
486.32
300
300
300
300
300
300
300
300
300
300
300
300
300
300
300
300
300
300
300
300.001
300.001
300.002
300.004
300.007
300.012
300.021
300.037
300.064
300.11
300.189
300.326
300.561
300.965
301.659
302.846
304.871
308.291
313.987
323.241
337.647
358.619
385.924
416.065
443.163
462.744
474.449
480.589
483.573
484.97
485.621
300
300
300
300
300
300
300
300
300
300
300
300
300
300
300
300
300
300
300
300.001
300.001
300.002
300.003
300.006
300.009
300.016
300.028
300.049
300.084
300.144
300.248
300.427
300.734
301.262
302.166
303.711
306.332
310.732
317.978
329.518
346.983
371.173
400.378
429.665
453.3
468.798
477.448
481.801
483.883
484.844
300
300
300
300
300
300
300
300
300
300
300
300
300
300
300
300
300
300
300
300
300.001
300.001
300.002
300.004
300.007
300.012
300.021
300.037
300.064
300.109
300.188
300.324
300.557
300.957
301.643
302.817
304.814
308.188
313.802
322.906
337.102
357.759
384.69
414.584
441.597
461.271
473.149
479.42
482.505
483.935
300
300
300
300
300
300
300
300
300
300
300
300
300
300
300
300
300
300
300
300
300.001
300.001
300.002
300.003
300.005
300.009
300.016
300.028
300.048
300.083
300.142
300.245
300.421
300.724
301.243
302.131
303.646
306.217
310.528
317.619
328.934
346.044
369.808
398.674
427.798
451.544
467.295
476.158
480.687
482.819
300
300
300
300
300
300
300
300
300
300
300
300
300
300
300
300
300
300
300
300
300
300.001
300.001
300.002
300.004
300.007
300.012
300.021
300.036
300.062
300.107
300.185
300.318
300.546
300.937
301.607
302.752
304.699
307.985
313.45
322.326
336.154
356.349
382.829
412.424
439.5
459.475
471.664
478.215
481.381
300
300
300
300
300
300
300
300
300
300
300
300
300
300
300
300
300
300
300
300
300
300.001
300.001
300.002
300.003
300.005
300.009
300.016
300.027
300.047
300.081
300.139
300.239
300.41
300.704
301.208
302.07
303.539
306.028
310.202
317.074
328.031
344.668
367.883
396.29
425.342
449.367
465.517
474.797
479.454
300
300
300
300
300
300
300
300
300
300
300
300
300
300
300
300
300
300
300
300
300
300
300.001
300.001
300.002
300.004
300.007
300.012
300.021
300.035
300.061
300.104
300.179
300.308
300.528
300.906
301.552
302.655
304.53
307.694
312.957
321.502
334.868
354.453
380.329
409.65
436.876
457.293
470.048
476.801
300
300
300
300
300
300
300
300
300
300
300
300
300
300
300
300
300
300
300
300
300
300
300.001
300.001
300.002
300.003
300.005
300.009
300.015
300.026
300.045
300.078
300.134
300.23
300.394
300.677
301.16
301.985
303.391
305.774
309.768
316.344
326.867
342.878
365.39
393.29
422.261
446.67
463.516
473.09
300
300
300
300
300
300
300
300
300
300
300
300
300
300
300
300
300
300
300
300
300
300
300
300.001
300.001
300.002
300.004
300.007
300.011
300.02
300.034
300.058
300.1
300.171
300.294
300.504
300.864
301.479
302.529
304.312
307.32
312.324
320.471
333.232
352.069
377.228
406.165
433.585
454.741
467.897
300
300
300
300
300
300
300
300
300
300
300
300
300
300
300
300
300
300
300
300
300
300
300
300.001
300.001
300.002
300.003
300.005
300.009
300.015
300.025
300.043
300.074
300.127
300.218
300.374
300.641
301.098
301.878
303.206
305.454
309.225
315.443
325.404
340.665
362.303
389.51
418.347
443.391
460.72
300
300
300
300
300
300
300
300
300
300
300
300
300
300
300
300
300
300
300
300
300
300
300
300
300.001
300.001
300.002
300.004
300.006
300.011
300.019
300.032
300.055
300.094
300.161
300.277
300.474
300.812
301.388
302.371
304.04
306.854
311.542
319.179
331.215
349.088
373.287
401.662
429.389
450.965
300
300
300
300
300
300
300
300
300
300
300
300
300
300
300
300
300
300
300
300
300
300
300
300
300.001
300.001
300.002
300.003
300.005
300.008
300.014
300.024
300.04
300.069
300.119
300.204
300.349
300.597
301.021
301.744
302.973
305.055
308.545
314.307
323.58
337.845
358.323
384.512
413.074
438.391
300
300
300
300
300
300
300
300
300
300
300
300
300
300
300
300
300
300
300
300
300
300
300
300
300
300.001
300.001
300.002
300.003
300.006
300.01
300.017
300.03
300.051
300.087
300.149
300.255
300.436
300.745
301.273
302.172
303.696
306.265
310.545
317.539
328.592
345.179
367.961
395.329
422.957
300
300
300
300
300
300
300
300
300
300
300
300
300
300
300
300
300
300
300
300
300
300
300
300
300
300.001
300.001
300.001
300.003
300.004
300.007
300.013
300.022
300.037
300.063
300.108
300.185
300.316
300.54
300.923
301.573
302.678
304.545
307.675
312.847
321.188
334.122
352.909
377.395
405.196
300
300
300
300
300
300
300
300
300
300
300
300
300
300
300
300
300
300
300
300
300
300
300
300
300
300
300.001
300.001
300.002
300.003
300.005
300.009
300.016
300.027
300.046
300.078
300.133
300.228
300.388
300.663
301.129
301.921
303.261
305.516
309.269
315.411
325.166
339.95
360.522
386.312
300
300
300
300
300
300
300
300
300
300
300
300
300
300
300
300
300
300
300
300
300
300
300
300
300
300
300
300.001
300.001
300.002
300.004
300.007
300.011
300.019
300.033
300.056
300.095
300.162
300.277
300.471
300.802
301.363
302.313
303.914
306.591
311.017
318.166
329.349
345.713
367.914
300
300
300
300
300
300
300
300
300
300
300
300
300
300
300
300
300
300
300
300
300
300
300
300
300
300
300
300.001
300.001
300.002
300.003
300.005
300.008
300.014
300.023
300.04
300.067
300.115
300.195
300.332
300.564
300.958
301.623
302.746
304.628
307.758
312.875
321.067
333.522
351.456
300
300
300
300
300
300
300
300
300
300
300
300
300
300
300
300
300
300
300
300
300
300
300
300
300
300
300
300
300.001
300.001
300.002
300.003
300.006
300.01
300.016
300.028
300.047
300.081
300.137
300.232
300.394
300.667
301.129
301.908
303.215
305.397
308.994
314.845
324.003
337.764
300
300
300
300
300
300
300
300
300
300
300
300
300
300
300
300
300
300
300
300
300
300
300
300
300
300
300
300
300
300.001
300.001
300.002
300.004
300.007
300.011
300.019
300.033
300.056
300.095
300.161
300.273
300.461
300.78
301.316
302.216
303.722
306.218
310.323
316.891
327.078
300
300
300
300
300
300
300
300
300
300
300
300
300
300
300
300
300
300
300
300
300
300
300
300
300
300
300
300
300
300.001
300.001
300.002
300.003
300.005
300.008
300.014
300.023
300.039
300.066
300.111
300.188
300.317
300.535
300.903
301.519
302.552
304.27
307.116
311.74
319.088
300
300
300
300
300
300
300
300
300
300
300
300
300
300
300
300
300
300
300
300
300
300
300
300
300
300
300
300
300
300
300.001
300.001
300.002
300.003
300.006
300.009
300.016
300.027
300.045
300.076
300.129
300.217
300.366
300.617
301.038
301.744
302.921
304.878
308.095
313.296
300
300
300
300
300
300
300
300
300
300
300
300
300
300
300
300
300
300
300
300
300
300
300
300
300
300
300
300
300
300
300
300.001
300.001
300.002
300.004
300.006
300.011
300.018
300.031
300.052
300.088
300.148
300.25
300.421
300.708
301.189
301.993
303.333
305.553
309.187
300
300
300
300
300
300
300
300
300
300
300
300
300
300
300
300
300
300
300
300
300
300
300
300
300
300
300
300
300
300
300
300.001
300.001
300.002
300.003
300.004
300.007
300.013
300.021
300.036
300.06
300.101
300.17
300.287
300.482
300.809
301.358
302.274
303.798
306.313
300
300
300
300
300
300
300
300
300
300
300
300
300
300
300
300
300
300
300
300
300
300
300
300
300
300
300
300
300
300
300
300
300.001
300.001
300.002
300.003
300.005
300.009
300.014
300.024
300.041
300.069
300.116
300.195
300.328
300.551
300.924
301.549
302.593
304.323
300
300
300
300
300
300
300
300
300
300
300
300
300
300
300
300
300
300
300
300
300
300
300
300
300
300
300
300
300
300
300
300
300
300.001
300.001
300.002
300.003
300.006
300.01
300.017
300.028
300.047
300.079
300.133
300.223
300.375
300.629
301.055
301.768
302.954
300
300
300
300
300
300
300
300
300
300
300
300
300
300
300
300
300
300
300
300
300
300
300
300
300
300
300
300
300
300
300
300
300
300
300.001
300.001
300.002
300.004
300.007
300.011
300.019
300.032
300.054
300.09
300.152
300.255
300.428
300.718
301.205
302.016
300
300
300
300
300
300
300
300
300
300
300
300
300
300
300
300
300
300
300
300
300
300
300
300
300
300
300
300
300
300
300
300
300
300
300.001
300.001
300.002
300.003
300.005
300.008
300.013
300.022
300.037
300.061
300.103
300.173
300.291
300.489
300.82
301.374
300
300
300
300
300
300
300
300
300
300
300
300
300
300
300
300
300
300
300
300
300
300
300
300
300
300
300
300
300
300
300
300
300
300
300
300.001
300.001
300.002
300.003
300.005
300.009
300.015
300.025
300.042
300.07
300.118
300.198
300.333
300.558
300.936
300
300
300
300
300
300
300
300
300
300
300
300
300
300
300
300
300
300
300
300
300
300
300
300
300
300
300
300
300
300
300
300
300
300
300
300
300.001
300.001
300.002
300.004
300.006
300.01
300.017
300.028
300.048
300.08
300.135
300.226
300.38
300.638
300
300
300
300
300
300
300
300
300
300
300
300
300
300
300
300
300
300
300
300
300
300
300
300
300
300
300
300
300
300
300
300
300
300
300
300
300.001
300.001
300.001
300.002
300.004
300.007
300.012
300.019
300.032
300.055
300.092
300.154
300.259
300.434
300
300
300
300
300
300
300
300
300
300
300
300
300
300
300
300
300
300
300
300
300
300
300
300
300
300
300
300
300
300
300
300
300
300
300
300
300
300.001
300.001
300.002
300.003
300.005
300.008
300.013
300.022
300.037
300.062
300.105
300.176
300.295
300
300
300
300
300
300
300
300
300
300
300
300
300
300
300
300
300
300
300
300
300
300
300
300
300
300
300
300
300
300
300
300
300
300
300
300
300
300
300.001
300.001
300.002
300.003
300.005
300.009
300.015
300.025
300.042
300.071
300.12
300.201
300
300
300
300
300
300
300
300
300
300
300
300
300
300
300
300
300
300
300
300
300
300
300
300
300
300
300
300
300
300
300
300
300
300
300
300
300
300
300
300.001
300.001
300.002
300.004
300.006
300.01
300.017
300.029
300.048
300.081
300.137
300
300
300
300
300
300
300
300
300
300
300
300
300
300
300
300
300
300
300
300
300
300
300
300
300
300
300
300
300
300
300
300
300
300
300
300
300
300
300
300.001
300.001
300.001
300.002
300.004
300.007
300.012
300.02
300.033
300.055
300.093
300
300
300
300
300
300
300
300
300
300
300
300
300
300
300
300
300
300
300
300
300
300
300
300
300
300
300
300
300
300
300
300
300
300
300
300
300
300
300
300
300.001
300.001
300.002
300.003
300.005
300.008
300.013
300.022
300.038
300.063
300
300
300
300
300
300
300
300
300
300
300
300
300
300
300
300
300
300
300
300
300
300
300
300
300
300
300
300
300
300
300
300
300
300
300
300
300
300
300
300
300
300.001
300.001
300.002
300.003
300.005
300.009
300.015
300.026
300.043
300
300
300
300
300
300
300
300
300
300
300
300
300
300
300
300
300
300
300
300
300
300
300
300
300
300
300
300
300
300
300
300
300
300
300
300
300
300
300
300
300
300
300.001
300.001
300.002
300.004
300.006
300.01
300.017
300.029
300
300
300
300
300
300
300
300
300
300
300
300
300
300
300
300
300
300
300
300
300
300
300
300
300
300
300
300
300
300
300
300
300
300
300
300
300
300
300
300
300
300
300.001
300.001
300.001
300.002
300.004
300.007
300.012
300.02
300
300
300
300
300
300
300
300
300
300
300
300
300
300
300
300
300
300
300
300
300
300
300
300
300
300
300
300
300
300
300
300
300
300
300
300
300
300
300
300
300
300
300
300.001
300.001
300.002
300.003
300.005
300.008
300.013
300
300
300
300
300
300
300
300
300
300
300
300
300
300
300
300
300
300
300
300
300
300
300
300
300
300
300
300
300
300
300
300
300
300
300
300
300
300
300
300
300
300
300
300
300.001
300.001
300.002
300.003
300.005
300.009
300
300
300
300
300
300
300
300
300
300
300
300
300
300
300
300
300
300
300
300
300
300
300
300
300
300
300
300
300
300
300
300
300
300
300
300
300
300
300
300
300
300
300
300
300
300.001
300.001
300.002
300.004
300.006
300
300
300
300
300
300
300
300
300
300
300
300
300
300
300
300
300
300
300
300
300
300
300
300
300
300
300
300
300
300
300
300
300
300
300
300
300
300
300
300
300
300
300
300
300
300.001
300.001
300.001
300.002
300.004
300
300
300
300
300
300
300
300
300
300
300
300
300
300
300
300
300
300
300
300
300
300
300
300
300
300
300
300
300
300
300
300
300
300
300
300
300
300
300
300
300
300
300
300
300
300
300.001
300.001
300.002
300.003
300
300
300
300
300
300
300
300
300
300
300
300
300
300
300
300
300
300
300
300
300
300
300
300
300
300
300
300
300
300
300
300
300
300
300
300
300
300
300
300
300
300
300
300
300
300
300
300.001
300.001
300.002
300
300
300
300
300
300
300
300
300
300
300
300
300
300
300
300
300
300
300
300
300
300
300
300
300
300
300
300
300
300
300
300
300
300
300
300
300
300
300
300
300
300
300
300
300
300
300
300
300.001
300.001
300
300
300
300
300
300
300
300
300
300
300
300
300
300
300
300
300
300
300
300
300
300
300
300
300
300
300
300
300
300
300
300
300
300
300
300
300
300
300
300
300
300
300
300
300
300
300
300
300.001
300.001
300
300
300
300
300
300
300
300
300
300
300
300
300
300
300
300
300
300
300
300
300
300
300
300
300
300
300
300
300
300
300
300
300
300
300
300
300
300
300
300
300
300
300
300
300
300
300
300
300
300.001
300
300
300
300
300
300
300
300
300
300
300
300
300
300
300
300
300
300
300
300
300
300
300
300
300
300
300
300
300
300
300
300
300
300
300
300
300
300
300
300
300
300
300
300
300
300
300
300
300
300
300
300
300
300
300
300
300
300
300
300
300
300
300
300
300
300
300
300
300
300
300
300
300
300
300
300
300
300
300
300
300
300
300
300
300
300
300
300
300
300
300
300
300
300
300
300
300
300
300
300
300
300
300
300
300
300
300
300
300
300
300
300
300
300
300
300
300
300
300
300
300
300
300
300
300
300
300
300
300
300
300
300
300
300
300
300
300
300
300
300
300
300
300
300
300
300
300
300
300
300
300
300
300
300
300
300
300
300
300
300
300
300
300
300
300
300
300
300
300
300
300
300
300
300
300
300
300
300
300
300
300
300
300
300
300
300
300
300
300
300
300
300
300
300
300
300
300
300
300
300
300
300
300
300
300
300
300
300
300
300
300
300
300
300
300
300
300
300
300
300
300
300
300
300
300
300
300
300
300
300
300
300
300
300
300
300
300
300
300
300
300
300
300
300
300
300
300
300
300
300
300
300
300
300
300
300
300
300
300
300
300
300
300
300
300
300
300
300
300
300
300
300
300
300
300
300
300
300
300
300
300
300
300
300
300
300
300
300
300
300
300
300
300
300
300
300
300
300
300
300
300
300
300
300
300
300
300
300
300
300
300
300
300
300
300