/*--------------------------------*- C++ -*----------------------------------*\
| =========                 |                                                 |
| \\      /  F ield         | OpenFOAM: The Open Source CFD Toolbox           |
|  \\    /   O peration     | Version:  2412                                  |
|   \\  /    A nd           | Website:  www.openfoam.com                      |
|    \\/     M anipulation  |                                                 |
\*---------------------------------------------------------------------------*/
FoamFile
{
    version     2.0;
    format      ascii;
    arch        "LSB;label=32;scalar=64";
    class       volVectorField;
    location    "0.0999";
    object      U;
}
// * * * * * * * * * * * * * * * * * * * * * * * * * * * * * * * * * * * * * //

dimensions      [0 1 -1 0 0 0 0];

internalField   nonuniform List<vector> 
15000
(
(694.73 3.70346e-08 0)
(694.73 1.20767e-07 0)
(694.73 2.84957e-07 0)
(694.73 5.87203e-07 0)
(694.73 1.13418e-06 0)
(694.73 2.11394e-06 0)
(694.729 3.85935e-06 0)
(694.729 6.95979e-06 0)
(694.727 1.24585e-05 0)
(694.725 2.2203e-05 0)
(694.722 3.94646e-05 0)
(694.716 7.00378e-05 0)
(694.705 0.000124183 0)
(694.687 0.000220082 0)
(694.654 0.000389935 0)
(694.596 0.000690817 0)
(694.495 0.00122384 0)
(694.316 0.00216818 0)
(694.001 0.00384106 0)
(693.448 0.0068047 0)
(692.475 0.0120551 0)
(690.765 0.0213539 0)
(687.768 0.0377994 0)
(682.533 0.0668008 0)
(673.437 0.117685 0)
(657.825 0.206234 0)
(631.794 0.357171 0)
(590.956 0.601824 0)
(533.29 0.961187 0)
(463.036 1.41337 0)
(391.289 1.88179 0)
(330.566 2.27898 0)
(287.836 2.56466 0)
(262.383 2.75518 0)
(248.837 2.89107 0)
(241.432 3.00895 0)
(236.3 3.13225 0)
(231.586 3.27468 0)
(226.672 3.44501 0)
(221.455 3.65171 0)
(215.95 3.90484 0)
(210.152 4.2195 0)
(204.003 4.61713 0)
(197.412 5.13347 0)
(190.228 5.81886 0)
(182.242 6.76452 0)
(173.157 8.12345 0)
(162.505 10.1671 0)
(149.703 13.4564 0)
(133.082 19.1303 0)
(694.73 1.09782e-07 0)
(694.73 3.57994e-07 0)
(694.73 8.44684e-07 0)
(694.73 1.74056e-06 0)
(694.73 3.36167e-06 0)
(694.73 6.26521e-06 0)
(694.729 1.1437e-05 0)
(694.729 2.06229e-05 0)
(694.727 3.69114e-05 0)
(694.726 6.57733e-05 0)
(694.722 0.000116889 0)
(694.716 0.000207408 0)
(694.706 0.000367683 0)
(694.687 0.000651491 0)
(694.655 0.00115403 0)
(694.598 0.00204399 0)
(694.497 0.00362009 0)
(694.32 0.0064115 0)
(694.009 0.0113546 0)
(693.462 0.0201081 0)
(692.499 0.0356078 0)
(690.809 0.063043 0)
(687.845 0.111531 0)
(682.669 0.196985 0)
(673.674 0.346825 0)
(658.232 0.607419 0)
(632.467 1.05133 0)
(591.986 1.77054 0)
(534.675 2.82732 0)
(464.614 4.15943 0)
(392.785 5.54397 0)
(331.767 6.72002 0)
(288.701 7.5598 0)
(263.007 8.10424 0)
(249.346 8.47382 0)
(241.921 8.78122 0)
(236.828 9.09943 0)
(232.187 9.46875 0)
(227.372 9.9126 0)
(222.283 10.4507 0)
(216.944 11.1057 0)
(211.366 11.9099 0)
(205.522 12.907 0)
(199.362 14.1653 0)
(192.812 15.7747 0)
(185.804 17.8825 0)
(178.27 20.6996 0)
(170.228 24.5558 0)
(161.948 29.9515 0)
(153.779 37.6019 0)
(694.73 1.78687e-07 0)
(694.73 5.82682e-07 0)
(694.73 1.37479e-06 0)
(694.73 2.83272e-06 0)
(694.73 5.47048e-06 0)
(694.73 1.01941e-05 0)
(694.729 1.86061e-05 0)
(694.729 3.35436e-05 0)
(694.728 6.00243e-05 0)
(694.726 0.000106933 0)
(694.722 0.000189987 0)
(694.716 0.000337019 0)
(694.706 0.000597271 0)
(694.688 0.00105795 0)
(694.656 0.00187338 0)
(694.6 0.00331689 0)
(694.502 0.0058722 0)
(694.329 0.0103958 0)
(694.024 0.0184024 0)
(693.489 0.0325735 0)
(692.548 0.0576522 0)
(690.894 0.102016 0)
(687.996 0.180375 0)
(682.933 0.318385 0)
(674.135 0.56025 0)
(659.024 0.980775 0)
(633.776 1.69731 0)
(593.989 2.86009 0)
(537.385 4.57589 0)
(467.73 6.75638 0)
(395.785 9.05141 0)
(334.217 11.0312 0)
(290.491 12.464 0)
(264.3 13.3954 0)
(250.39 14.0177 0)
(242.916 14.5215 0)
(237.896 15.0334 0)
(233.397 15.6208 0)
(228.772 16.3194 0)
(223.916 17.155 0)
(218.867 18.155 0)
(213.655 19.3565 0)
(208.284 20.8073 0)
(202.745 22.5753 0)
(197.027 24.7445 0)
(191.143 27.4357 0)
(185.146 30.7937 0)
(179.161 35.0183 0)
(173.465 40.3077 0)
(168.33 46.8258 0)
(694.73 2.416e-07 0)
(694.73 7.87818e-07 0)
(694.73 1.85868e-06 0)
(694.73 3.8294e-06 0)
(694.73 7.39422e-06 0)
(694.73 1.37765e-05 0)
(694.729 2.51393e-05 0)
(694.729 4.53106e-05 0)
(694.728 8.10581e-05 0)
(694.726 0.000144361 0)
(694.723 0.000256402 0)
(694.717 0.000454677 0)
(694.707 0.000805494 0)
(694.689 0.00142624 0)
(694.659 0.00252451 0)
(694.604 0.0044679 0)
(694.509 0.0079065 0)
(694.341 0.0139909 0)
(694.047 0.0247548 0)
(693.528 0.0437967 0)
(692.617 0.0774769 0)
(691.018 0.137025 0)
(688.213 0.24215 0)
(683.315 0.427224 0)
(674.801 0.751472 0)
(660.167 1.31527 0)
(635.668 2.2769 0)
(596.898 3.84219 0)
(541.349 6.16684 0)
(472.334 9.15202 0)
(400.268 12.3375 0)
(337.914 15.1261 0)
(293.191 17.1662 0)
(266.213 18.4908 0)
(251.882 19.3555 0)
(244.295 20.0289 0)
(239.353 20.693 0)
(235.033 21.4436 0)
(230.645 22.3265 0)
(226.074 23.3693 0)
(221.365 24.5983 0)
(216.565 26.046 0)
(211.699 27.7535 0)
(206.78 29.7732 0)
(201.83 32.1665 0)
(196.889 35.0096 0)
(192.03 38.3814 0)
(187.371 42.3668 0)
(183.104 47.0242 0)
(179.417 52.3579 0)
(694.73 2.9674e-07 0)
(694.73 9.67591e-07 0)
(694.73 2.28266e-06 0)
(694.73 4.70238e-06 0)
(694.73 9.07841e-06 0)
(694.73 1.69109e-05 0)
(694.729 3.08511e-05 0)
(694.729 5.55895e-05 0)
(694.728 9.94147e-05 0)
(694.726 0.000176992 0)
(694.723 0.000314241 0)
(694.717 0.000557027 0)
(694.708 0.000986411 0)
(694.691 0.00174584 0)
(694.661 0.00308887 0)
(694.61 0.00546424 0)
(694.518 0.00966517 0)
(694.357 0.0170949 0)
(694.075 0.0302321 0)
(693.579 0.0534608 0)
(692.706 0.094525 0)
(691.174 0.167093 0)
(688.489 0.295149 0)
(683.799 0.52052 0)
(675.646 0.915291 0)
(661.62 1.60188 0)
(638.079 2.77467 0)
(600.626 4.69158 0)
(546.474 7.56212 0)
(478.361 11.2961 0)
(406.217 15.3458 0)
(342.877 18.951 0)
(296.828 21.6232 0)
(268.762 23.3616 0)
(253.815 24.4737 0)
(246.031 25.3048 0)
(241.151 26.0949 0)
(237.026 26.9698 0)
(232.899 27.9857 0)
(228.635 29.1704 0)
(224.279 30.5454 0)
(219.887 32.1361 0)
(215.497 33.9726 0)
(211.134 36.0912 0)
(206.828 38.5316 0)
(202.626 41.3362 0)
(198.592 44.544 0)
(194.816 48.1853 0)
(191.432 52.269 0)
(188.552 56.7654 0)
(694.73 3.42864e-07 0)
(694.73 1.11795e-06 0)
(694.73 2.63716e-06 0)
(694.73 5.43197e-06 0)
(694.73 1.0485e-05 0)
(694.73 1.95265e-05 0)
(694.729 3.56129e-05 0)
(694.729 6.4149e-05 0)
(694.728 0.000114681 0)
(694.726 0.000204094 0)
(694.723 0.000362211 0)
(694.718 0.000641783 0)
(694.709 0.001136 0)
(694.693 0.00200967 0)
(694.665 0.00355398 0)
(694.616 0.00628399 0)
(694.529 0.0111096 0)
(694.376 0.0196399 0)
(694.108 0.0347154 0)
(693.638 0.0613573 0)
(692.811 0.10843 0)
(691.359 0.191575 0)
(688.814 0.338236 0)
(684.369 0.596274 0)
(676.64 1.04821 0)
(663.331 1.83451 0)
(640.93 3.17998 0)
(605.064 5.38998 0)
(552.647 8.73202 0)
(485.729 13.1458 0)
(413.605 18.0244 0)
(349.123 22.4533 0)
(301.433 25.7882 0)
(271.956 27.9681 0)
(256.17 29.3376 0)
(248.073 30.3164 0)
(243.215 31.2063 0)
(239.279 32.1672 0)
(235.418 33.2674 0)
(231.46 34.5351 0)
(227.444 35.9872 0)
(223.433 37.6412 0)
(219.469 39.5175 0)
(215.582 41.6392 0)
(211.804 44.0299 0)
(208.174 46.7114 0)
(204.746 49.7002 0)
(201.583 53.0023 0)
(198.777 56.6083 0)
(196.387 60.4825 0)
(694.73 3.79195e-07 0)
(694.73 1.23637e-06 0)
(694.73 2.91625e-06 0)
(694.73 6.00598e-06 0)
(694.73 1.15907e-05 0)
(694.73 2.15802e-05 0)
(694.729 3.93465e-05 0)
(694.729 7.08497e-05 0)
(694.728 0.000126612 0)
(694.726 0.000225232 0)
(694.724 0.00039955 0)
(694.719 0.000707618 0)
(694.71 0.00125193 0)
(694.695 0.00221369 0)
(694.669 0.0039128 0)
(694.622 0.0069149 0)
(694.541 0.0122187 0)
(694.398 0.0215891 0)
(694.146 0.0381406 0)
(693.704 0.0673749 0)
(692.928 0.119 0)
(691.565 0.210138 0)
(689.177 0.370835 0)
(685.006 0.653494 0)
(677.752 1.14851 0)
(665.246 2.01012 0)
(644.133 3.4873 0)
(610.092 5.92688 0)
(559.735 9.6569 0)
(494.334 14.6687 0)
(422.395 20.3298 0)
(356.678 25.5867 0)
(307.049 29.6218 0)
(275.823 32.2821 0)
(258.94 33.9295 0)
(250.385 35.0546 0)
(245.487 36.0263 0)
(241.719 37.0435 0)
(238.113 38.1906 0)
(234.448 39.4977 0)
(230.75 40.9779 0)
(227.082 42.642 0)
(223.489 44.5023 0)
(220.002 46.5723 0)
(216.65 48.8646 0)
(213.465 51.3888 0)
(210.487 54.1491 0)
(207.762 57.1413 0)
(205.351 60.3496 0)
(203.28 63.7424 0)
(694.73 4.05486e-07 0)
(694.73 1.32203e-06 0)
(694.73 3.11803e-06 0)
(694.73 6.42057e-06 0)
(694.73 1.23882e-05 0)
(694.73 2.30587e-05 0)
(694.729 4.20285e-05 0)
(694.729 7.56511e-05 0)
(694.728 0.000135137 0)
(694.727 0.000240292 0)
(694.724 0.000426066 0)
(694.719 0.00075421 0)
(694.712 0.00133369 0)
(694.698 0.00235703 0)
(694.673 0.00416397 0)
(694.63 0.00735479 0)
(694.554 0.0129888 0)
(694.42 0.0229373 0)
(694.186 0.0404998 0)
(693.775 0.0715024 0)
(693.053 0.126218 0)
(691.787 0.222762 0)
(689.568 0.392919 0)
(685.692 0.69214 0)
(678.947 1.21613 0)
(667.309 2.12857 0)
(647.597 3.69602 0)
(615.58 6.29956 0)
(567.585 10.3277 0)
(504.054 15.8437 0)
(432.538 22.2275 0)
(365.564 28.3108 0)
(313.736 33.0881 0)
(280.41 36.2792 0)
(262.137 38.2371 0)
(252.946 39.5171 0)
(247.92 40.5603 0)
(244.284 41.6123 0)
(240.914 42.7781 0)
(237.522 44.0927 0)
(234.114 45.5667 0)
(230.75 47.2059 0)
(227.477 49.0165 0)
(224.324 51.0052 0)
(221.317 53.1774 0)
(218.482 55.5359 0)
(215.846 58.0787 0)
(213.442 60.7973 0)
(211.313 63.6756 0)
(209.464 66.6874 0)
(694.73 4.21907e-07 0)
(694.73 1.37551e-06 0)
(694.73 3.24383e-06 0)
(694.73 6.67857e-06 0)
(694.73 1.28831e-05 0)
(694.73 2.39731e-05 0)
(694.729 4.36803e-05 0)
(694.729 7.85936e-05 0)
(694.728 0.000140333 0)
(694.727 0.000249415 0)
(694.724 0.000442025 0)
(694.72 0.000782061 0)
(694.713 0.00138221 0)
(694.7 0.00244146 0)
(694.677 0.00431072 0)
(694.637 0.00760971 0)
(694.567 0.0134314 0)
(694.444 0.023705 0)
(694.229 0.0418313 0)
(693.85 0.0738103 0)
(693.185 0.130215 0)
(692.018 0.229684 0)
(689.975 0.404922 0)
(686.406 0.712999 0)
(680.194 1.25248 0)
(669.465 2.19231 0)
(651.232 3.80996 0)
(621.392 6.51254 0)
(576.034 10.7459 0)
(514.742 16.6617 0)
(443.963 23.6928 0)
(375.804 30.5901 0)
(321.564 36.1532 0)
(285.783 39.9365 0)
(265.795 42.2507 0)
(255.751 43.7057 0)
(250.486 44.8193 0)
(246.929 45.8924 0)
(243.768 47.057 0)
(240.626 48.3567 0)
(237.481 49.8018 0)
(234.385 51.3944 0)
(231.386 53.1363 0)
(228.513 55.0294 0)
(225.787 57.0751 0)
(223.229 59.2719 0)
(220.86 61.6151 0)
(218.7 64.0951 0)
(216.78 66.6971 0)
(215.094 69.4001 0)
(694.73 4.29024e-07 0)
(694.73 1.39865e-06 0)
(694.73 3.29807e-06 0)
(694.73 6.7891e-06 0)
(694.73 1.30933e-05 0)
(694.73 2.4357e-05 0)
(694.729 4.43639e-05 0)
(694.729 7.97913e-05 0)
(694.728 0.000142407 0)
(694.727 0.00025298 0)
(694.725 0.000448114 0)
(694.721 0.000792412 0)
(694.714 0.00139973 0)
(694.702 0.00247102 0)
(694.682 0.00436042 0)
(694.645 0.00769295 0)
(694.581 0.0135702 0)
(694.469 0.0239358 0)
(694.271 0.0422133 0)
(693.925 0.0744398 0)
(693.318 0.131246 0)
(692.254 0.231365 0)
(690.39 0.407669 0)
(687.133 0.717539 0)
(681.463 1.26015 0)
(671.659 2.20582 0)
(654.949 3.83651 0)
(627.395 6.57643 0)
(584.907 10.9223 0)
(526.233 17.1251 0)
(456.579 24.7112 0)
(387.408 32.3946 0)
(330.615 38.7842 0)
(292.032 43.2303 0)
(269.968 45.9609 0)
(258.814 47.6235 0)
(253.166 48.8159 0)
(249.621 49.9041 0)
(246.636 51.0548 0)
(243.72 52.3248 0)
(240.811 53.7264 0)
(237.951 55.2598 0)
(235.188 56.9234 0)
(232.551 58.7162 0)
(230.058 60.6367 0)
(227.725 62.6814 0)
(225.566 64.8445 0)
(223.596 67.1167 0)
(221.838 69.4849 0)
(220.276 71.9322 0)
(694.73 4.27691e-07 0)
(694.73 1.39423e-06 0)
(694.73 3.28732e-06 0)
(694.73 6.76582e-06 0)
(694.73 1.30452e-05 0)
(694.73 2.42601e-05 0)
(694.73 4.41713e-05 0)
(694.729 7.94116e-05 0)
(694.729 0.000141664 0)
(694.727 0.000251535 0)
(694.725 0.000445319 0)
(694.722 0.000787038 0)
(694.716 0.00138945 0)
(694.705 0.00245145 0)
(694.686 0.00432333 0)
(694.653 0.00762291 0)
(694.595 0.0134385 0)
(694.493 0.0236889 0)
(694.314 0.0417523 0)
(694.001 0.0735818 0)
(693.451 0.129653 0)
(692.488 0.228416 0)
(690.802 0.40225 0)
(687.855 0.707695 0)
(682.725 1.24257 0)
(673.846 2.17509 0)
(658.668 3.78582 0)
(633.459 6.50682 0)
(594.028 10.876 0)
(538.339 17.2482 0)
(470.263 25.2793 0)
(400.369 33.7005 0)
(340.973 40.9483 0)
(299.264 46.1342 0)
(274.735 49.3554 0)
(262.171 51.2722 0)
(255.963 52.5626 0)
(252.343 53.6673 0)
(249.491 54.7975 0)
(246.776 56.0287 0)
(244.079 57.3783 0)
(241.429 58.8457 0)
(238.871 60.4275 0)
(236.434 62.1205 0)
(234.135 63.9213 0)
(231.986 65.8258 0)
(229.998 67.8276 0)
(228.181 69.9182 0)
(226.552 72.0864 0)
(225.089 74.3186 0)
(694.73 4.18976e-07 0)
(694.73 1.36576e-06 0)
(694.73 3.21983e-06 0)
(694.73 6.62576e-06 0)
(694.73 1.2772e-05 0)
(694.73 2.37446e-05 0)
(694.73 4.32164e-05 0)
(694.729 7.76614e-05 0)
(694.729 0.000138476 0)
(694.728 0.000245749 0)
(694.726 0.000434841 0)
(694.723 0.000768087 0)
(694.717 0.00135521 0)
(694.707 0.00238962 0)
(694.69 0.00421173 0)
(694.661 0.00742158 0)
(694.608 0.0130754 0)
(694.517 0.0230344 0)
(694.356 0.0405735 0)
(694.075 0.0714596 0)
(693.582 0.125834 0)
(692.717 0.221551 0)
(691.204 0.389938 0)
(688.561 0.685727 0)
(683.958 1.20369 0)
(675.985 2.10704 0)
(662.318 3.66967 0)
(639.465 6.32256 0)
(603.221 10.6328 0)
(550.857 17.0555 0)
(484.861 25.406 0)
(414.651 34.4921 0)
(352.716 42.6137 0)
(307.606 48.6182 0)
(280.2 52.4178 0)
(265.877 54.6506 0)
(258.893 56.0696 0)
(255.087 57.2002 0)
(252.318 58.3087 0)
(249.776 59.4965 0)
(247.269 60.7896 0)
(244.806 62.1885 0)
(242.427 63.6886 0)
(240.162 65.2851 0)
(238.027 66.9739 0)
(236.032 68.7501 0)
(234.186 70.6077 0)
(232.494 72.5391 0)
(230.97 74.5346 0)
(229.589 76.5833 0)
(694.73 4.04074e-07 0)
(694.73 1.31711e-06 0)
(694.73 3.10482e-06 0)
(694.73 6.38794e-06 0)
(694.73 1.23105e-05 0)
(694.73 2.28793e-05 0)
(694.73 4.16255e-05 0)
(694.729 7.47698e-05 0)
(694.729 0.000133256 0)
(694.728 0.000236361 0)
(694.726 0.000418001 0)
(694.723 0.000737918 0)
(694.719 0.00130121 0)
(694.71 0.00229302 0)
(694.695 0.00403899 0)
(694.668 0.00711275 0)
(694.621 0.0125233 0)
(694.54 0.0220479 0)
(694.397 0.0388111 0)
(694.146 0.0683124 0)
(693.707 0.120216 0)
(692.937 0.211524 0)
(691.591 0.37207 0)
(689.239 0.653996 0)
(685.142 1.14769 0)
(678.04 2.00897 0)
(665.839 3.50074 0)
(645.31 6.04457 0)
(612.319 10.2232 0)
(563.573 16.5813 0)
(500.184 25.1124 0)
(430.181 34.763 0)
(365.908 43.7508 0)
(317.192 50.6483 0)
(286.492 55.1254 0)
(270.016 57.7523 0)
(261.991 59.3437 0)
(257.86 60.518 0)
(255.109 61.609 0)
(252.709 62.7526 0)
(250.372 63.9878 0)
(248.075 65.3181 0)
(245.855 66.7386 0)
(243.739 68.2437 0)
(241.744 69.8286 0)
(239.881 71.4882 0)
(238.154 73.2169 0)
(236.567 75.0079 0)
(235.132 76.8531 0)
(233.819 78.7432 0)
(694.73 3.84225e-07 0)
(694.73 1.25235e-06 0)
(694.73 2.95182e-06 0)
(694.73 6.07207e-06 0)
(694.73 1.16988e-05 0)
(694.73 2.17354e-05 0)
(694.73 3.9529e-05 0)
(694.729 7.09725e-05 0)
(694.729 0.000126426 0)
(694.728 0.000224129 0)
(694.727 0.000396148 0)
(694.724 0.000698935 0)
(694.72 0.00123174 0)
(694.712 0.00216926 0)
(694.699 0.00381862 0)
(694.675 0.00672043 0)
(694.634 0.011825 0)
(694.562 0.020805 0)
(694.435 0.0365998 0)
(694.213 0.0643791 0)
(693.825 0.113222 0)
(693.145 0.199091 0)
(691.957 0.349989 0)
(689.88 0.614884 0)
(686.261 1.07874 0)
(679.986 1.88819 0)
(669.182 3.29169 0)
(650.904 5.69423 0)
(621.17 9.68027 0)
(576.269 15.8672 0)
(516.012 24.4326 0)
(446.84 34.5193 0)
(380.584 44.3349 0)
(328.162 52.1871 0)
(293.765 57.4489 0)
(274.694 60.5645 0)
(265.311 62.3872 0)
(260.679 63.6327 0)
(257.864 64.7162 0)
(255.569 65.818 0)
(253.382 66.9959 0)
(251.236 68.2592 0)
(249.156 69.6036 0)
(247.171 71.023 0)
(245.299 72.5121 0)
(243.549 74.066 0)
(241.924 75.6792 0)
(240.427 77.3459 0)
(239.067 79.0591 0)
(237.814 80.811 0)
(694.73 3.6066e-07 0)
(694.73 1.17548e-06 0)
(694.73 2.77033e-06 0)
(694.73 5.69769e-06 0)
(694.73 1.09747e-05 0)
(694.73 2.03834e-05 0)
(694.73 3.70556e-05 0)
(694.729 6.65019e-05 0)
(694.729 0.000118404 0)
(694.728 0.000209796 0)
(694.727 0.000370606 0)
(694.725 0.000653489 0)
(694.721 0.00115095 0)
(694.714 0.00202574 0)
(694.702 0.00356374 0)
(694.682 0.00626788 0)
(694.645 0.0110216 0)
(694.582 0.019379 0)
(694.471 0.034069 0)
(694.276 0.0598891 0)
(693.936 0.105258 0)
(693.34 0.184968 0)
(692.298 0.32496 0)
(690.478 0.570616 0)
(687.306 1.00077 0)
(681.803 1.75158 0)
(672.312 3.05459 0)
(656.179 5.2924 0)
(629.642 9.03792 0)
(588.734 14.9598 0)
(532.099 23.4123 0)
(464.459 33.7813 0)
(396.734 44.3489 0)
(340.646 53.1952 0)
(302.189 59.3514 0)
(280.048 63.0666 0)
(268.933 65.1961 0)
(263.579 66.5524 0)
(260.593 67.6445 0)
(258.357 68.7103 0)
(256.297 69.8336 0)
(254.286 71.0325 0)
(252.334 72.3049 0)
(250.466 73.6445 0)
(248.701 75.0457 0)
(247.049 76.5036 0)
(245.513 78.0132 0)
(244.095 79.5693 0)
(242.801 81.1658 0)
(241.601 82.7963 0)
(694.73 3.34527e-07 0)
(694.73 1.09025e-06 0)
(694.73 2.56919e-06 0)
(694.73 5.28303e-06 0)
(694.73 1.01734e-05 0)
(694.73 1.88888e-05 0)
(694.73 3.43252e-05 0)
(694.73 6.15741e-05 0)
(694.729 0.000109576 0)
(694.729 0.00019405 0)
(694.727 0.000342597 0)
(694.726 0.000603746 0)
(694.722 0.0010627 0)
(694.716 0.00186925 0)
(694.706 0.00328638 0)
(694.688 0.00577637 0)
(694.656 0.0101508 0)
(694.601 0.0178362 0)
(694.504 0.0313364 0)
(694.334 0.0550499 0)
(694.038 0.0966908 0)
(693.519 0.169805 0)
(692.612 0.298136 0)
(691.029 0.523235 0)
(688.269 0.917355 0)
(683.478 1.60541 0)
(675.203 2.80043 0)
(661.082 4.8583 0)
(637.626 8.32876 0)
(600.77 13.9083 0)
(548.179 22.1073 0)
(482.815 32.5848 0)
(414.297 43.7878 0)
(354.751 53.6347 0)
(311.95 60.789 0)
(286.244 65.229 0)
(272.96 67.7596 0)
(266.609 69.2798 0)
(263.314 70.4049 0)
(261.077 71.4444 0)
(259.119 72.5174 0)
(257.23 73.6554 0)
(255.392 74.86 0)
(253.63 76.1255 0)
(251.961 77.4462 0)
(250.396 78.817 0)
(248.938 80.2333 0)
(247.589 81.6905 0)
(246.354 83.1834 0)
(245.201 84.7064 0)
(694.73 3.06886e-07 0)
(694.73 1.00012e-06 0)
(694.73 2.35651e-06 0)
(694.73 4.84482e-06 0)
(694.73 9.32711e-06 0)
(694.73 1.73119e-05 0)
(694.73 3.14472e-05 0)
(694.73 5.6386e-05 0)
(694.729 0.000100293 0)
(694.729 0.000177516 0)
(694.728 0.00031323 0)
(694.726 0.000551668 0)
(694.723 0.000970444 0)
(694.718 0.00170592 0)
(694.709 0.00299733 0)
(694.693 0.00526497 0)
(694.666 0.00924613 0)
(694.618 0.016236 0)
(694.534 0.0285064 0)
(694.387 0.0500461 0)
(694.131 0.0878458 0)
(693.682 0.154173 0)
(692.899 0.270518 0)
(691.531 0.474501 0)
(689.146 0.831597 0)
(685.004 1.45511 0)
(677.843 2.53877 0)
(665.582 4.40898 0)
(645.042 7.58287 0)
(612.207 12.7616 0)
(563.986 20.581 0)
(501.638 30.982 0)
(433.143 42.6624 0)
(370.545 53.473 0)
(323.236 61.7124 0)
(293.474 67.0123 0)
(277.527 70.058 0)
(269.841 71.812 0)
(266.059 73.0044 0)
(263.741 74.0322 0)
(261.852 75.0612 0)
(260.069 76.1425 0)
(258.337 77.2837 0)
(256.67 78.4806 0)
(255.088 79.7274 0)
(253.6 81.0191 0)
(252.213 82.3513 0)
(250.925 83.7197 0)
(249.743 85.12 0)
(248.633 86.5473 0)
(694.73 2.78642e-07 0)
(694.73 9.08024e-07 0)
(694.73 2.13929e-06 0)
(694.73 4.39741e-06 0)
(694.73 8.46362e-06 0)
(694.73 1.5704e-05 0)
(694.73 2.85153e-05 0)
(694.73 5.11059e-05 0)
(694.729 9.08565e-05 0)
(694.729 0.000160728 0)
(694.728 0.000283446 0)
(694.727 0.000498919 0)
(694.724 0.000877121 0)
(694.72 0.00154091 0)
(694.712 0.00270571 0)
(694.698 0.0047497 0)
(694.675 0.00833586 0)
(694.634 0.0146281 0)
(694.561 0.0256666 0)
(694.435 0.0450314 0)
(694.215 0.0789931 0)
(693.83 0.138548 0)
(693.157 0.24295 0)
(691.983 0.425903 0)
(689.936 0.746116 0)
(686.38 1.30529 0)
(680.226 2.2777 0)
(669.66 3.95883 0)
(651.837 6.82648 0)
(622.903 11.5655 0)
(579.261 18.9001 0)
(520.617 29.0397 0)
(453.069 41.0025 0)
(388.036 52.6879 0)
(336.222 62.0698 0)
(301.953 68.3675 0)
(282.799 72.0617 0)
(273.371 74.1388 0)
(268.87 75.4454 0)
(266.365 76.4824 0)
(264.503 77.4765 0)
(262.809 78.506 0)
(261.173 79.5884 0)
(259.594 80.7218 0)
(258.09 81.9008 0)
(256.673 83.1204 0)
(255.348 84.3764 0)
(254.116 85.665 0)
(252.982 86.9821 0)
(251.913 88.3237 0)
(694.73 2.50577e-07 0)
(694.73 8.16526e-07 0)
(694.73 1.9235e-06 0)
(694.73 3.95314e-06 0)
(694.73 7.60658e-06 0)
(694.73 1.41092e-05 0)
(694.73 2.56093e-05 0)
(694.73 4.58773e-05 0)
(694.729 8.15206e-05 0)
(694.729 0.000144135 0)
(694.728 0.000254042 0)
(694.727 0.000446901 0)
(694.725 0.000785195 0)
(694.721 0.00137857 0)
(694.715 0.00241913 0)
(694.703 0.00424393 0)
(694.683 0.00744344 0)
(694.647 0.0130536 0)
(694.586 0.0228891 0)
(694.478 0.0401324 0)
(694.29 0.0703546 0)
(693.961 0.123319 0)
(693.387 0.216109 0)
(692.386 0.378626 0)
(690.641 0.66299 0)
(687.608 1.15959 0)
(682.354 2.02363 0)
(673.317 3.51952 0)
(657.981 6.08151 0)
(632.757 10.3608 0)
(593.774 17.1312 0)
(539.422 26.8366 0)
(473.796 38.8594 0)
(407.155 51.2739 0)
(351.051 61.8113 0)
(311.913 69.2367 0)
(288.977 73.73 0)
(277.326 76.2414 0)
(271.814 77.725 0)
(268.978 78.8006 0)
(267.084 79.7724 0)
(265.456 80.7564 0)
(263.905 81.7844 0)
(262.407 82.8591 0)
(260.976 83.9759 0)
(259.623 85.1298 0)
(258.356 86.3167 0)
(257.174 87.533 0)
(256.084 88.7753 0)
(255.052 90.0399 0)
(694.73 2.23304e-07 0)
(694.73 7.27617e-07 0)
(694.73 1.71387e-06 0)
(694.73 3.52167e-06 0)
(694.73 6.77464e-06 0)
(694.73 1.2562e-05 0)
(694.73 2.27921e-05 0)
(694.73 4.08122e-05 0)
(694.73 7.24846e-05 0)
(694.729 0.000128091 0)
(694.729 0.000225637 0)
(694.728 0.0003967 0)
(694.726 0.000696576 0)
(694.722 0.00122223 0)
(694.717 0.00214344 0)
(694.707 0.00375791 0)
(694.69 0.00658682 0)
(694.66 0.0115439 0)
(694.607 0.0202288 0)
(694.516 0.0354452 0)
(694.356 0.0620983 0)
(694.077 0.108779 0)
(693.591 0.190511 0)
(692.742 0.33358 0)
(691.264 0.583828 0)
(688.694 1.02085 0)
(684.238 1.78155 0)
(676.56 3.10001 0)
(663.472 5.3652 0)
(641.705 9.18186 0)
(607.33 15.3365 0)
(557.718 24.4582 0)
(494.982 36.3056 0)
(427.743 49.2474 0)
(367.813 60.895 0)
(323.584 69.5555 0)
(296.293 75.01 0)
(281.865 78.0904 0)
(274.975 79.8332 0)
(271.619 80.9883 0)
(269.61 81.9558 0)
(268.017 82.9022 0)
(266.54 83.8809 0)
(265.117 84.9013 0)
(263.752 85.9608 0)
(262.459 87.0546 0)
(261.245 88.1787 0)
(260.11 89.3296 0)
(259.06 90.5041 0)
(258.063 91.6991 0)
(694.73 1.97312e-07 0)
(694.73 6.42891e-07 0)
(694.73 1.51414e-06 0)
(694.73 3.1107e-06 0)
(694.73 5.98253e-06 0)
(694.73 1.10896e-05 0)
(694.73 2.01129e-05 0)
(694.73 3.59988e-05 0)
(694.73 6.39045e-05 0)
(694.729 0.000112869 0)
(694.729 0.000198713 0)
(694.728 0.000349161 0)
(694.726 0.000612734 0)
(694.724 0.00107446 0)
(694.719 0.00188313 0)
(694.711 0.00329946 0)
(694.696 0.00577958 0)
(694.671 0.0101227 0)
(694.626 0.017727 0)
(694.549 0.0310415 0)
(694.414 0.054349 0)
(694.179 0.0951456 0)
(693.769 0.16653 0)
(693.055 0.291415 0)
(691.81 0.509763 0)
(689.644 0.891036 0)
(685.889 1.55497 0)
(679.41 2.70673 0)
(668.323 4.6903 0)
(649.72 8.05571 0)
(619.785 13.5705 0)
(575.192 21.9918 0)
(516.233 33.4324 0)
(449.542 46.6518 0)
(386.515 59.295 0)
(337.181 69.2575 0)
(305.005 75.8372 0)
(287.188 79.6445 0)
(278.47 81.7519 0)
(274.343 83.0421 0)
(272.105 84.0304 0)
(270.503 84.9504 0)
(269.083 85.8853 0)
(267.728 86.8559 0)
(266.427 87.8626 0)
(265.189 88.9013 0)
(264.023 89.968 0)
(262.931 91.0594 0)
(261.919 92.1726 0)
(260.955 93.3046 0)
(694.73 1.72939e-07 0)
(694.73 5.6345e-07 0)
(694.73 1.32689e-06 0)
(694.73 2.72554e-06 0)
(694.73 5.24047e-06 0)
(694.73 9.71098e-06 0)
(694.73 1.76058e-05 0)
(694.73 3.14976e-05 0)
(694.73 5.58869e-05 0)
(694.729 9.86567e-05 0)
(694.729 0.000173595 0)
(694.728 0.000304851 0)
(694.727 0.000534658 0)
(694.725 0.000936983 0)
(694.721 0.00164117 0)
(694.714 0.00287373 0)
(694.701 0.00503068 0)
(694.68 0.00880546 0)
(694.643 0.0154104 0)
(694.578 0.0269678 0)
(694.465 0.0471868 0)
(694.268 0.0825561 0)
(693.924 0.144407 0)
(693.326 0.252551 0)
(692.284 0.441541 0)
(690.471 0.771495 0)
(687.325 1.34622 0)
(681.891 2.34396 0)
(672.567 4.06545 0)
(656.808 7.00196 0)
(631.048 11.8776 0)
(591.571 19.5196 0)
(537.133 30.3439 0)
(472.194 43.5592 0)
(407.064 57.0089 0)
(352.871 68.2811 0)
(315.39 76.1372 0)
(293.532 80.8488 0)
(282.45 83.4522 0)
(277.228 84.9522 0)
(274.604 85.9969 0)
(272.928 86.9057 0)
(271.543 87.804 0)
(270.248 88.7293 0)
(269.005 89.6874 0)
(267.819 90.6755 0)
(266.699 91.6897 0)
(265.647 92.7268 0)
(264.67 93.7841 0)
(263.737 94.8589 0)
(694.73 1.50424e-07 0)
(694.73 4.90071e-07 0)
(694.73 1.15396e-06 0)
(694.73 2.36991e-06 0)
(694.73 4.55557e-06 0)
(694.73 8.43912e-06 0)
(694.73 1.52941e-05 0)
(694.73 2.735e-05 0)
(694.73 4.85043e-05 0)
(694.73 8.55799e-05 0)
(694.729 0.000150503 0)
(694.729 0.000264147 0)
(694.727 0.000462999 0)
(694.725 0.000810913 0)
(694.722 0.00141949 0)
(694.716 0.00248401 0)
(694.706 0.00434575 0)
(694.688 0.00760183 0)
(694.657 0.0132955 0)
(694.603 0.0232521 0)
(694.509 0.0406597 0)
(694.345 0.0710928 0)
(694.058 0.12428 0)
(693.56 0.217222 0)
(692.692 0.37956 0)
(691.182 0.662907 0)
(688.563 1.15654 0)
(684.033 2.01401 0)
(676.243 3.49565 0)
(663.005 6.03342 0)
(641.082 10.2912 0)
(606.644 17.1142 0)
(557.273 27.1506 0)
(495.263 40.0693 0)
(429.246 54.0657 0)
(370.747 66.5778 0)
(327.716 75.8292 0)
(301.173 81.6344 0)
(287.106 84.893 0)
(280.379 86.701 0)
(277.156 87.8514 0)
(275.314 88.7707 0)
(273.929 89.6419 0)
(272.682 90.527 0)
(271.493 91.4405 0)
(270.356 92.3819 0)
(269.279 93.348 0)
(268.265 94.3355 0)
(267.321 95.3418 0)
(266.417 96.3644 0)
(694.73 1.29888e-07 0)
(694.73 4.23145e-07 0)
(694.73 9.96271e-07 0)
(694.73 2.0457e-06 0)
(694.73 3.93138e-06 0)
(694.73 7.28055e-06 0)
(694.73 1.31895e-05 0)
(694.73 2.35762e-05 0)
(694.73 4.17916e-05 0)
(694.73 7.36983e-05 0)
(694.729 0.000129537 0)
(694.729 0.000227222 0)
(694.728 0.000398044 0)
(694.726 0.000696734 0)
(694.723 0.00121888 0)
(694.719 0.00213166 0)
(694.71 0.00372701 0)
(694.695 0.00651544 0)
(694.67 0.0113883 0)
(694.625 0.0199042 0)
(694.546 0.0347838 0)
(694.41 0.0607815 0)
(694.173 0.106191 0)
(693.76 0.185495 0)
(693.041 0.32394 0)
(691.791 0.565504 0)
(689.622 0.986371 0)
(685.867 1.71778 0)
(679.4 2.98306 0)
(668.363 5.15695 0)
(649.896 8.83376 0)
(620.271 14.8342 0)
(576.281 23.9597 0)
(518.256 36.3038 0)
(452.717 50.5305 0)
(390.794 64.1227 0)
(342.226 74.833 0)
(310.415 81.9191 0)
(292.675 86.0185 0)
(283.936 88.2604 0)
(279.829 89.5842 0)
(277.691 90.5452 0)
(276.255 91.4026 0)
(275.037 92.2536 0)
(273.896 93.1265 0)
(272.806 94.025 0)
(271.77 94.9468 0)
(270.792 95.8888 0)
(269.879 96.8484 0)
(269.003 97.8234 0)
(694.73 1.11383e-07 0)
(694.73 3.62843e-07 0)
(694.73 8.54203e-07 0)
(694.73 1.75368e-06 0)
(694.73 3.36937e-06 0)
(694.73 6.23781e-06 0)
(694.73 1.12962e-05 0)
(694.73 2.01834e-05 0)
(694.73 3.57606e-05 0)
(694.73 6.30308e-05 0)
(694.729 0.000110727 0)
(694.729 0.000194119 0)
(694.728 0.000339859 0)
(694.727 0.000594536 0)
(694.725 0.00103947 0)
(694.721 0.00181679 0)
(694.714 0.00317455 0)
(694.701 0.00554623 0)
(694.68 0.00968824 0)
(694.643 0.0169223 0)
(694.578 0.0295544 0)
(694.466 0.0516121 0)
(694.27 0.0901174 0)
(693.93 0.157326 0)
(693.338 0.274588 0)
(692.309 0.479108 0)
(690.522 0.835408 0)
(687.427 1.45482 0)
(682.09 2.52742 0)
(672.952 4.37454 0)
(657.54 7.51761 0)
(632.382 12.7225 0)
(593.857 20.8673 0)
(540.664 32.3972 0)
(477.016 46.5058 0)
(412.862 60.9254 0)
(359.095 73.0783 0)
(321.574 81.6104 0)
(299.44 86.7567 0)
(288.082 89.5896 0)
(282.719 91.178 0)
(280.101 92.2248 0)
(278.538 93.0873 0)
(277.323 93.9127 0)
(276.221 94.7494 0)
(275.174 95.6084 0)
(274.176 96.4894 0)
(273.232 97.3896 0)
(272.35 98.3064 0)
(271.5 99.2377 0)
(694.73 9.48814e-08 0)
(694.73 3.09072e-07 0)
(694.73 7.2754e-07 0)
(694.73 1.49339e-06 0)
(694.73 2.86858e-06 0)
(694.73 5.30906e-06 0)
(694.73 9.6108e-06 0)
(694.73 1.71647e-05 0)
(694.73 3.0398e-05 0)
(694.73 5.35518e-05 0)
(694.73 9.40256e-05 0)
(694.729 0.000164747 0)
(694.729 0.000288271 0)
(694.727 0.000503995 0)
(694.726 0.000880647 0)
(694.722 0.00153828 0)
(694.716 0.00268626 0)
(694.706 0.00469029 0)
(694.689 0.00818806 0)
(694.658 0.0142932 0)
(694.605 0.0249474 0)
(694.513 0.0435402 0)
(694.353 0.0759783 0)
(694.074 0.132565 0)
(693.588 0.23124 0)
(692.745 0.403265 0)
(691.281 0.702899 0)
(688.744 1.22392 0)
(684.364 2.12686 0)
(676.847 3.68453 0)
(664.091 6.34688 0)
(642.979 10.8061 0)
(609.784 17.9516 0)
(562.008 28.4848 0)
(501.592 42.1264 0)
(436.644 57.0384 0)
(378.392 70.517 0)
(334.953 80.612 0)
(307.724 87.0197 0)
(293.049 90.6324 0)
(285.957 92.6054 0)
(282.607 93.7998 0)
(280.805 94.6952 0)
(279.551 95.5064 0)
(278.473 96.3124 0)
(277.464 97.1355 0)
(276.504 97.9788 0)
(275.593 98.8405 0)
(274.739 99.718 0)
(273.915 100.609 0)
(694.73 8.03167e-08 0)
(694.73 2.61615e-07 0)
(694.73 6.15766e-07 0)
(694.73 1.26374e-06 0)
(694.73 2.42689e-06 0)
(694.73 4.49023e-06 0)
(694.73 8.12553e-06 0)
(694.73 1.4506e-05 0)
(694.73 2.56777e-05 0)
(694.73 4.52135e-05 0)
(694.73 7.93435e-05 0)
(694.729 0.000138946 0)
(694.729 0.000242986 0)
(694.728 0.000424577 0)
(694.726 0.000741441 0)
(694.724 0.00129435 0)
(694.719 0.00225894 0)
(694.711 0.00394179 0)
(694.696 0.0068772 0)
(694.671 0.0119976 0)
(694.628 0.0209279 0)
(694.553 0.036503 0)
(694.422 0.0636606 0)
(694.194 0.111009 0)
(693.798 0.19353 0)
(693.11 0.337319 0)
(691.917 0.587695 0)
(689.848 1.0231 0)
(686.273 1.77817 0)
(680.126 3.08253 0)
(669.648 5.31916 0)
(652.117 9.09768 0)
(623.944 15.2693 0)
(581.875 24.6909 0)
(525.845 37.5495 0)
(461.683 52.5612 0)
(400.043 67.1366 0)
(350.801 78.8332 0)
(317.877 86.7054 0)
(299.12 91.3152 0)
(289.716 93.8262 0)
(285.296 95.2531 0)
(283.095 96.2213 0)
(281.737 97.0355 0)
(280.661 97.8182 0)
(279.684 98.6093 0)
(278.758 99.4179 0)
(277.878 100.244 0)
(277.051 101.085 0)
(276.253 101.94 0)
(694.73 6.75741e-08 0)
(694.73 2.20099e-07 0)
(694.73 5.17997e-07 0)
(694.73 1.06291e-06 0)
(694.73 2.04074e-06 0)
(694.73 3.77465e-06 0)
(694.73 6.82817e-06 0)
(694.73 1.21849e-05 0)
(694.73 2.15591e-05 0)
(694.73 3.79428e-05 0)
(694.73 6.65497e-05 0)
(694.729 0.000116478 0)
(694.729 0.000203581 0)
(694.728 0.00035552 0)
(694.727 0.000620486 0)
(694.725 0.00108256 0)
(694.721 0.00188819 0)
(694.714 0.00329288 0)
(694.703 0.00574162 0)
(694.682 0.0100105 0)
(694.647 0.0174512 0)