/*--------------------------------*- C++ -*----------------------------------*\
| =========                 |                                                 |
| \\      /  F ield         | OpenFOAM: The Open Source CFD Toolbox           |
|  \\    /   O peration     | Version:  2412                                  |
|   \\  /    A nd           | Website:  www.openfoam.com                      |
|    \\/     M anipulation  |                                                 |
\*---------------------------------------------------------------------------*/
FoamFile
{
    version     2.0;
    format      ascii;
    arch        "LSB;label=32;scalar=64";
    class       surfaceScalarField;
    location    "3";
    object      phi;
}
// * * * * * * * * * * * * * * * * * * * * * * * * * * * * * * * * * * * * * //

dimensions      [1 0 -1 0 0 0 0];

oriented        oriented;

internalField   nonuniform List<scalar> 
10325
(
0.00840003
7.34066e-11
0.00840003
5.69072e-10
0.00840003
1.74665e-09
0.00840002
5.29613e-09
0.0084
1.24156e-08
0.00839995
3.45209e-08
0.00839986
7.23301e-08
0.0083995
2.26497e-07
0.00839898
4.31471e-07
0.00839662
1.57564e-06
0.00839269
3.24293e-06
0.00837674
1.22772e-05
0.00833857
3.33916e-05
0.00817971
0.000142533
0.00743952
0.000675113
0.00671971
0.000747829
0.00605847
0.000671003
0.00538737
0.00067445
0.00469462
0.00069678
0.00396409
0.000736868
0.00320002
0.000771193
0.00241862
0.00079133
0.00162761
0.00080176
0.000825579
0.00081284
0.000836692
0.00840003
1.4412e-10
0.00840003
1.11942e-09
0.00840003
3.43273e-09
0.00840002
1.04161e-08
0.0084
2.43474e-08
0.00839995
6.82637e-08
0.00839986
1.39757e-07
0.00839951
4.57868e-07
0.00839906
8.18057e-07
0.00839655
3.26834e-06
0.00839289
6.4191e-06
0.00837638
2.50582e-05
0.00833709
6.77292e-05
0.00817965
0.000283719
0.00746314
0.0013256
0.00672861
0.00151087
0.00608516
0.00132472
0.00543116
0.00133215
0.00475111
0.00138104
0.00402201
0.00147241
0.00325886
0.0015416
0.00247196
0.00158856
0.00166061
0.00162422
0.000828263
0.0016563
0.00167643
0.00840003
2.10998e-10
0.00840003
1.64006e-09
0.00840003
5.02067e-09
0.00840002
1.52548e-08
0.0084
3.56859e-08
0.00839995
1.00032e-07
0.00839987
2.05811e-07
0.00839953
6.70747e-07
0.0083991
1.19475e-06
0.00839676
4.78745e-06
0.00839335
9.34463e-06
0.00837811
3.65134e-05
0.00834216
9.85434e-05
0.0082035
0.000406714
0.00758617
0.00187499
0.00684773
0.00227871
0.00620892
0.00197483
0.00556685
0.0019787
0.00489751
0.00205532
0.00417446
0.00220237
0.00340667
0.00231732
0.00260277
0.00240279
0.00176093
0.00247749
0.000884615
0.0025439
0.00257265
0.00840003
2.65465e-10
0.00840003
2.06561e-09
0.00840003
6.31008e-09
0.00840002
1.92012e-08
0.00840001
4.49954e-08
0.00839996
1.25683e-07
0.00839989
2.62011e-07
0.00839961
8.35478e-07
0.00839923
1.50732e-06
0.00839732
5.90149e-06
0.0083946
1.15594e-05
0.0083826
4.4732e-05
0.00835533
0.000120589
0.00825658
0.000490527
0.007835
0.00222773
0.00710586
0.00303862
0.00645594
0.00263811
0.0058138
0.00262535
0.00515193
0.0027213
0.00442873
0.00292969
0.00365368
0.00309844
0.00282378
0.00324345
0.00192963
0.00338293
0.000976847
0.00350744
0.00356091
0.00840003
2.93894e-10
0.00840003
2.28303e-09
0.00840003
6.97431e-09
0.00840002
2.11922e-08
0.00840002
4.97204e-08
0.00839999
1.3797e-07
0.00839994
2.90101e-07
0.00839975
9.14991e-07
0.00839961
1.59257e-06
0.00839827
6.49695e-06
0.00839709
1.22969e-05
0.00839019
4.80227e-05
0.00837586
0.000130282
0.00832929
0.000519933
0.00825036
0.00224487
0.00756572
0.00375542
0.00686027
0.00335837
0.0061979
0.00329364
0.00553357
0.00338953
0.00480947
0.00366067
0.00400794
0.0039104
0.00312879
0.00413484
0.00216559
0.00435735
0.00111478
0.00456929
0.00468673
0.00840003
2.89659e-10
0.00840003
2.25542e-09
0.00840003
6.92523e-09
0.00840003
2.09597e-08
0.00840002
4.95436e-08
0.00840001
1.33428e-07
0.00839999
2.96613e-07
0.0084
8.2308e-07
0.0083998
1.68966e-06
0.00840012
5.60105e-06
0.00840069
1.09937e-05
0.00840457
4.14965e-05
0.00841407
0.000112589
0.00853161
0.000421275
0.00903622
0.00165392
0.00833227
0.00448637
0.0074146
0.00429202
0.00669929
0.00401623
0.00600427
0.0040912
0.00526235
0.0044108
0.00442867
0.00475377
0.00349968
0.00507478
0.00245644
0.00541132
0.00128388
0.00575216
0.00598023
0.00840003
2.83443e-10
0.00840003
2.20004e-09
0.00840003
6.80811e-09
0.00840003
2.04538e-08
0.00840003
4.83507e-08
0.00840002
1.28284e-07
0.00840003
2.84911e-07
0.00840002
7.71895e-07
0.00840007
1.57282e-06
0.0084002
5.10754e-06
0.00840127
9.50707e-06
0.00840582
3.54088e-05
0.00841632
9.75747e-05
0.00852022
0.000312963
0.00879617
0.00133501
0.0084555
0.00481694
0.00764371
0.00510091
0.00703052
0.00463191
0.00637399
0.00475171
0.00566186
0.00512861
0.00483325
0.00559024
0.0038857
0.00603148
0.00279581
0.00651096
0.00151616
0.00703897
0.00750361
0.00840003
3.20731e-10
0.00840003
2.48336e-09
0.00840003
7.68476e-09
0.00840002
2.30187e-08
0.00840002
5.44243e-08
0.0084
1.43323e-07
0.00839995
3.19973e-07
0.00839985
8.39158e-07
0.0083996
1.77963e-06
0.00839923
5.21224e-06
0.00839833
1.02743e-05
0.00839748
3.50086e-05
0.00840331
8.90421e-05
0.00840221
0.000310856
0.00857143
0.00113902
0.00828393
0.00507762
0.00792036
0.00545616
0.00729163
0.0052653
0.00662309
0.00542439
0.00598294
0.00577199
0.00521912
0.00635855
0.00430325
0.00695366
0.00319453
0.00762788
0.00182836
0.0084116
0.00933657
0.00840003
3.36856e-10
0.00840003
3.18157e-09
0.00840003
9.59161e-09
0.00840002
2.92387e-08
0.0084
6.86245e-08
0.00839996
1.84302e-07
0.00839987
4.0319e-07
0.0083996
1.07827e-06
0.00839912
2.22742e-06
0.00839796
6.18096e-06
0.00839628
1.18313e-05
0.00839138
3.88345e-05
0.00839528
8.37955e-05
0.00837527
0.000326918
0.00846947
0.00103189
0.00829357
0.00522723
0.00794351
0.00580741
0.00743887
0.00577435
0.006879
0.00598752
0.00627914
0.00637496
0.00560594
0.00703441
0.00477342
0.00779229
0.0037703
0.00863599
0.002358
0.00982801
0.0116974
0.00840003
1.50283e-10
0.00840003
4.71734e-09
0.00840003
7.17692e-09
0.00840002
4.08151e-08
0.00840003
5.1563e-08
0.00839995
2.63017e-07
0.00840008
2.75356e-07
0.00839949
1.63641e-06
0.00840046
1.23747e-06
0.00839651
9.97675e-06
0.00840311
5.13787e-06
0.00837538
6.56299e-05
0.00842024
3.82658e-05
0.00828736
0.000456159
0.00846035
0.0008504
0.00837882
0.00528456
0.00800405
0.00618512
0.00758857
0.0061939
0.00715411
0.0064245
0.00662458
0.00690642
0.00607585
0.00758567
0.0054479
0.00842479
0.00454432
0.00954537
0.00320228
0.0111751
0.0149003
0.00840003
5.31578e-10
0.00840003
7.96726e-10
0.00840003
7.8676e-09
0.00840006
8.75551e-09
0.00840006
5.62156e-08
0.00840027
5.22534e-08
0.00840016
3.7852e-07
0.00840153
2.61813e-07
0.00839999
2.70992e-06
0.00840847
1.43994e-06
0.0083939
1.92792e-05
0.00844812
1.04576e-05
0.00833931
0.000145091
0.00862439
0.000169611
0.00830787
0.00115975
0.00847764
0.00509174
0.00813368
0.00653345
0.0077463
0.00658524
0.00739753
0.00677566
0.00702748
0.00727861
0.00664559
0.00796933
0.00621788
0.00885509
0.00582441
0.00994241
0.00583689
0.0111664
0.0119051
0.00883109
0.00840003
2.88188e-10
0.00840003
1.53723e-09
0.00840003
5.30356e-09
0.00840003
1.46445e-08
0.00840004
3.73574e-08
0.0084
9.10092e-08
0.00840015
2.28855e-07
0.00839985
5.44226e-07
0.00840119
1.38443e-06
0.00839869
3.89682e-06
0.00840913
8.92429e-06
0.00838986
2.99972e-05
0.00846099
7.36918e-05
0.0083188
0.000309228
0.00862067
0.000853026
0.0089416
0.0047495
0.008491
0.00698888
0.00802372
0.00705572
0.00768927
0.00711136
0.00740872
0.00756157
0.00714682
0.0082341
0.00693648
0.00906873
0.00689799
0.00998464
0.00736453
0.0107035
0.0107769
0.00849228
0.00840003
2.69532e-10
0.00840003
2.09772e-09
0.00840003
6.40841e-09
0.00840002
1.94573e-08
0.00840001
4.60218e-08
0.00839998
1.23919e-07
0.00839993
2.79019e-07
0.00839971
7.42119e-07
0.00839945
1.6399e-06
0.00839872
4.53784e-06
0.00839785
9.76134e-06
0.00839581
3.14898e-05
0.00840282
6.63659e-05
0.0084371
0.000272837
0.00854226
0.000744323
0.0096101
0.00366257
0.00905673
0.00754786
0.00844757
0.00766825
0.00808119
0.00747939
0.00783966
0.00780458
0.00767808
0.00839722
0.00764284
0.00910675
0.00783628
0.00979331
0.00838093
0.0101607
0.0100282
0.00913
0.00840003
2.75833e-10
0.00840003
2.1461e-09
0.00840003
6.5639e-09
0.00840003
1.98864e-08
0.00840003
4.70698e-08
0.00840002
1.26231e-07
0.00840002
2.84668e-07
0.0084
7.47941e-07
0.00839995
1.67462e-06
0.00840006
4.3612e-06
0.00839957
1.02056e-05
0.00840536
2.53322e-05
0.00840331
6.80513e-05
0.00848105
0.000193372
0.00865695
0.000568571
0.00995068
0.0023569
0.00962197
0.00787161
0.00918023
0.00810964
0.00860888
0.00805328
0.00831485
0.00810149
0.00821215
0.00850264
0.00828974
0.00903016
0.00854135
0.00954381
0.00898938
0.00971392
0.00945073
0.00956745
0.00840003
2.49673e-10
0.00840003
1.93977e-09
0.00840003
5.93791e-09
0.00840003
1.79497e-08
0.00840004
4.25784e-08
0.00840005
1.13477e-07
0.00840007
2.56783e-07
0.00840015
6.60937e-07
0.00840029
1.52622e-06
0.00840091
3.68771e-06
0.00840197
9.08603e-06
0.00840555
2.1516e-05
0.00841862
5.44853e-05
0.00845519
0.000155668
0.0085358
0.000486144
0.00907719
0.00181056
0.00969953
0.00723452
0.00943729
0.00836997
0.00902017
0.00847042
0.00877114
0.00835273
0.00869417
0.00858209
0.00880056
0.00892574
0.0090784
0.00926692
0.00944911
0.0093447
0.00901862
0.00988217
0.00840003
1.94145e-10
0.00840003
1.50256e-09
0.00840003
4.66701e-09
0.00840004
1.39704e-08
0.00840004
3.31459e-08
0.00840007
8.71147e-08
0.00840013
1.9535e-07
0.00840028
5.0912e-07
0.00840072
1.08197e-06
0.00840125
3.11853e-06
0.00840438
5.9492e-06
0.00840531
2.03434e-05
0.00842025
3.95191e-05
0.00843077
0.000144115
0.00853855
0.000377324
0.00879544
0.00155038
0.00967489
0.00634262
0.00957689
0.00846854
0.00938383
0.00866421
0.00916943
0.00856883
0.00910403
0.0086493
0.0091847
0.0088471
0.00944184
0.00901107
0.0097773
0.00900985
0.00868709
0.0101091
0.00840003
1.71628e-10
0.00840003
1.32952e-09
0.00840003
4.09009e-09
0.00840003
1.23043e-08
0.00840004
2.91143e-08
0.00840005
7.71212e-08
0.00840007
1.72897e-07
0.00840012
4.50186e-07
0.00840021
9.85488e-07
0.00840062
2.68542e-06
0.00840107
5.48155e-06
0.00840363
1.75917e-05
0.00840875
3.43582e-05
0.00842568
0.00012628
0.00847613
0.000326105
0.00872395
0.00129881
0.0102169
0.00483773
0.0100229
0.00866312
0.00979632
0.00889168
0.00956169
0.00880504
0.00952421
0.00868848
0.00958711
0.00878502
0.00975524
0.00884443
0.0100125
0.00875372
0.00842601
0.0102741
0.00840003
1.40657e-10
0.00840003
1.13957e-09
0.00840003
3.53406e-09
0.00840003
1.05241e-08
0.00840004
2.51935e-08
0.00840005
6.58771e-08
0.00840007
1.49982e-07
0.00840013
3.82655e-07
0.00840026
8.58978e-07
0.00840071
2.21217e-06
0.00840132
4.85804e-06
0.00840541
1.33681e-05
0.00841149
2.82515e-05
0.0084494
8.77055e-05
0.00854808
0.000226838
0.00906979
0.000776689
0.0112612
0.00263952
0.0109118
0.00900857
0.010567
0.00923759
0.0101507
0.0092225
0.00994699
0.00889376
0.00996379
0.00876937
0.0100803
0.00872726
0.0102498
0.00858511
0.0082511
0.0104254
0.00840003
5.64353e-11
0.00840003
1.17227e-09
0.00840003
2.24633e-09
0.00840003
1.0272e-08
0.00840004
1.65302e-08
0.00840004
6.38914e-08
0.00840009
9.91572e-08
0.0084001
3.73084e-07
0.0084004
5.58906e-07
0.00840037
2.21774e-06
0.00840235
2.87012e-06
0.00840151
1.41106e-05
0.00841602
1.37041e-05
0.00840841
9.47878e-05
0.00853051
0.000104499
0.00860081
0.000704646
0.00950337
0.00173284
0.011027
0.00747412
0.0109205
0.00934381
0.0106568
0.00948668
0.0103624
0.0091901
0.0102812
0.00885236
0.010346
0.00866188
0.0104692
0.0084608
0.00813168
0.0105884
0.00840003
1.00486e-10
0.00840003
5.85747e-10
0.00840003
2.14551e-09
0.00840004
5.58222e-09
0.00840004
1.51262e-08
0.00840007
3.48206e-08
0.00840007
8.89916e-08
0.00840025
1.98906e-07
0.00840028
5.18482e-07
0.0084014
1.09457e-06
0.00840101
3.22765e-06
0.00840893
6.19855e-06
0.00840165
2.07273e-05
0.0084546
4.19091e-05
0.00841161
0.000146439
0.00873315
0.000382319
0.00891932
0.00154368
0.0109045
0.00547719
0.0111299
0.00911885
0.0110472
0.00957038
0.0107941
0.00944394
0.0106307
0.00901769
0.0105947
0.00869873
0.0106489
0.0084058
0.00805237
0.0107275
0.00840003
1.21719e-10
0.00840003
3.54674e-10
0.00840003
2.07163e-09
0.00840003
3.61947e-09
0.00840003
1.43016e-08
0.00840004
2.29291e-08
0.00840005
8.41878e-08
0.00840011
1.31544e-07
0.00840015
4.81852e-07
0.00840052
7.29847e-07
0.00840097
2.8128e-06
0.00840323
3.92522e-06
0.0084061
1.77667e-05
0.00842715
2.20091e-05
0.00844926
0.000122412
0.00863728
0.00020109
0.00926528
0.000902767
0.0116531
0.00308038
0.0117458
0.00902719
0.0116618
0.00965683
0.0113664
0.00974094
0.0110849
0.00930109
0.0109489
0.00883545
0.0108972
0.0084573
0.00805521
0.0108937
0.00840003
4.21556e-11
0.00840003
4.67925e-10
0.00840003
1.06281e-09
0.00840003
4.21844e-09
0.00840004
7.67592e-09
0.00840003
2.63302e-08
0.00840007
4.58748e-08
0.00840005
1.52871e-07
0.00840027
2.63211e-07
0.00840011
8.78315e-07
0.00840142
1.49809e-06
0.00840018
5.12564e-06
0.00840934
8.55815e-06
0.00839918
3.19224e-05
0.00846913
5.20344e-05
0.00844385
0.000224789
0.00886167
0.000486871
0.00998403
0.00195321
0.0117015
0.00730252
0.0117915
0.00956822
0.0116912
0.00984301
0.0113801
0.00961442
0.0112688
0.00894735
0.0111914
0.00853426
0.00811394
0.0111317
0.00840003
6.12922e-11
0.00840003
2.37319e-10
0.00840003
1.17647e-09
0.00840003
2.34138e-09
0.00840003
8.23766e-09
0.00840004
1.49061e-08
0.00840004
4.90161e-08
0.0084001
8.70902e-08
0.00840008
2.82714e-07
0.00840046
4.99667e-07
0.00840032
1.6341e-06
0.0084026
2.83707e-06
0.00840124
9.8349e-06
0.00841728
1.59365e-05
0.0084045
6.4325e-05
0.00852488
0.000104524
0.00851982
0.000490742
0.0092445
0.00122679
0.0118207
0.00471573
0.011998
0.00938875
0.0120014
0.0098412
0.0118463
0.0097713
0.0115213
0.00927329
0.0114206
0.00863469
0.00818147
0.0113521
0.00840003
2.22137e-11
0.00840003
2.57548e-10
0.00840003
5.88197e-10
0.00840003
2.31747e-09
0.00840003
4.26813e-09
0.00840004
1.4437e-08
0.00840006
2.5551e-08
0.00840006
8.355e-08
0.0084002
1.46533e-07
0.00840022
4.77405e-07
0.00840102
8.29903e-07
0.00840106
2.77576e-06
0.00840628
4.60646e-06
0.00840494
1.71517e-05
0.00844341
2.5819e-05
0.00843248
0.000114918
0.0087292
0.000193483
0.00905662
0.000897752
0.0112389
0.00252919
0.0124994
0.00812447
0.0124735
0.00986481
0.0122425
0.0100023
0.0118359
0.00968054
0.0116616
0.00880951
0.00830358
0.0115392
0.00840003
2.44111e-11
0.00840003
1.39837e-10
0.00840003
5.19682e-10
0.00840003
1.3333e-09
0.00840003
3.66593e-09
0.00840004
8.3605e-09
0.00840004
2.1633e-08
0.00840008
4.80446e-08
0.0084001
1.22739e-07
0.00840031
2.70248e-07
0.00840044
6.9672e-07
0.00840171
1.50422e-06
0.00840215
4.11727e-06
0.0084109
8.42064e-06
0.00841066
2.57669e-05
0.00847278
5.27613e-05
0.00848444
0.000180567
0.00893231
0.000448026
0.00960493
0.00185813
0.0120421
0.00567135
0.0124991
0.00940516
0.0126173
0.00988253
0.0124654
0.00983042
0.0120201
0.0092552
0.00855229
0.0117714
0.00840003
2.48032e-11
0.00840003
8.27819e-11
0.00840003
4.35305e-10
0.00840003
8.33474e-10
0.00840003
3.01118e-09
0.00840003
5.27827e-09
0.00840004
1.76872e-08
0.00840006
3.04362e-08
0.00840008
1.00374e-07
0.00840017
1.71497e-07
0.00840031
5.66384e-07
0.00840087
9.54517e-07
0.00840184
3.23134e-06
0.008405
5.20982e-06
0.00841089
1.94909e-05
0.00844002
2.86787e-05
0.00848742
0.000127772
0.00872366
0.00023189
0.00958823
0.000955604
0.0122185
0.00304457
0.0129557
0.00866691
0.0129914
0.00984653
0.012792
0.010029
0.0124438
0.00960185
0.00883604
0.0121593
0.00840003
8.72565e-12
0.00840003
8.87799e-11
0.00840003
2.14793e-10
0.00840003
8.02828e-10
0.00840003
1.54334e-09
0.00840003
4.98421e-09
0.00840004
9.16599e-09
0.00840004
2.86582e-08
0.00840009
5.21966e-08
0.0084001
1.62238e-07
0.00840037
2.94307e-07
0.0084004
9.17935e-07
0.00840197
1.65574e-06
0.00840191
5.25302e-06
0.00841193
9.39889e-06
0.00840908
3.13854e-05
0.00847962
5.67119e-05
0.00849888
0.000211021
0.00895961
0.000494858
0.0101889
0.00181374
0.012642
0.00620857
0.0129721
0.00951522
0.0131866
0.00981374
0.0129303
0.00985725
0.00920763
0.0125577
0.00840003
1.06512e-11
0.00840003
4.13542e-11
0.00840003
2.00617e-10
0.00840003
4.0924e-10
0.00840003
1.3983e-09
0.00840003
2.59124e-09
0.00840003
8.23957e-09
0.00840005
1.49916e-08
0.00840005
4.68655e-08
0.00840013
8.49774e-08
0.00840016
2.65e-07
0.00840059
4.79601e-07
0.00840073
1.50431e-06
0.00840327
2.69938e-06
0.00840382
8.75966e-06
0.00841999
1.51885e-05
0.00842185
5.43576e-05
0.00853891
9.38279e-05
0.00864521
0.000387089
0.00953725
0.000920471
0.0124746
0.0032584
0.0132776
0.00870966
0.0133581
0.00973328
0.0132315
0.00998393
0.00960243
0.012836
0.00840003
4.95994e-12
0.00840003
3.51844e-11
0.00840003
1.09668e-10
0.00840003
3.28012e-10
0.00840003
7.79061e-10
0.00840003
2.04272e-09
0.00840004
4.5968e-09
0.00840004
1.16893e-08
0.00840006
2.60031e-08
0.00840008
6.55797e-08
0.0084002
1.4548e-07
0.00840031
3.66363e-07
0.008401
8.11921e-07
0.0084016
2.07383e-06
0.00840585
4.49714e-06
0.00840853
1.23886e-05
0.0084375
2.53347e-05
0.00845073
7.99658e-05
0.00866815
0.000169287
0.00894599
0.00064093
0.0104461
0.00175408
0.0129735
0.00617466
0.0133039
0.00940295
0.0135203
0.00976876
0.00977206
0.0133516
0.00840003
2.08075e-12
0.00840003
2.86421e-11
0.00840003
6.54332e-11
0.00840003
2.5428e-10
0.00840003
4.74247e-10
0.00840003
1.56735e-09
0.00840003
2.81675e-09
0.00840004
8.9623e-09
0.00840005
1.60018e-08
0.00840006
5.04182e-08
0.00840012
8.98888e-08
0.0084002
2.82993e-07
0.0084005
5.02739e-07
0.00840097
1.59659e-06
0.00840267
2.78516e-06
0.00840572
9.27279e-06
0.00841584
1.51406e-05
0.00843828
5.71574e-05
0.00851391
9.33154e-05
0.00876241
0.000390902
0.00957599
0.000938824
0.0125516
0.00318787
0.0135312
0.00841953
0.0136351
0.0096646
0.00980643
0.0136008
0.00840003
2.45157e-12
0.00840003
1.4158e-11
0.00840003
5.22162e-11
0.00840003
1.34974e-10
0.00840003
3.67585e-10
0.00840003
8.42565e-10
0.00840003
2.15536e-09
0.00840004
4.81706e-09
0.00840004
1.21277e-08
0.00840006
2.69671e-08
0.00840008
6.75448e-08
0.00840022
1.50022e-07
0.00840034
3.75379e-07
0.0084011
8.3297e-07
0.00840175
2.11437e-06
0.00840642
4.58867e-06
0.00840891
1.25433e-05
0.00844033
2.56618e-05
0.00845284
8.02726e-05
0.00867457
0.000168612
0.0089785
0.000633349
0.0104599
0.00170181
0.0131295
0.00574132
0.0136255
0.00916734
0.00963147
0.0138004
0.00840003
2.16722e-12
0.00840003
7.96237e-12
0.00840003
3.88839e-11
0.00840003
7.93216e-11
0.00840003
2.68639e-10
0.00840003
4.99756e-10
0.00840003
1.56778e-09
0.00840003
2.86419e-09
0.00840004
8.81416e-09
0.00840005
1.60497e-08
0.00840007
4.91364e-08
0.00840013
8.93462e-08
0.00840022
2.73645e-07
0.00840056
4.95635e-07
0.00840113
1.53122e-06
0.00840298
2.72515e-06
0.00840666
8.79354e-06
0.00841749
1.47854e-05
0.00844429
5.31084e-05
0.00852213
9.04936e-05
0.00880328
0.000350733
0.00965196
0.000851575
0.0126229
0.00275834
0.0138018
0.00798508
0.00956428
0.013869
0.00840003
7.14073e-13
0.00840003
7.1632e-12
0.00840003
1.79103e-11
0.00840003
6.47585e-11
0.00840003
1.28413e-10
0.00840003
3.99184e-10
0.00840003
7.56728e-10
0.00840003
2.26827e-09
0.00840004
4.26161e-09
0.00840004
1.2645e-08
0.00840007
2.37238e-08
0.00840008
7.01676e-08
0.00840023
1.3151e-07
0.00840033
3.89334e-07
0.00840113
7.27496e-07
0.00840165
2.1838e-06
0.00840645
3.98723e-06
0.00840833
1.28071e-05
0.0084395
2.18925e-05
0.0084482
8.1312e-05
0.00865648
0.000142157
0.00891126
0.000595425
0.0100778
0.00158943
0.0131986
0.00485596
0.00883145
0.0139295
0.00840003
6.06532e-13
0.00840003
3.60463e-12
0.00840003
1.32227e-11
0.00840003
3.41845e-11
0.00840003
9.29436e-11
0.00840003
2.1261e-10
0.00840003
5.43324e-10
0.00840003
1.20948e-09
0.00840003
3.04442e-09
0.00840004
6.73188e-09
0.00840005
1.68777e-08
0.00840008
3.72363e-08
0.00840012
9.32809e-08
0.0084003
2.0546e-07
0.00840051
5.15416e-07
0.00840155
1.13627e-06
0.00840265
2.86681e-06
0.00840909
6.34284e-06
0.00841435
1.6503e-05
0.00845906
3.65133e-05
0.0084986
0.000102064
0.0088392
0.000253933
0.00961888
0.000808407
0.0121515
0.00231758
0.00701993
0.0139577
0.00840003
4.22108e-13
0.00840003
2.29411e-12
0.00840003
8.46199e-12
0.00840003
2.18637e-11
0.00840003
5.91836e-11
0.00840003
1.36007e-10
0.00840003
3.45245e-10
0.00840003
7.72787e-10
0.00840003
1.93177e-09
0.00840003
4.29708e-09
0.00840004
1.0698e-08
0.00840005
2.37592e-08
0.00840009
5.90701e-08
0.00840016
1.31079e-07
0.00840035
3.25862e-07
0.00840076
7.21928e-07
0.00840181
1.8022e-06
0.00840416
3.97359e-06
0.00841041
1.01863e-05
0.00842501
2.18316e-05
0.00846427
6.23452e-05
0.0085868
0.000131166
0.00893708
0.000456569
0.0100325
0.0012198
0.00404248
0.0129984
0.00840003
3.30683e-13
0.00840003
1.23678e-12
0.00840003
5.90644e-12
0.00840003
1.23341e-11
0.00840003
4.07415e-11
0.00840003
7.74502e-11
0.00840003
2.36583e-10
0.00840003
4.41348e-10
0.00840003
1.32147e-09
0.00840003
2.45745e-09
0.00840004
7.31375e-09
0.00840005
1.36025e-08
0.00840006
4.03954e-08
0.00840012
7.51237e-08
0.00840022
2.23183e-07
0.00840053
4.1423e-07
0.00840108
1.23673e-06
0.00840276
2.28315e-06
0.00840598
6.9237e-06
0.00841504
1.27051e-05
0.0084372
3.9943e-05
0.00849188
7.61183e-05
0.00869465
0.000252691
0.00928568
0.00062791
0.00202898
0.0112943
0.00840003
1.33589e-13
0.00840003
9.45146e-13
0.00840003
2.95968e-12
0.00840003
8.79698e-12
0.00840003
2.09026e-11
0.00840003
5.43504e-11
0.00840003
1.22013e-10
0.00840003
3.0741e-10
0.00840003
6.81156e-10
0.00840003
1.70182e-09
0.00840004
3.76e-09
0.00840004
9.36686e-09
0.00840006
2.06854e-08
0.00840008
5.14526e-08
0.00840019
1.13626e-07
0.00840032
2.82422e-07
0.00840093
6.23821e-07
0.00840164
1.55352e-06
0.00840513
3.42838e-06
0.00840907
8.66931e-06
0.0084299
1.90419e-05
0.00845454
5.09763e-05
0.00859298
0.000113899
0.00887637
0.00034258
0.000947955
0.00995517
0.00840003
5.74585e-14
0.00840003
6.55111e-13
0.00840003
1.62157e-12
0.00840003
5.84813e-12
0.00840003
1.16163e-11
0.00840003
3.57262e-11
0.00840003
6.79731e-11
0.00840003
2.01119e-10
0.00840003
3.79208e-10
0.00840003
1.10995e-09
0.00840003
2.08969e-09
0.00840004
6.09317e-09
0.00840005
1.14711e-08
0.00840006
3.33915e-08
0.00840011
6.28204e-08
0.00840021
1.82907e-07
0.00840049
3.43146e-07
0.00840103
1.003e-06
0.00840258
1.87053e-06
0.00840565
5.5473e-06
0.00841438
1.02353e-05
0.00843379
3.13001e-05
0.00848708
6.01992e-05
0.00863975
0.000188531
0.000465394
0.00912208
0.00840003
6.29722e-14
0.00840003
2.76525e-13
0.00840003
1.22293e-12
0.00840003
2.69734e-12
0.00840003
8.47097e-12
0.00840003
1.68059e-11
0.00840003
4.90355e-11
0.00840003
9.51223e-11
0.00840003
2.72264e-10
0.00840003
5.25706e-10
0.00840003
1.49594e-09
0.00840003
2.88684e-09
0.00840004
8.1953e-09
0.00840006
1.58174e-08
0.00840007
4.48569e-08
0.00840017
8.65515e-08
0.00840026
2.45587e-07
0.00840079
4.73385e-07
0.0084013
1.34883e-06
0.00840424
2.59457e-06
0.00840693
7.47798e-06
0.00842368
1.44651e-05
0.00844075
4.28078e-05
0.00854236
8.6423e-05
0.000272584
0.00873395
0.00840003
2.7574e-14
0.00840003
1.93989e-13
0.00840003
6.06386e-13
0.00840003
1.80194e-12
0.00840003
4.27458e-12
0.00840003
1.10958e-11
0.00840003
2.48476e-11
0.00840003
6.24363e-11
0.00840003
1.37912e-10
0.00840003
3.43527e-10
0.00840003
7.56279e-10
0.00840003
1.87841e-09
0.00840004
4.13239e-09
0.00840004
1.02489e-08
0.00840006
2.25455e-08
0.00840009
5.58552e-08
0.00840022
1.22877e-07
0.00840038
3.04238e-07
0.00840106
6.69542e-07
0.00840197
1.66046e-06
0.00840577
3.65221e-06
0.00841092
9.19938e-06
0.00843354
2.00777e-05
0.00846543
5.3916e-05
0.00011832
0.00861913
0.00840003
1.15433e-14
0.00840003
1.28183e-13
0.00840003
3.23874e-13
0.00840003
1.14579e-12
0.00840003
2.31465e-12
0.00840003
6.97922e-12
0.00840003
1.34857e-11
0.00840003
3.90909e-11
0.00840003
7.4806e-11
0.00840003
2.14437e-10
0.00840003
4.0964e-10
0.00840003
1.16963e-09
0.00840003
2.23461e-09
0.00840004
6.36772e-09
0.00840005
1.21691e-08
0.00840007
3.46409e-08
0.00840012
6.61639e-08
0.00840024
1.88439e-07
0.00840055
3.59045e-07
0.00840117
1.02648e-06
0.00840286
1.94548e-06
0.00840636
5.63125e-06
0.00841574
1.06159e-05
0.00843796
3.13554e-05
6.19143e-05
0.00849397
0.00840003
1.17647e-14
0.00840003
5.39087e-14
0.00840003
2.32399e-13
0.00840003
5.23157e-13
0.00840003
1.60741e-12
0.00840003
3.24439e-12
0.00840003
9.2666e-12
0.00840003
1.82637e-11
0.00840003
5.11644e-11
0.00840003
1.00313e-10
0.00840003
2.79367e-10
0.00840003
5.473e-10
0.00840003
1.52053e-09
0.00840004
2.97967e-09
0.00840004
8.2666e-09
0.00840006
1.62052e-08
0.00840008
4.49241e-08
0.00840018
8.80574e-08
0.00840029
2.44224e-07
0.00840083
4.78449e-07
0.00840143
1.3316e-06
0.00840444
2.60474e-06
0.00840765
7.32652e-06
0.00842448
1.44174e-05
4.14585e-05
0.00844452
0.00840003
4.17239e-15
0.00840003
3.9322e-14
0.00840003
1.03875e-13
0.00840003
3.55102e-13
0.00840003
7.37732e-13
0.00840003
2.16621e-12
0.00840003
4.28306e-12
0.00840003
1.21076e-11
0.00840003
2.36736e-11
0.00840003
6.61844e-11
0.00840003
1.29121e-10
0.00840003
3.59512e-10
0.00840003
7.01437e-10
0.00840003
1.94849e-09
0.00840004
3.80434e-09
0.00840004
1.05476e-08
0.00840007
2.06111e-08
0.0084001
5.7048e-08
0.00840023
1.11549e-07
0.00840039
3.08506e-07
0.00840112
6.03497e-07
0.00840203
1.67264e-06
0.00840607
3.26577e-06
0.00841117
9.21481e-06
1.77431e-05
0.00843477
0.00840003
3.08331e-15
0.00840003
1.80851e-14
0.00840003
6.61188e-14
0.00840003
1.71845e-13
0.00840003
4.62603e-13
0.00840003
1.05813e-12
0.00840003
2.66674e-12
0.00840003
5.92377e-12
0.00840003
1.46709e-11
0.00840003
3.23473e-11
0.00840003
7.96996e-11
0.00840003
1.7538e-10
0.00840003
4.31254e-10
0.00840003
9.48489e-10
0.00840003
2.32941e-09
0.00840004
5.12273e-09
0.00840005
1.25663e-08
0.00840008
2.76351e-08
0.00840012
6.77072e-08
0.00840028
1.4887e-07
0.00840051
3.64424e-07
0.00840138
8.00928e-07
0.00840265
1.96712e-06
0.00840753
4.30252e-06
1.08918e-05
0.0084142
0.00840003
2.21874e-15
0.00840003
8.84712e-15
0.00840003
3.99896e-14
0.00840003
8.76193e-14
0.00840003
2.75125e-13
0.00840003
5.446e-13
0.00840003
1.57816e-12
0.00840003
3.05245e-12
0.00840003
8.65319e-12
0.00840003
1.66507e-11
0.00840003
4.68911e-11
0.00840003
9.0141e-11
0.00840003
2.53211e-10
0.00840003
4.86793e-10
0.00840003
1.36557e-09
0.00840003
2.62603e-09
0.00840004
7.36008e-09
0.00840005
1.41544e-08
0.00840008
3.96603e-08
0.00840015
7.62074e-08
0.0084003
2.13793e-07
0.00840069
4.09744e-07
0.00840148
1.15475e-06
0.00840356
2.20111e-06
6.27707e-06
0.00840806
0.00840003
8.39877e-16
0.00840003
5.8207e-15
0.00840003
1.84456e-14
0.00840003
5.38898e-14
0.00840003
1.28805e-13
0.00840003
3.28798e-13
0.00840003
7.39956e-13
0.00840003
1.82621e-12
0.00840003
4.05122e-12
0.00840003
9.90274e-12
0.00840003
2.18817e-11
0.00840003
5.33132e-11
0.00840003
1.17671e-10
0.00840003
2.86242e-10
0.00840003
6.31552e-10
0.00840003
1.53453e-09
0.00840004
3.38511e-09
0.00840004
8.21669e-09
0.00840006
1.8121e-08
0.00840009
4.39498e-08
0.00840021
9.68769e-08
0.00840038
2.34914e-07
0.00840101
5.17535e-07
0.00840192
1.2578e-06
2.76682e-06
0.00840539
0.00840003
4.45932e-16
0.00840003
2.80166e-15
0.00840003
9.37499e-15
0.00840003
2.78295e-14
0.00840003
6.67487e-14
0.00840003
1.70929e-13
0.00840003
3.83093e-13
0.00840003
9.44757e-13
0.00840003
2.08256e-12
0.00840003
5.08129e-12
0.00840003
1.11452e-11
0.00840003
2.70886e-11
0.00840003
5.92904e-11
0.00840003
1.43789e-10
0.00840003
3.14275e-10
0.00840003
7.60733e-10
0.00840003
1.66031e-09
0.00840004
4.01129e-09
0.00840005
8.73874e-09
0.00840007
2.1073e-08
0.00840012
4.57912e-08
0.00840024
1.10262e-07
0.00840051
2.38708e-07
0.00840116
5.7493e-07
1.23725e-06
0.00840265
0.00840003
1.09532e-16
0.00840003
1.79538e-15
0.00840003
4.03098e-15
0.00840003
1.56826e-14
0.00840003
2.86362e-14
0.00840003
9.37801e-14
0.00840003
1.64011e-13
0.00840003
5.16473e-13
0.00840003
8.83793e-13
0.00840003
2.76849e-12
0.00840003
4.66786e-12
0.00840003
1.47158e-11
0.00840003
2.44549e-11
0.00840003
7.7925e-11
0.00840003
1.27444e-10
0.00840003
4.11474e-10
0.00840003
6.60929e-10
0.00840003
2.16706e-09
0.00840004
3.40933e-09
0.00840005
1.13875e-08
0.00840007
1.74717e-08
0.00840012
5.97653e-08
0.00840026
8.85925e-08
0.00840049
3.1419e-07
4.33109e-07
0.00840126
0.00840003
7.23976e-17
0.00840003
3.53911e-16
0.00840003
2.39465e-15
0.00840003
3.77983e-15
0.00840003
1.61322e-14
0.00840003
2.28776e-14
0.00840003
8.90648e-14
0.00840003
1.2222e-13
0.00840003
4.74045e-13
0.00840003
6.25612e-13
0.00840003
2.47675e-12
0.00840003
3.12728e-12
0.00840003
1.28217e-11
0.00840003
1.5354e-11
0.00840003
6.58117e-11
0.00840003
7.38394e-11
0.00840003
3.34427e-10
0.00840003
3.4546e-10
0.00840003
1.67786e-09
0.00840004
1.5521e-09
0.00840005
8.28491e-09
0.0084001
6.53518e-09
0.00840014
4.0375e-08
0.00840041
2.44339e-08
2.06062e-07
0.00840055
0.00840003
0.00840003
0.00840003
0.00840003
0.00840003
0.00840003
0.00840003
0.00840003
0.00840003
0.00840003
0.00840003
0.00840003
0.00840003
0.00840003
0.00840003
0.00840003
0.00840003
0.00840003
0.00840003
0.00840003
0.00840004
0.00840004
0.00840008
0.00840007
0.00840023
0.00468112
0.00414288
0.00304453
0.00163113
0.00234928
0.000691182
0.00206997
0.000276223
0.0020402
2.6876e-05
0.00218879
-0.00015114
0.00238143
-0.000194453
0.00249234
-0.000112657
0.00252904
-3.8391e-05
0.00252092
6.55418e-06
0.00249578
2.37468e-05
0.00248239
1.21059e-05
0.00247985
1.35223e-06
0.00248729
-8.46706e-06
0.00249671
-1.02826e-05
0.00250289
-7.06124e-06
0.0025046
-2.52432e-06
0.00250313
6.67335e-07
0.00250055
1.66851e-06
0.00249738
1.98579e-06
0.00249271
2.80978e-06
0.00248397
5.33592e-06
0.00246564
1.14807e-05
0.00242628
2.51722e-05
0.00234002
5.63936e-05
0.00214919
0.000129672
0.00167372
0.000323714
0.000661628
0.000798227
-0.000193963
0.000863314
-0.000872579
0.000667879
-0.00138588
0.000521693
-0.00177816
0.000402191
-0.00207255
0.000285062
-0.00224467
0.000170606
-0.00230303
5.48862e-05
-0.00229182
-2.06415e-05
-0.0022333
-7.25535e-05
-0.00211421
-0.000137201
-0.00190175
-0.000232818
-0.00159538
-0.000326812
-0.00123245
-0.000383216
-0.000846861
-0.0004048
-0.000455585
-0.000409317
-5.5497e-05
-0.000416554
0.000318838
-0.000389749
0.000655829
-0.000350007
0.000966194
-0.00032047
0.00125234
-0.000294028
0.00151655
-0.000270331
0.00175597
-0.000245105
0.00197678
-0.000226198
0.00218735
-0.000215743
0.00238803
-0.000206254
0.00257448
-0.000192813
0.00274766
-0.000180209
0.00290858
-0.000168419
0.00305873
-0.000158325
0.00319911