/*--------------------------------*- C++ -*----------------------------------*\
| =========                 |                                                 |
| \\      /  F ield         | OpenFOAM: The Open Source CFD Toolbox           |
|  \\    /   O peration     | Version:  2412                                  |
|   \\  /    A nd           | Website:  www.openfoam.com                      |
|    \\/     M anipulation  |                                                 |
\*---------------------------------------------------------------------------*/
FoamFile
{
    version     2.0;
    format      ascii;
    arch        "LSB;label=32;scalar=64";
    class       volVectorField;
    location    "3";
    object      U;
}
// * * * * * * * * * * * * * * * * * * * * * * * * * * * * * * * * * * * * * //

dimensions      [0 1 -1 0 0 0 0];

internalField   nonuniform List<vector> 
5250
(
(3 1.09273e-08 0)
(2.99999 8.48044e-08 0)
(2.99996 2.60675e-07 0)
(2.99991 7.90541e-07 0)
(2.99977 1.85452e-06 0)
(2.99949 5.15226e-06 0)
(2.9986 1.07923e-05 0)
(2.99711 3.36969e-05 0)
(2.9912 6.37822e-05 0)
(2.982 0.000229136 0)
(2.9438 0.000457195 0)
(2.85962 0.00159289 0)
(2.60732 0.00377871 0)
(1.79478 0.0123514 0)
(0.854081 0.0311938 0)
(0.415401 0.0276137 0)
(0.512785 0.0265176 0)
(0.535411 0.0277717 0)
(0.474609 0.0292285 0)
(0.380687 0.0309669 0)
(0.299118 0.0326342 0)
(0.233796 0.033976 0)
(0.169222 0.0350305 0)
(0.0987175 0.0364533 0)
(0.0429177 0.0394303 0)
(3 3.23775e-08 0)
(2.99999 2.51553e-07 0)
(2.99996 7.72587e-07 0)
(2.99991 2.34376e-06 0)
(2.99977 5.48623e-06 0)
(2.9995 1.53227e-05 0)
(2.99862 3.16242e-05 0)
(2.99715 0.000101623 0)
(2.99136 0.000185181 0)
(2.98233 0.00070562 0)
(2.94488 0.00137699 0)
(2.86258 0.00492212 0)
(2.6154 0.0117353 0)
(1.81805 0.0383683 0)
(0.867296 0.0948684 0)
(0.411978 0.0789822 0)
(0.513845 0.0718953 0)
(0.538612 0.0730767 0)
(0.478577 0.075053 0)
(0.385763 0.0779237 0)
(0.304685 0.0800393 0)
(0.239063 0.0811539 0)
(0.173292 0.0814632 0)
(0.100152 0.0816918 0)
(0.0415745 0.082233 0)
(3 5.28733e-08 0)
(2.99999 4.11413e-07 0)
(2.99996 1.26274e-06 0)
(2.99991 3.83462e-06 0)
(2.99978 8.97405e-06 0)
(2.99951 2.51241e-05 0)
(2.99867 5.16372e-05 0)
(2.99724 0.000167786 0)
(2.99169 0.000299606 0)
(2.983 0.00117705 0)
(2.94715 0.0022684 0)
(2.86888 0.00822792 0)
(2.63284 0.0197344 0)
(1.87038 0.0647609 0)
(0.899629 0.162426 0)
(0.411453 0.133809 0)
(0.52141 0.119869 0)
(0.550434 0.121958 0)
(0.491716 0.125983 0)
(0.40015 0.132144 0)
(0.318746 0.136552 0)
(0.251831 0.139596 0)
(0.183895 0.141862 0)
(0.107167 0.143667 0)
(0.0438017 0.144184 0)
(3 7.1007e-08 0)
(2.99999 5.53563e-07 0)
(2.99996 1.69842e-06 0)
(2.99992 5.16548e-06 0)
(2.99979 1.21153e-05 0)
(2.99953 3.38412e-05 0)
(2.99874 7.02814e-05 0)
(2.99736 0.000224935 0)
(2.99219 0.000404683 0)
(2.98399 0.00156956 0)
(2.95051 0.00302604 0)
(2.87819 0.0109508 0)
(2.65879 0.0263489 0)
(1.95071 0.0864924 0)
(0.952159 0.222094 0)
(0.417486 0.186604 0)
(0.53714 0.166765 0)
(0.572396 0.169816 0)
(0.515528 0.176002 0)
(0.425197 0.186142 0)
(0.34233 0.193657 0)
(0.273088 0.199733 0)
(0.201572 0.205336 0)
(0.118958 0.210221 0)
(0.0482696 0.211614 0)
(3 8.34396e-08 0)
(2.99999 6.50686e-07 0)
(2.99997 1.99666e-06 0)
(2.99992 6.07274e-06 0)
(2.9998 1.42722e-05 0)
(2.99956 3.96688e-05 0)
(2.99883 8.33083e-05 0)
(2.99751 0.000262721 0)
(2.99281 0.000468234 0)
(2.98521 0.00183099 0)
(2.95467 0.00350374 0)
(2.88966 0.0126816 0)
(2.69102 0.0309949 0)
(2.05351 0.101318 0)
(1.02494 0.269119 0)
(0.439404 0.241073 0)
(0.564871 0.218533 0)
(0.60669 0.219811 0)
(0.552165 0.226391 0)
(0.462826 0.240161 0)
(0.376795 0.251721 0)
(0.303246 0.262149 0)
(0.226305 0.272507 0)
(0.135767 0.28202 0)
(0.055287 0.285679 0)
(3 8.69594e-08 0)
(2.99999 6.77452e-07 0)
(2.99997 2.08017e-06 0)
(2.99993 6.30953e-06 0)
(2.99982 1.48795e-05 0)
(2.99959 4.06598e-05 0)
(2.99893 8.8006e-05 0)
(2.99768 0.000260144 0)
(2.99349 0.000491736 0)
(2.98654 0.00178381 0)
(2.95924 0.00339986 0)
(2.9026 0.0122614 0)
(2.72742 0.0303191 0)
(2.17438 0.0958421 0)
(1.1376 0.260021 0)
(0.501414 0.276435 0)
(0.608242 0.26865 0)
(0.648643 0.269996 0)
(0.595631 0.277582 0)
(0.507497 0.295562 0)
(0.417883 0.312712 0)
(0.339677 0.329085 0)
(0.256953 0.346079 0)
(0.157279 0.36265 0)
(0.0647994 0.371267 0)
(3 8.50761e-08 0)
(2.99999 6.59959e-07 0)
(2.99997 2.02819e-06 0)
(2.99993 6.11348e-06 0)
(2.99983 1.44288e-05 0)
(2.99962 3.85842e-05 0)
(2.99901 8.55612e-05 0)
(2.99785 0.000234657 0)
(2.99407 0.000476735 0)
(2.98765 0.00155513 0)
(2.96313 0.0029151 0)
(2.91341 0.0103728 0)
(2.75563 0.0259809 0)
(2.2637 0.072894 0)
(1.2457 0.212762 0)
(0.534874 0.306197 0)
(0.62684 0.325625 0)
(0.67065 0.321479 0)
(0.627849 0.32955 0)
(0.547524 0.351625 0)
(0.458527 0.376428 0)
(0.378536 0.400747 0)
(0.292465 0.426879 0)
(0.184859 0.454161 0)
(0.078659 0.473234 0)
(3 8.95339e-08 0)
(2.99999 6.91431e-07 0)
(2.99997 2.12804e-06 0)
(2.99994 6.37938e-06 0)
(2.99984 1.50374e-05 0)
(2.99965 3.97442e-05 0)
(2.99909 8.82359e-05 0)
(2.99801 0.000234909 0)
(2.99459 0.000485705 0)
(2.98858 0.00148542 0)
(2.96638 0.00280788 0)
(2.92277 0.00948978 0)
(2.77542 0.0234167 0)
(2.33721 0.0629533 0)
(1.37971 0.18958 0)
(0.596586 0.351896 0)
(0.635112 0.380913 0)
(0.670968 0.372036 0)
(0.648169 0.382491 0)
(0.581876 0.40654 0)
(0.498365 0.440119 0)
(0.419981 0.475004 0)
(0.334387 0.514267 0)
(0.221931 0.558221 0)
(0.100114 0.599713 0)
(3 1.07131e-07 0)
(2.99999 8.22048e-07 0)
(2.99998 2.53477e-06 0)
(2.99995 7.57211e-06 0)
(2.99986 1.79523e-05 0)
(2.99968 4.71159e-05 0)
(2.99917 0.000105932 0)
(2.99818 0.000271612 0)
(2.99511 0.000600685 0)
(2.9896 0.00157481 0)
(2.96963 0.00340236 0)
(2.93132 0.00939701 0)
(2.7966 0.0232747 0)
(2.41024 0.0645889 0)
(1.53092 0.177837 0)
(0.683218 0.393165 0)
(0.641832 0.415661 0)
(0.672489 0.413811 0)
(0.665453 0.431869 0)
(0.613602 0.459164 0)
(0.540722 0.50141 0)
(0.467795 0.549602 0)
(0.387576 0.604812 0)
(0.278449 0.675465 0)
(0.138737 0.764577 0)
(3 4.98897e-08 0)
(2.99999 1.32711e-06 0)
(2.99998 2.68236e-06 0)
(2.99995 1.17923e-05 0)
(2.99988 1.94721e-05 0)
(2.99972 7.59075e-05 0)
(2.99928 0.000107514 0)
(2.99842 0.000464618 0)
(2.99567 0.000494199 0)
(2.99093 0.00272779 0)
(2.97276 0.00184832 0)
(2.93992 0.0165456 0)
(2.81762 0.0112561 0)
(2.47628 0.0939821 0)
(1.67634 0.164851 0)
(0.779308 0.435076 0)
(0.646322 0.447156 0)
(0.679624 0.450897 0)
(0.685263 0.475189 0)
(0.646474 0.509327 0)
(0.588234 0.558727 0)
(0.525105 0.619577 0)
(0.459361 0.697208 0)
(0.37302 0.814755 0)
(0.21168 1.02465 0)
(3 9.31101e-08 0)
(2.99999 7.27727e-07 0)
(2.99998 2.23803e-06 0)
(2.99996 6.77181e-06 0)
(2.99991 1.60612e-05 0)
(2.99976 4.28043e-05 0)
(2.9995 9.67921e-05 0)
(2.99851 0.000250869 0)
(2.99699 0.000565407 0)
(2.99074 0.0014734 0)
(2.98078 0.0032416 0)
(2.93981 0.00937423 0)
(2.84941 0.022069 0)
(2.57443 0.0646717 0)
(1.74062 0.188426 0)
(0.899282 0.469447 0)
(0.651852 0.476382 0)
(0.690987 0.483559 0)
(0.710111 0.511013 0)
(0.683546 0.552708 0)
(0.640411 0.607754 0)
(0.596912 0.67926 0)
(0.566048 0.777703 0)
(0.564008 0.927485 0)
(0.599919 1.17377 0)
(3 1.36689e-07 0)
(2.99999 1.20523e-07 0)
(2.99998 1.77322e-06 0)
(2.99996 1.63637e-06 0)
(2.99991 1.23394e-05 0)
(2.99979 8.63669e-06 0)
(2.99945 8.25676e-05 0)
(2.99881 3.29824e-05 0)
(2.99669 0.000595647 0)
(2.99316 0.000273857 0)
(2.97933 0.00435107 0)
(2.95549 0.00271265 0)
(2.86315 0.0314759 0)
(2.62309 0.0468381 0)
(2.00615 0.194134 0)
(1.02569 0.513056 0)
(0.670739 0.514727 0)
(0.711768 0.520214 0)
(0.741786 0.543439 0)
(0.726569 0.588078 0)
(0.698388 0.646997 0)
(0.678068 0.725352 0)
(0.683915 0.832246 0)
(0.744019 0.979778 0)
(0.890594 1.16902 0)
(3 7.41542e-08 0)
(2.99999 5.79449e-07 0)
(2.99999 1.77961e-06 0)
(2.99997 5.40487e-06 0)
(2.99992 1.27475e-05 0)
(2.99981 3.439e-05 0)
(2.99952 7.65288e-05 0)
(2.99893 0.000210021 0)
(2.99719 0.000432153 0)
(2.99387 0.00138629 0)
(2.98293 0.00249123 0)
(2.9625 0.00964202 0)
(2.88987 0.0185133 0)
(2.70166 0.0721118 0)
(2.21439 0.17723 0)
(1.1878 0.523983 0)
(0.718938 0.556166 0)
(0.747983 0.567558 0)
(0.782208 0.578378 0)
(0.777748 0.619056 0)
(0.762042 0.67847 0)
(0.761939 0.756605 0)
(0.794314 0.857865 0)
(0.881845 0.982089 0)
(1.05343 1.10513 0)
(3 8.14175e-08 0)
(3 6.35765e-07 0)
(2.99999 1.95328e-06 0)
(2.99997 5.92561e-06 0)
(2.99993 1.40568e-05 0)
(2.99984 3.77319e-05 0)
(2.9996 8.5221e-05 0)
(2.99911 0.000224674 0)
(2.99767 0.000501028 0)
(2.99488 0.00133491 0)
(2.98614 0.00297691 0)
(2.96906 0.00824183 0)
(2.9126 0.018759 0)
(2.76988 0.0574602 0)
(2.39273 0.145553 0)
(1.38618 0.442517 0)
(0.814852 0.578033 0)
(0.800857 0.610295 0)
(0.826332 0.619007 0)
(0.835043 0.650469 0)
(0.82974 0.704696 0)
(0.841976 0.776001 0)
(0.888468 0.862073 0)
(0.983787 0.958384 0)
(1.14901 1.03993 0)
(3 7.84318e-08 0)
(3 6.11991e-07 0)
(2.99999 1.88218e-06 0)
(2.99998 5.6991e-06 0)
(2.99994 1.35392e-05 0)
(2.99987 3.61706e-05 0)
(2.99967 8.18825e-05 0)
(2.99928 0.000212583 0)
(2.99812 0.000484162 0)
(2.99594 0.0012104 0)
(2.98864 0.0028872 0)
(2.97586 0.00684033 0)
(2.92896 0.0172517 0)
(2.81592 0.0441276 0)
(2.50628 0.117054 0)
(1.58514 0.335381 0)
(0.915659 0.612356 0)
(0.838069 0.650178 0)
(0.859661 0.663896 0)
(0.882569 0.682532 0)
(0.891825 0.726697 0)
(0.913381 0.787457 0)
(0.965873 0.857359 0)
(1.06017 0.929702 0)
(1.21002 0.986143 0)
(3 6.5975e-08 0)
(3 5.1145e-07 0)
(2.99999 1.57509e-06 0)
(2.99998 4.7394e-06 0)
(2.99996 1.12374e-05 0)
(2.9999 2.97511e-05 0)
(2.99974 6.69926e-05 0)
(2.99944 0.000173238 0)
(2.9985 0.000384881 0)
(2.99688 0.00100387 0)
(2.9908 0.00219383 0)
(2.98118 0.00603009 0)
(2.94235 0.0132421 0)
(2.8576 0.0388496 0)
(2.6049 0.09954 0)
(1.81541 0.295931 0)
(1.07047 0.653365 0)
(0.869111 0.682572 0)
(0.883785 0.697275 0)
(0.916588 0.70738 0)
(0.943813 0.742402 0)
(0.974668 0.792807 0)
(1.02976 0.849602 0)
(1.11922 0.904635 0)
(1.25191 0.944996 0)
(3 5.42465e-08 0)
(3 4.18724e-07 0)
(2.99999 1.29015e-06 0)
(2.99999 3.86753e-06 0)
(2.99996 9.14292e-06 0)
(2.99992 2.41058e-05 0)
(2.99979 5.39013e-05 0)
(2.99954 0.000140501 0)
(2.99881 0.000300595 0)
(2.99745 0.000847195 0)
(2.9928 0.00164961 0)
(2.98514 0.0054615 0)
(2.95515 0.0106037 0)
(2.89193 0.0363534 0)
(2.6989 0.0863138 0)
(2.08318 0.276462 0)
(1.26902 0.678259 0)
(0.922736 0.715834 0)
(0.918933 0.724262 0)
(0.951639 0.728815 0)
(0.990809 0.7526 0)
(1.02816 0.793528 0)
(1.08368 0.840173 0)
(1.16705 0.883265 0)
(1.28372 0.913478 0)
(3 4.76365e-08 0)
(3 3.68177e-07 0)
(3 1.13461e-06 0)
(2.99999 3.40769e-06 0)
(2.99997 8.08094e-06 0)
(2.99994 2.13568e-05 0)
(2.99984 4.80665e-05 0)
(2.99965 0.000124349 0)
(2.99909 0.000274721 0)
(2.99801 0.000728487 0)
(2.99463 0.00153826 0)
(2.9887 0.00451582 0)
(2.9672 0.00914079 0)
(2.92414 0.0288743 0)
(2.78844 0.0705745 0)
(2.37392 0.211924 0)
(1.56158 0.577487 0)
(1.04375 0.724949 0)
(0.986775 0.747409 0)
(1.00137 0.7557 0)
(1.04096 0.766268 0)
(1.08132 0.795949 0)
(1.13344 0.832912 0)
(1.20854 0.866578 0)
(1.31052 0.889376 0)
(3 2.62125e-08 0)
(3 3.49663e-07 0)
(3 8.60169e-07 0)
(2.99999 3.14045e-06 0)
(2.99998 6.2399e-06 0)
(2.99995 1.96069e-05 0)
(2.99988 3.73333e-05 0)
(2.99973 0.000114339 0)
(2.99931 0.000212087 0)
(2.9985 0.000671043 0)
(2.99594 0.00113291 0)
(2.99152 0.00411895 0)
(2.97494 0.00570259 0)
(2.94526 0.0256211 0)
(2.8369 0.0400932 0)
(2.54214 0.160998 0)
(1.85468 0.386757 0)
(1.15801 0.740387 0)
(1.0364 0.773887 0)
(1.04193 0.787643 0)
(1.08116 0.788763 0)
(1.12803 0.804544 0)
(1.17874 0.8308 0)
(1.24602 0.856114 0)
(1.33482 0.872658 0)
(3 1.93813e-08 0)
(3 2.61698e-07 0)
(3 6.40514e-07 0)
(2.99999 2.34847e-06 0)
(2.99999 4.6371e-06 0)
(2.99996 1.46033e-05 0)
(2.99992 2.75954e-05 0)
(2.99979 8.4597e-05 0)
(2.99955 0.000157372 0)
(2.99878 0.000489591 0)
(2.99749 0.000872191 0)
(2.99252 0.00299589 0)
(2.98471 0.00465404 0)
(2.95358 0.0197184 0)
(2.88757 0.03112 0)
(2.6845 0.127363 0)
(2.08501 0.31522 0)
(1.35079 0.756463 0)
(1.087 0.807115 0)
(1.0788 0.816931 0)
(1.11285 0.813909 0)
(1.16562 0.815809 0)
(1.21841 0.831802 0)
(1.28006 0.849706 0)
(1.35791 0.861405 0)
(3 3.6069e-08 0)
(3 1.31512e-07 0)
(3 6.23026e-07 0)
(3 1.30923e-06 0)
(2.99999 4.3133e-06 0)
(2.99997 8.213e-06 0)
(2.99994 2.53066e-05 0)
(2.99984 4.66805e-05 0)
(2.99965 0.000145601 0)
(2.9991 0.000252844 0)
(2.99803 0.000881172 0)
(2.99467 0.00135235 0)
(2.98887 0.00569333 0)
(2.96761 0.00834943 0)
(2.92541 0.0375485 0)
(2.7927 0.0721413 0)
(2.38921 0.258983 0)
(1.64533 0.642372 0)
(1.20286 0.807302 0)
(1.1415 0.833229 0)
(1.15496 0.838679 0)
(1.20287 0.832321 0)
(1.25673 0.837185 0)
(1.31322 0.84733 0)
(1.38155 0.854204 0)
(3 2.24394e-08 0)
(3 1.22393e-07 0)
(3 4.54758e-07 0)
(3 1.16707e-06 0)
(2.99999 3.20378e-06 0)
(2.99998 7.3403e-06 0)
(2.99995 1.89974e-05 0)
(2.99989 4.24499e-05 0)
(2.99972 0.000108691 0)
(2.99939 0.000240844 0)
(2.99841 0.000622372 0)
(2.99652 0.00134806 0)
(2.99056 0.00369042 0)
(2.97949 0.00765128 0)
(2.94218 0.0225543 0)
(2.85339 0.0536801 0)
(2.60461 0.150048 0)
(1.91129 0.453847 0)
(1.33735 0.790284 0)
(1.19772 0.842561 0)
(1.19452 0.862717 0)
(1.23341 0.85736 0)
(1.28897 0.849518 0)
(1.34357 0.850401 0)
(1.40472 0.852047 0)
(3 1.34374e-08 0)
(3 1.04545e-07 0)
(3 3.21827e-07 0)
(3 9.705e-07 0)
(2.99999 2.30125e-06 0)
(2.99999 6.10328e-06 0)
(2.99997 1.37537e-05 0)
(2.99992 3.55851e-05 0)
(2.99981 7.92467e-05 0)
(2.99952 0.000204932 0)
(2.99895 0.00045404 0)
(2.99723 0.00118859 0)
(2.99412 0.00262556 0)
(2.98325 0.00708327 0)
(2.96375 0.0159629 0)
(2.89458 0.0435832 0)
(2.72046 0.120096 0)
(2.25477 0.317967 0)
(1.51723 0.783096 0)
(1.2589 0.865369 0)
(1.23497 0.883313 0)
(1.25757 0.881768 0)
(1.31044 0.867159 0)
(1.36851 0.859075 0)
(1.42683 0.855403 0)
(3 1.31562e-08 0)
(3 7.05865e-08 0)
(3 2.63761e-07 0)
(3 6.76225e-07 0)
(3 1.86554e-06 0)
(2.99999 4.27612e-06 0)
(2.99998 1.11287e-05 0)
(2.99995 2.49014e-05 0)
(2.99986 6.41216e-05 0)
(2.9997 0.000142545 0)
(2.99923 0.000368348 0)
(2.99833 0.000813214 0)
(2.99548 0.00215432 0)
(2.99057 0.00464406 0)
(2.97264 0.0130584 0)
(2.93872 0.0293928 0)
(2.82606 0.0842165 0)
(2.51593 0.236712 0)
(1.84623 0.612432 0)
(1.36895 0.86097 0)
(1.28895 0.890736 0)
(1.2921 0.899719 0)
(1.33351 0.886919 0)
(1.39088 0.870641 0)
(1.44769 0.861865 0)
(3 5.14864e-09 0)
(3 5.95482e-08 0)
(3 1.54638e-07 0)
(3 5.38639e-07 0)
(3 1.11707e-06 0)
(2.99999 3.34877e-06 0)
(2.99998 6.64696e-06 0)
(2.99996 1.92925e-05 0)
(2.99991 3.78447e-05 0)
(2.99978 0.000109449 0)
(2.99951 0.000212999 0)
(2.99872 0.000627408 0)
(2.99731 0.00118127 0)
(2.99234 0.0037763 0)
(2.98427 0.00650935 0)
(2.95342 0.0238836 0)
(2.88946 0.0446393 0)
(2.69171 0.152958 0)
(2.1257 0.412647 0)
(1.54552 0.83192 0)
(1.34615 0.900411 0)
(1.32901 0.913829 0)
(1.35345 0.906071 0)
(1.40742 0.885181 0)
(1.46621 0.870108 0)
(3 7.83998e-09 0)
(3 3.21004e-08 0)
(3 1.40943e-07 0)
(3 3.15767e-07 0)
(3 9.80484e-07 0)
(3 1.9901e-06 0)
(2.99999 5.76466e-06 0)
(2.99997 1.1438e-05 0)
(2.99994 3.26708e-05 0)
(2.99985 6.42139e-05 0)
(2.99966 0.000184752 0)
(2.99913 0.00035461 0)
(2.9981 0.00107621 0)
(2.99501 0.00191646 0)
(2.98941 0.0066428 0)
(2.97032 0.0110851 0)
(2.93189 0.0421723 0)
(2.81415 0.0844699 0)
(2.45772 0.291914 0)
(1.83212 0.684632 0)
(1.45633 0.876968 0)
(1.38729 0.909853 0)
(1.38824 0.917945 0)
(1.42832 0.902271 0)
(1.48425 0.879456 0)
(3 4.64061e-09 0)
(3 2.53087e-08 0)
(3 9.38881e-08 0)
(3 2.40919e-07 0)
(3 6.5932e-07 0)
(3 1.50953e-06 0)
(2.99999 3.88923e-06 0)
(2.99998 8.69135e-06 0)
(2.99996 2.21022e-05 0)
(2.9999 4.91065e-05 0)
(2.99976 0.000124581 0)
(2.99946 0.000275777 0)
(2.99861 0.00070322 0)
(2.99697 0.00153729 0)
(2.99193 0.00407982 0)
(2.98246 0.00853519 0)
(2.95172 0.0245567 0)
(2.87978 0.0565459 0)
(2.67701 0.161284 0)
(2.11845 0.464871 0)
(1.60114 0.839658 0)
(1.44405 0.909394 0)
(1.42602 0.926305 0)
(1.44736 0.919982 0)
(1.49765 0.895487 0)
(3 2.46514e-09 0)
(3 1.91342e-08 0)
(3 5.89565e-08 0)
(3 1.77163e-07 0)
(3 4.19878e-07 0)
(3 1.10622e-06 0)
(3 2.48928e-06 0)
(2.99999 6.37865e-06 0)
(2.99997 1.41839e-05 0)
(2.99993 3.61726e-05 0)
(2.99985 8.01453e-05 0)
(2.99962 0.00020487 0)
(2.99915 0.000452486 0)
(2.99782 0.00116854 0)
(2.99524 0.002574 0)
(2.9873 0.00681371 0)
(2.97184 0.0152534 0)
(2.9229 0.0408079 0)
(2.80261 0.109067 0)
(2.47144 0.289275 0)
(1.83158 0.735092 0)
(1.5251 0.898955 0)
(1.46986 0.928888 0)
(1.4736 0.935794 0)
(1.51232 0.918424 0)
(3 2.52963e-09 0)
(3 1.06639e-08 0)
(3 4.59223e-08 0)
(3 1.04788e-07 0)
(3 3.20208e-07 0)
(3 6.6143e-07 0)
(3 1.88519e-06 0)
(2.99999 3.81303e-06 0)
(2.99998 1.06964e-05 0)
(2.99996 2.15192e-05 0)
(2.9999 6.02359e-05 0)
(2.99977 0.00012078 0)
(2.99942 0.000339843 0)
(2.99874 0.00067667 0)
(2.99664 0.00194437 0)
(2.993 0.00380103 0)
(2.98002 0.0115134 0)
(2.95686 0.0227386 0)
(2.87612 0.0711298 0)
(2.66799 0.175075 0)
(2.16963 0.490058 0)
(1.65807 0.863088 0)
(1.52134 0.931494 0)
(1.505 0.946792 0)
(1.5244 0.939551 0)
(3 9.04019e-10 0)
(3 9.37207e-09 0)
(3 2.54138e-08 0)
(3 8.4882e-08 0)
(3 1.82153e-07 0)
(3 5.24878e-07 0)
(3 1.07662e-06 0)
(3 2.99952e-06 0)
(2.99999 6.09203e-06 0)
(2.99997 1.68353e-05 0)
(2.99993 3.40638e-05 0)
(2.99985 9.41574e-05 0)
(2.99962 0.000189574 0)
(2.99915 0.000531317 0)
(2.99784 0.00103805 0)
(2.99528 0.00312431 0)
(2.98756 0.00560656 0)
(2.97229 0.0192619 0)
(2.92524 0.0345823 0)
(2.80767 0.123907 0)
(2.50006 0.291285 0)
(1.8971 0.740595 0)
(1.60455 0.912186 0)
(1.54725 0.944872 0)
(1.54788 0.952463 0)
(3 6.19238e-10 0)
(3 6.27866e-09 0)
(3 1.71474e-08 0)
(3 5.68907e-08 0)
(3 1.22744e-07 0)
(3 3.51844e-07 0)
(3 7.2545e-07 0)
(3 2.01198e-06 0)
(2.99999 4.10915e-06 0)
(2.99998 1.13056e-05 0)
(2.99996 2.30342e-05 0)
(2.9999 6.33084e-05 0)
(2.99978 0.000128674 0)
(2.99944 0.000355067 0)
(2.9988 0.000717795 0)
(2.99681 0.00201351 0)
(2.99337 0.00400653 0)
(2.98114 0.0117611 0)
(2.95951 0.0237572 0)
(2.8838 0.0720765 0)
(2.69227 0.17759 0)
(2.23193 0.4878 0)
(1.7412 0.868386 0)
(1.59918 0.942518 0)
(1.57864 0.958982 0)
(3 7.18667e-10 0)
(3 3.16302e-09 0)
(3 1.32492e-08 0)
(3 3.08176e-08 0)
(3 9.20152e-08 0)
(3 1.93147e-07 0)
(3 5.37648e-07 0)
(3 1.10418e-06 0)
(3 3.021e-06 0)
(2.99999 6.17279e-06 0)
(2.99997 1.68136e-05 0)
(2.99994 3.42575e-05 0)
(2.99986 9.33941e-05 0)
(2.99965 0.000189368 0)
(2.99922 0.000523384 0)
(2.99802 0.00103054 0)
(2.99567 0.00305173 0)
(2.98874 0.00554464 0)
(2.97477 0.0186521 0)
(2.93332 0.0337686 0)
(2.83035 0.118939 0)
(2.56091 0.279112 0)
(1.99386 0.714029 0)
(1.69089 0.905928 0)
(1.62507 0.947921 0)
(3 4.05392e-10 0)
(3 2.20688e-09 0)
(3 8.17916e-09 0)
(3 2.09835e-08 0)
(3 5.72287e-08 0)
(3 1.30849e-07 0)
(3 3.35201e-07 0)
(3 7.47264e-07 0)
(3 1.88658e-06 0)
(2.99999 4.1807e-06 0)
(2.99998 1.05195e-05 0)
(2.99996 2.3265e-05 0)
(2.99991 5.85376e-05 0)
(2.9998 0.000129226 0)
(2.9995 0.000326096 0)
(2.99892 0.000717622 0)
(2.99713 0.0018301 0)
(2.99405 0.0040091 0)
(2.98309 0.0104309 0)
(2.96407 0.0238518 0)
(2.89672 0.0628706 0)
(2.73219 0.166585 0)
(2.32273 0.432801 0)
(1.82919 0.844556 0)
(1.67489 0.936756 0)
(3 1.57656e-10 0)
(3 1.5698e-09 0)
(3 4.32391e-09 0)
(3 1.42344e-08 0)
(3 3.08957e-08 0)
(3 8.76973e-08 0)
(3 1.81597e-07 0)
(3 4.97853e-07 0)
(3 1.02017e-06 0)
(3 2.77101e-06 0)
(2.99999 5.66312e-06 0)
(2.99998 1.53422e-05 0)
(2.99995 3.12889e-05 0)
(2.99987 8.48583e-05 0)
(2.99971 0.000172353 0)
(2.99927 0.000473606 0)
(2.99842 0.000938361 0)
(2.99589 0.00273955 0)
(2.99128 0.0050982 0)
(2.97632 0.0166002 0)
(2.94625 0.0311097 0)
(2.85591 0.104569 0)
(2.60786 0.257652 0)
(2.11941 0.646793 0)
(1.78005 0.891115 0)
(3 1.57537e-10 0)
(3 8.50364e-10 0)
(3 3.15417e-09 0)
(3 8.08615e-09 0)
(3 2.202e-08 0)
(3 5.0285e-08 0)
(3 1.28458e-07 0)
(3 2.85835e-07 0)
(3 7.18983e-07 0)
(3 1.5897e-06 0)
(2.99999 3.98263e-06 0)
(2.99999 8.78721e-06 0)
(2.99997 2.19958e-05 0)
(2.99992 4.8443e-05 0)
(2.99982 0.000121407 0)
(2.99955 0.000266775 0)
(2.99902 0.000673478 0)
(2.99752 0.00146443 0)
(2.99463 0.00383336 0)
(2.98566 0.00803389 0)
(2.96919 0.0225026 0)
(2.91479 0.0501227 0)
(2.77945 0.144429 0)
(2.44223 0.375692 0)
(1.95463 0.787546 0)
(3 1.12067e-10 0)
(3 5.13263e-10 0)
(3 2.10186e-09 0)
(3 4.96614e-09 0)
(3 1.45655e-08 0)
(3 3.09748e-08 0)
(3 8.47262e-08 0)
(3 1.76153e-07 0)
(3 4.73613e-07 0)
(3 9.80089e-07 0)
(3 2.62223e-06 0)
(2.99999 5.42264e-06 0)
(2.99998 1.44828e-05 0)
(2.99995 2.99373e-05 0)
(2.99989 7.99553e-05 0)
(2.99973 0.000164968 0)
(2.99941 0.000442227 0)
(2.99852 0.000907165 0)
(2.99675 0.0024792 0)
(2.99176 0.00496418 0)
(2.98139 0.0145836 0)
(2.95213 0.028353 0)
(2.88182 0.0899352 0)
(2.69394 0.21172 0)
(2.23053 0.579365 0)
(3 6.8257e-11 0)
(3 3.13402e-10 0)
(3 1.28002e-09 0)
(3 3.03273e-09 0)
(3 8.8707e-09 0)
(3 1.89095e-08 0)
(3 5.1567e-08 0)
(3 1.07435e-07 0)
(3 2.87926e-07 0)
(3 5.96915e-07 0)
(3 1.59195e-06 0)
(3 3.29728e-06 0)
(2.99999 8.78012e-06 0)
(2.99997 1.8175e-05 0)
(2.99993 4.84097e-05 0)
(2.99986 0.000100054 0)
(2.99964 0.000267342 0)
(2.99921 0.000550878 0)
(2.99802 0.00148414 0)
(2.9957 0.00305955 0)
(2.9888 0.00835942 0)
(2.97553 0.0177135 0)
(2.93498 0.0491244 0)
(2.83733 0.117007 0)
(2.5754 0.326173 0)
(3 2.45563e-11 0)
(3 2.32437e-10 0)
(3 6.54585e-10 0)
(3 2.10577e-09 0)
(3 4.64857e-09 0)
(3 1.29101e-08 0)
(3 2.71407e-08 0)
(3 7.28013e-08 0)
(3 1.51355e-07 0)
(3 4.02216e-07 0)
(3 8.34113e-07 0)
(3 2.20971e-06 0)
(2.99999 4.57923e-06 0)
(2.99998 1.21154e-05 0)
(2.99996 2.50826e-05 0)
(2.99992 6.63658e-05 0)
(2.99979 0.000137087 0)
(2.99954 0.000363885 0)
(2.99884 0.000747304 0)
(2.99748 0.00201396 0)
(2.99359 0.00407472 0)
(2.98577 0.0114542 0)
(2.96342 0.0232513 0)
(2.91154 0.067695 0)
(2.77066 0.161256 0)
(3 1.72687e-11 0)
(3 1.3269e-10 0)
(3 4.0965e-10 0)
(3 1.21854e-09 0)
(3 2.88441e-09 0)
(3 7.48808e-09 0)
(3 1.67863e-08 0)
(3 4.22209e-08 0)
(3 9.34303e-08 0)
(3 2.33106e-07 0)
(3 5.1416e-07 0)
(3 1.27982e-06 0)
(3 2.81995e-06 0)
(2.99999 7.01367e-06 0)
(2.99998 1.54399e-05 0)
(2.99995 3.84074e-05 0)
(2.99989 8.44103e-05 0)
(2.99972 0.000210384 0)
(2.99939 0.000461308 0)
(2.99847 0.00115792 0)
(2.99664 0.00252862 0)
(2.99152 0.00644627 0)
(2.98082 0.0144061 0)
(2.95115 0.0370459 0)
(2.88049 0.0918491 0)
(3 1.40367e-11 0)
(3 6.46381e-11 0)
(3 2.62352e-10 0)
(3 6.25841e-10 0)
(3 1.81544e-09 0)
(3 3.89135e-09 0)
(3 1.05089e-08 0)
(3 2.19916e-08 0)
(3 5.8313e-08 0)
(3 1.21354e-07 0)
(3 3.2008e-07 0)
(3 6.65325e-07 0)
(3 1.75148e-06 0)
(2.99999 3.63925e-06 0)
(2.99999 9.57439e-06 0)
(2.99997 1.98782e-05 0)
(2.99993 5.23379e-05 0)
(2.99985 0.000108497 0)
(2.99963 0.000286752 0)
(2.9992 0.000592383 0)
(2.998 0.00157985 0)
(2.99567 0.00327667 0)
(2.98877 0.00881228 0)
(2.97564 0.0189426 0)
(2.93551 0.0511658 0)
(3 5.06993e-12 0)
(3 4.67228e-11 0)
(3 1.32954e-10 0)
(3 4.23334e-10 0)
(3 9.41619e-10 0)
(3 2.58731e-09 0)
(3 5.4735e-09 0)
(3 1.45165e-08 0)
(3 3.03513e-08 0)
(3 7.97246e-08 0)
(3 1.66231e-07 0)
(3 4.35253e-07 0)
(3 9.0701e-07 0)
(3 2.37128e-06 0)
(2.99999 4.94031e-06 0)
(2.99998 1.29048e-05 0)
(2.99996 2.68664e-05 0)
(2.99992 7.01865e-05 0)
(2.99979 0.000145838 0)
(2.99955 0.000382069 0)
(2.99888 0.000789751 0)
(2.99755 0.00209856 0)
(2.99384 0.0042735 0)
(2.98626 0.0118561 0)
(2.96513 0.0240552 0)
(3 3.36248e-12 0)
(3 2.57912e-11 0)
(3 7.9689e-11 0)
(3 2.36514e-10 0)
(3 5.59653e-10 0)
(3 1.44812e-09 0)
(3 3.24272e-09 0)
(3 8.12242e-09 0)
(3 1.79454e-08 0)
(3 4.45709e-08 0)
(3 9.81313e-08 0)
(3 2.43128e-07 0)
(3 5.34752e-07 0)
(3 1.32372e-06 0)
(3 2.90999e-06 0)
(2.99999 7.20116e-06 0)
(2.99998 1.58185e-05 0)
(2.99995 3.91621e-05 0)
(2.99989 8.58991e-05 0)
(2.99974 0.000213122 0)
(2.99943 0.000466453 0)
(2.99857 0.0011644 0)
(2.99687 0.00254771 0)
(2.99215 0.00642415 0)
(2.98229 0.0144096 0)
(3 2.37744e-12 0)
(3 1.28407e-11 0)
(3 4.76085e-11 0)
(3 1.21954e-10 0)
(3 3.30302e-10 0)
(3 7.52515e-10 0)
(3 1.90656e-09 0)
(3 4.22612e-09 0)
(3 1.05267e-08 0)
(3 2.31702e-08 0)
(3 5.74431e-08 0)
(3 1.26193e-07 0)
(3 3.12385e-07 0)
(3 6.85783e-07 0)
(3 1.69669e-06 0)
(3 3.72252e-06 0)
(2.99999 9.21021e-06 0)
(2.99998 2.01864e-05 0)
(2.99994 4.99956e-05 0)
(2.99987 0.000109423 0)
(2.99967 0.000271917 0)
(2.99928 0.000593671 0)
(2.99822 0.0014855 0)
(2.99614 0.00326667 0)
(2.99015 0.00818322 0)
(3 8.96736e-13 0)
(3 8.29898e-12 0)
(3 2.36974e-11 0)
(3 7.50964e-11 0)
(3 1.67611e-10 0)
(3 4.57562e-10 0)
(3 9.70392e-10 0)
(3 2.55506e-09 0)
(3 5.35211e-09 0)
(3 1.39499e-08 0)
(3 2.91304e-08 0)
(3 7.56679e-08 0)
(3 1.57893e-07 0)
(3 4.09461e-07 0)
(3 8.54242e-07 0)
(3 2.21272e-06 0)
(2.99999 4.61518e-06 0)
(2.99999 1.19444e-05 0)
(2.99997 2.48938e-05 0)
(2.99992 6.4421e-05 0)
(2.99983 0.000134023 0)
(2.99958 0.000347649 0)
(2.9991 0.00071996 0)
(2.99773 0.00188966 0)
(2.99519 0.00386991 0)
(3 8.02054e-13 0)
(3 3.81811e-12 0)
(3 1.51914e-11 0)
(3 3.67025e-11 0)
(3 1.0495e-10 0)
(3 2.26726e-10 0)
(3 6.03104e-10 0)
(3 1.26949e-09 0)
(3 3.31221e-09 0)
(3 6.92715e-09 0)
(3 1.7971e-08 0)
(3 3.75249e-08 0)
(3 9.71424e-08 0)
(3 2.02777e-07 0)
(3 5.2429e-07 0)
(3 1.09444e-06 0)
(3 2.82687e-06 0)
(2.99999 5.90089e-06 0)
(2.99998 1.52292e-05 0)
(2.99996 3.17704e-05 0)
(2.99991 8.19923e-05 0)
(2.99977 0.000170714 0)
(2.9995 0.000442299 0)
(2.99877 0.000913008 0)
(2.99731 0.00242471 0)
(3 4.41261e-13 0)
(3 2.08722e-12 0)
(3 8.34393e-12 0)
(3 2.0038e-11 0)
(3 5.72843e-11 0)
(3 1.23393e-10 0)
(3 3.28205e-10 0)
(3 6.88775e-10 0)
(3 1.79781e-09 0)
(3 3.74773e-09 0)
(3 9.72968e-09 0)
(3 2.02442e-08 0)
(3 5.24627e-08 0)
(3 1.09088e-07 0)
(3 2.82478e-07 0)
(3 5.87194e-07 0)
(3 1.51984e-06 0)
(3 3.15819e-06 0)
(2.99999 8.17364e-06 0)
(2.99998 1.69709e-05 0)
(2.99995 4.39563e-05 0)
(2.99988 9.11107e-05 0)
(2.99972 0.000236658 0)
(2.99938 0.000489206 0)
(2.99846 0.00127897 0)
(3 1.75027e-13 0)
(3 1.23196e-12 0)
(3 3.92092e-12 0)
(3 1.15541e-11 0)
(3 2.73809e-11 0)
(3 7.03226e-11 0)
(3 1.56822e-10 0)
(3 3.89068e-10 0)
(3 8.55295e-10 0)
(3 2.10086e-09 0)
(3 4.59911e-09 0)
(3 1.12562e-08 0)
(3 2.46049e-08 0)
(3 6.0101e-08 0)
(3 1.31272e-07 0)
(3 3.20124e-07 0)
(3 6.98725e-07 0)
(3 1.70114e-06 0)
(2.99999 3.70961e-06 0)
(2.99999 9.01699e-06 0)
(2.99997 1.96347e-05 0)
(2.99993 4.76679e-05 0)
(2.99983 0.000103587 0)
(2.99964 0.000251633 0)
(2.9991 0.000544671 0)
(3 8.20836e-14 0)
(3 6.61121e-13 0)
(3 1.87196e-12 0)
(3 6.16696e-12 0)
(3 1.33405e-11 0)
(3 3.75447e-11 0)
(3 7.66177e-11 0)
(3 2.07173e-10 0)
(3 4.14924e-10 0)
(3 1.11168e-09 0)
(3 2.20773e-09 0)
(3 5.91272e-09 0)
(3 1.16665e-08 0)
(3 3.13161e-08 0)
(3 6.13871e-08 0)
(3 1.65334e-07 0)
(3 3.21745e-07 0)
(3 8.70146e-07 0)
(3 1.67903e-06 0)
(2.99999 4.56514e-06 0)
(2.99998 8.71588e-06 0)
(2.99995 2.38831e-05 0)
(2.99989 4.48999e-05 0)
(2.99975 0.000124761 0)
(2.99936 0.000226481 0)
(3 2.56541e-14 0)
(3 3.07098e-13 0)
(3 8.96283e-13 0)
(3 2.61752e-12 0)
(3 6.12672e-12 0)
(3 1.54636e-11 0)
(3 3.44133e-11 0)
(3 8.40818e-11 0)
(3 1.83806e-10 0)
(3 4.42885e-10 0)
(3 9.62043e-10 0)
(3 2.30324e-09 0)
(3 4.98926e-09 0)
(3 1.18857e-08 0)
(3 2.56891e-08 0)
(3 6.08814e-08 0)
(3 1.31275e-07 0)
(3 3.09223e-07 0)
(3 6.64904e-07 0)
(2.99999 1.55455e-06 0)
(2.99999 3.3312e-06 0)
(2.99996 7.71626e-06 0)
(2.99992 1.64696e-05 0)
(2.99979 3.76912e-05 0)
(2.99955 8.01748e-05 0)
(3 9.76735e-15 0)
(3 4.39039e-14 0)
(3 3.52254e-13 0)
(3 3.99522e-13 0)
(3 2.26419e-12 0)
(3 2.25692e-12 0)
(3 1.221e-11 0)
(3 1.12485e-11 0)
(3 6.41423e-11 0)
(3 5.1838e-11 0)
(3 3.30354e-10 0)
(3 2.19597e-10 0)
(3 1.6806e-09 0)
(3 8.11969e-10 0)
(3 8.43038e-09 0)
(3 2.09454e-09 0)
(3 4.15157e-08 0)
(3 -2.77782e-09 0)
(3 1.99235e-07 0)
(2.99999 -1.03313e-07 0)
(2.99998 9.21384e-07 0)
(2.99997 -1.12731e-06 0)
(2.99991 4.08461e-06 0)
(2.9998 -9.90716e-06 0)
(2.99948 1.98353e-05 0)
(1.27896 1.08562 0)
(1.71697 0.890424 0)
(1.92395 0.626031 0)
(1.96115 0.356799 0)
(1.91162 0.133879 0)
(1.81004 -0.0143126 0)
(1.70331 -0.0540737 0)
(1.64612 -0.0227174 0)
(1.63432 0.0206605 0)
(1.63592 0.0425813 0)
(1.63692 0.0400035 0)
(1.63513 0.0280701 0)
(1.63111 0.0172286 0)
(1.62441 0.00971138 0)
(1.61685 0.00826396 0)
(1.61232 0.0108644 0)
(1.61068 0.0142903 0)
(1.61006 0.0158719 0)
(1.60926 0.0154786 0)
(1.60772 0.0142955 0)
(1.60433 0.013164 0)
(1.59676 0.0125082 0)
(1.57997 0.013135 0)
(1.54295 0.0164666 0)
(1.46127 0.0252737 0)
(1.2798 0.0450623 0)
(0.891857 0.0885782 0)
(0.383669 0.169654 0)
(0.0231651 0.197475 0)
(-0.191485 0.131853 0)
(-0.395873 0.0694308 0)
(-0.576139 0.0189909 0)
(-0.707635 -0.011475 0)
(-0.772019 -0.0211815 0)
(-0.795057 -0.0137384 0)
(-0.790305 -0.00176696 0)
(-0.759061 0.00241916 0)
(-0.703602 -0.00489447 0)
(-0.618021 -0.0232083 0)
(-0.508992 -0.0399891 0)
(-0.390997 -0.0513222 0)
(-0.274777 -0.0569782 0)
(-0.164073 -0.0592832 0)
(-0.0657089 -0.0632539 0)
(0.0422088 -0.0575543 0)
(0.128947 -0.0489735 0)
(0.207441 -0.0437841 0)
(0.278505 -0.0397948 0)
(0.343492 -0.0363268 0)
(0.400591 -0.0326273 0)
(0.454203 -0.0301529 0)
(0.508807 -0.0294914 0)
(0.561963 -0.0285069 0)
(0.611389 -0.0267113 0)
(0.657801 -0.0249819 0)
(0.701796 -0.0234992 0)
(0.743859 -0.0222449 0)
(0.784187 -0.0210783 0)
(0.823051 -0.0199965 0)
(0.860579 -0.0189397 0)
(0.896988 -0.0179507 0)
(0.93235 -0.016998 0)
(0.966802 -0.0161133 0)
(1.00037 -0.015269 0)
(1.03314 -0.0144845 0)
(1.06511 -0.0137358 0)
(1.09635 -0.0130381 0)
(1.12686 -0.0123711 0)
(1.15671 -0.0117484 0)
(1.18589 -0.0111491 0)
(1.21447 -0.0105853 0)
(1.24244 -0.010034 0)
(1.26987 -0.00950799 0)
(1.29676 -0.00898454 0)
(1.32316 -0.00848035 0)
(1.3491 -0.00797504 0)
(1.37459 -0.0074901 0)
(1.39965 -0.00700657 0)
(1.4243 -0.00654833 0)
(1.44854 -0.00609523 0)
(1.47239 -0.00566987 0)
(1.49583 -0.00525032 0)
(1.51889 -0.00485502 0)
(1.54154 -0.00446103 0)
(1.56382 -0.00408331 0)
(1.58572 -0.00369771 0)
(1.60725 -0.00332349 0)
(1.62843 -0.00295795 0)
(1.64927 -0.00261482 0)
(1.66976 -0.0022841 0)
(1.6899 -0.00199131 0)
(1.7097 -0.00172722 0)
(1.72915 -0.00150918 0)
(1.74819 -0.00131776 0)
(1.76677 -0.00109043 0)
(1.78479 -0.000794462 0)
(1.8019 -0.000432892 0)
(1.81755 2.52724e-05 0)
(1.82995 0.000701929 0)
(1.83905 0.00146846 0)
(1.36276 1.00192 0)
(1.6864 0.728012 0)
(1.87026 0.419452 0)
(1.96085 0.150596 0)
(2.00998 -0.042163 0)
(2.0366 -0.146258 0)
(2.04443 -0.157487 0)
(2.04212 -0.120638 0)
(2.02817 -0.0745895 0)
(2.00505 -0.0377529 0)