/*--------------------------------*- C++ -*----------------------------------*\
| =========                 |                                                 |
| \\      /  F ield         | OpenFOAM: The Open Source CFD Toolbox           |
|  \\    /   O peration     | Version:  2412                                  |
|   \\  /    A nd           | Website:  www.openfoam.com                      |
|    \\/     M anipulation  |                                                 |
\*---------------------------------------------------------------------------*/
FoamFile
{
    version     2.0;
    format      ascii;
    arch        "LSB;label=32;scalar=64";
    class       volScalarField;
    location    "5";
    object      p;
}
// * * * * * * * * * * * * * * * * * * * * * * * * * * * * * * * * * * * * * //

dimensions      [1 -1 -2 0 0 0 0];

internalField   nonuniform List<scalar> 
50
(
170337
191444
221874
269238
328121
159483
176568
201259
238332
287362
149680
163282
183057
213050
254791
140657
151089
166304
189656
223728
135589
144338
157202
177331
208227
453970
456239
455832
457949
467292
377489
407572
431420
452297
471302
337797
399977
451571
494711
524677
295657
369111
451282
509992
539031
278524
367539
475020
544290
567301
)
;

boundaryField
{
    inlet
    {
        type            fixedValue;
        value           uniform 101325;
    }
    sym
    {
        type            slip;
    }
    wedge
    {
        type            slip;
    }
    top
    {
        type            slip;
    }
    back
    {
        type            empty;
    }
    front
    {
        type            empty;
    }
    outlet
    {
        type            zeroGradient;
    }
}


// ************************************************************************* //
