/*--------------------------------*- C++ -*----------------------------------*\
| =========                 |                                                 |
| \\      /  F ield         | OpenFOAM: The Open Source CFD Toolbox           |
|  \\    /   O peration     | Version:  2412                                  |
|   \\  /    A nd           | Website:  www.openfoam.com                      |
|    \\/     M anipulation  |                                                 |
\*---------------------------------------------------------------------------*/
FoamFile
{
    version     2.0;
    format      ascii;
    arch        "LSB;label=32;scalar=64";
    class       surfaceScalarField;
    location    "5";
    object      phi;
}
// * * * * * * * * * * * * * * * * * * * * * * * * * * * * * * * * * * * * * //

dimensions      [1 0 -1 0 0 0 0];

oriented        oriented;

internalField   nonuniform List<scalar> 
85
(
1.91115e+08
792151
1.86337e+08
2.01083e+06
1.78768e+08
3.97627e+06
1.66547e+08
7.63099e+06
1.3195e+07
1.47587e+08
1.92164e+08
901087
1.89166e+08
2.30274e+06
1.85075e+08
4.53343e+06
1.79692e+08
8.34117e+06
1.42136e+07
1.72857e+08
1.92774e+08
731229
1.90582e+08
1.83683e+06
1.88038e+08
3.58054e+06
1.85188e+08
6.48585e+06
1.10706e+07
1.82251e+08
1.93258e+08
391038
1.91522e+08
966022
1.89819e+08
1.85044e+06
1.88357e+08
3.28008e+06
5.5118e+06
1.87739e+08
1.93457e+08
1.91801e+08
1.90196e+08
1.88751e+08
1.87877e+08
1.59082e+08
-2.12131e+07
1.51501e+08
-830585
1.29544e+08
1.44854e+07
1.09278e+08
1.37547e+07
3.55636e+06
1.56908e+08
-1.87461e+07
1.39525e+08
5.90319e+06
1.25615e+08
1.88515e+07
1.14713e+08
1.59031e+07
-211984
1.62519e+08
-1.44641e+07
1.51137e+08
3.73839e+06
1.41019e+08
1.74428e+07
1.35188e+08
1.31943e+07
-4.22098e+06
1.64739e+08
-8.16868e+06
1.48813e+08
2.9111e+06
1.42779e+08
9.9768e+06
1.40076e+08
6.79924e+06
-6.09339e+06
1.61877e+08
1.46101e+08
1.42351e+08
1.43324e+08
)
;

boundaryField
{
    inlet
    {
        type            calculated;
        value           nonuniform List<scalar> 5(-1.94031e+08 -1.94335e+08 -1.94626e+08 -1.94912e+08 -1.9508e+08);
    }
    sym
    {
        type            calculated;
        value           uniform 0;
    }
    wedge
    {
        type            calculated;
        value           nonuniform List<scalar> 5(-1.14186e-08 1.14474e-08 0 0 -3.60119e-28);
    }
    top
    {
        type            calculated;
        value           uniform 0;
    }
    back
    {
        type            empty;
    }
    front
    {
        type            empty;
    }
    outlet
    {
        type            calculated;
        value           nonuniform List<scalar> 5(9.85655e+07 1.08848e+08 1.33474e+08 1.36337e+08 1.36509e+08);
    }
}


// ************************************************************************* //
