/*--------------------------------*- C++ -*----------------------------------*\
| =========                 |                                                 |
| \\      /  F ield         | OpenFOAM: The Open Source CFD Toolbox           |
|  \\    /   O peration     | Version:  2412                                  |
|   \\  /    A nd           | Website:  www.openfoam.com                      |
|    \\/     M anipulation  |                                                 |
\*---------------------------------------------------------------------------*/
FoamFile
{
    version     2.0;
    format      ascii;
    arch        "LSB;label=32;scalar=64";
    class       volScalarField;
    location    "5";
    object      T;
}
// * * * * * * * * * * * * * * * * * * * * * * * * * * * * * * * * * * * * * //

dimensions      [0 0 0 1 0 0 0];

internalField   nonuniform List<scalar> 
50
(
365.599
383.402
411.139
441.887
488.112
355.622
370.73
393.078
421.278
457.179
346.443
358.843
377.354
402.144
435.043
337.807
347.532
362.223
383.006
412.111
332.899
341.122
353.709
372.334
399.762
514.797
516.072
516.618
517.532
515.189
495.52
505.084
513.282
521.521
525.111
480.753
501.906
516.06
524.296
522.464
459.915
496.961
522.488
533.765
531.766
452.249
501.699
536.648
548.316
541.186
)
;

boundaryField
{
    inlet
    {
        type            fixedValue;
        value           uniform 300;
    }
    sym
    {
        type            slip;
    }
    wedge
    {
        type            slip;
    }
    top
    {
        type            slip;
    }
    back
    {
        type            empty;
    }
    front
    {
        type            empty;
    }
    outlet
    {
        type            inletOutlet;
        inletValue      uniform 300;
        value           nonuniform List<scalar> 5(514.948 524.861 522.283 531.547 541.037);
    }
}


// ************************************************************************* //
