/*--------------------------------*- C++ -*----------------------------------*\
| =========                 |                                                 |
| \\      /  F ield         | OpenFOAM: The Open Source CFD Toolbox           |
|  \\    /   O peration     | Version:  2412                                  |
|   \\  /    A nd           | Website:  www.openfoam.com                      |
|    \\/     M anipulation  |                                                 |
\*---------------------------------------------------------------------------*/
FoamFile
{
    version     2.0;
    format      ascii;
    arch        "LSB;label=32;scalar=64";
    class       volVectorField;
    location    "5";
    object      U;
}
// * * * * * * * * * * * * * * * * * * * * * * * * * * * * * * * * * * * * * //

dimensions      [0 1 -1 0 0 0 0];

internalField   nonuniform List<vector> 
50
(
(565.313 2.75402 0)
(537.951 6.54434 0)
(494.929 11.9018 0)
(433.999 20.3108 0)
(342.705 32.4053 0)
(581.674 5.22762 0)
(560.072 12.3097 0)
(527.035 22.0408 0)
(479.281 36.1649 0)
(414.054 54.7476 0)
(596.381 4.77081 0)
(579.809 11.2148 0)
(554.297 20.0941 0)
(516.483 32.6742 0)
(463.016 49.7307 0)
(609.865 3.57783 0)
(597.889 8.38701 0)
(579.234 14.9866 0)
(550.718 24.2706 0)
(508.607 36.9019 0)
(617.435 1.29425 0)
(607.963 3.03388 0)
(592.94 5.42603 0)
(569.136 8.80281 0)
(531.925 13.4419 0)
(227.008 94.7949 0)
(240.457 133.798 3.20311e-17)
(256.527 159.754 0)
(273.547 177.185 4.42461e-17)
(293.646 190.007 -5.49854e-17)
(318.592 124.125 2.55063e-17)
(296.242 174.145 3.10363e-17)
(290.368 196.712 3.78266e-17)
(301.081 195.795 1.82126e-18)
(327.936 180.52 -5.91588e-17)
(381.137 94.4317 -2.76141e-17)
(343.558 130.257 -3.13987e-17)
(326.943 144.352 -3.63075e-17)
(331.561 138.644 -4.30952e-17)
(359.349 120.453 5.28001e-17)
(438.749 67.5749 0)
(384.79 97.1007 0)
(345.439 105.807 0)
(340.861 95.2675 0)
(363.403 75.3737 0)
(463.115 23.399 0)
(396.504 30.3149 0)
(341.296 31.4911 0)
(329.894 23.5886 0)
(351.901 11.0897 0)
)
;

boundaryField
{
    inlet
    {
        type            fixedValue;
        value           uniform (664 0 0);
    }
    sym
    {
        type            slip;
    }
    wedge
    {
        type            slip;
    }
    top
    {
        type            slip;
    }
    back
    {
        type            empty;
    }
    front
    {
        type            empty;
    }
    outlet
    {
        type            inletOutlet;
        inletValue      uniform (664 0 0);
        value           nonuniform List<vector> 5((293.646 190.007 -5.49854e-17) (327.936 180.52 -5.91588e-17) (359.349 120.453 5.28001e-17) (363.403 75.3737 0) (351.901 11.0897 0));
    }
}


// ************************************************************************* //
