/*--------------------------------*- C++ -*----------------------------------*\
| =========                 |                                                 |
| \\      /  F ield         | OpenFOAM: The Open Source CFD Toolbox           |
|  \\    /   O peration     | Version:  2412                                  |
|   \\  /    A nd           | Website:  www.openfoam.com                      |
|    \\/     M anipulation  |                                                 |
\*---------------------------------------------------------------------------*/
FoamFile
{
    version     2.0;
    format      ascii;
    arch        "LSB;label=32;scalar=64";
    class       volScalarField;
    location    "6";
    object      p;
}
// * * * * * * * * * * * * * * * * * * * * * * * * * * * * * * * * * * * * * //

dimensions      [1 -1 -2 0 0 0 0];

internalField   nonuniform List<scalar> 
200
(
1.1897
0.868014
1.07912
0.926421
1.04026
0.980201
1.00857
1.00035
1.001
1.00165
1.18705
0.842377
1.05592
0.987882
0.998596
0.996624
0.997007
0.998122
0.99927
1.00015
1.1818
0.846583
1.04204
0.982234
0.999213
0.996893
0.997583
0.998896
0.999962
1.00077
1.17738
0.878849
1.04942
0.952692
0.995852
0.981344
0.988502
0.99206
0.995398
0.997659
1.21914
0.930363
1.01327
0.985302
0.994885
0.994125
0.995505
0.996535
0.997645
0.998648
1.1847
0.872242
1.06278
0.954499
1.00678
0.98728
0.992975
0.992858
0.994367
0.996068
1.18688
0.835305
1.04596
0.993322
0.997761
0.996958
0.99676
0.997095
0.997556
0.998051
1.19501
0.851756
1.09368
0.976703
1.0053
1.00097
0.999178
0.998832
0.999639
1.00028
1.19394
0.869386
1.06799
0.896636
1.03696
0.981017
1.0058
0.998371
1.00126
1.00092
1.19363
0.864366
1.0808
0.94857
1.02333
0.981875
1.01134
0.99048
1.00783
0.996955
1.00198
1.00185
1.00186
1.0019
1.00198
1.00209
1.00217
1.00222
1.00223
1.00223
1.00085
1.00117
1.00129
1.00151
1.00181
1.00204
1.00217
1.00223
1.00225
1.00226
1.00122
1.00155
1.00171
1.00188
1.00201
1.00211
1.00217
1.00221
1.00223
1.00222
0.999526
1.00064
1.00116
1.0015
1.00179
1.002
1.00214
1.0022
1.00223
1.00222
0.999675
1.00036
1.00094
1.00145
1.0018
1.002
1.00211
1.00216
1.00217
1.00215
0.998278
0.999602
1.0008
1.00136
1.00172
1.00191
1.00201
1.00206
1.00207
1.00206
0.99912
0.999972
1.00083
1.00133
1.00161
1.00176
1.00183
1.00186
1.00188
1.00193
1.00116
1.00097
1.00135
1.00142
1.00156
1.00172
1.00178
1.00173
1.00169
1.00183
1.00149
1.00071
1.00133
1.00125
1.00137
1.00143
1.00166
1.00161
1.00159
1.00184
1.00451
0.999872
1.00188
1.00141
1.00156
1.00161
1.00171
1.00171
1.00166
1.00186
)
;

boundaryField
{
    inlet
    {
        type            fixedValue;
        value           uniform 1;
    }
    sym
    {
        type            slip;
    }
    wedge
    {
        type            slip;
    }
    top
    {
        type            slip;
    }
    back
    {
        type            empty;
    }
    front
    {
        type            empty;
    }
    outlet
    {
        type            zeroGradient;
    }
}


// ************************************************************************* //
