/*--------------------------------*- C++ -*----------------------------------*\
| =========                 |                                                 |
| \\      /  F ield         | OpenFOAM: The Open Source CFD Toolbox           |
|  \\    /   O peration     | Version:  2412                                  |
|   \\  /    A nd           | Website:  www.openfoam.com                      |
|    \\/     M anipulation  |                                                 |
\*---------------------------------------------------------------------------*/
FoamFile
{
    version     2.0;
    format      ascii;
    arch        "LSB;label=32;scalar=64";
    class       surfaceScalarField;
    location    "6";
    object      phi;
}
// * * * * * * * * * * * * * * * * * * * * * * * * * * * * * * * * * * * * * //

dimensions      [1 0 -1 0 0 0 0];

oriented        oriented;

internalField   nonuniform List<scalar> 
370
(
5.02225e-05
9.17231e-05
-0.000177548
0.000227709
-0.000189804
1.21207e-05
0.000317753
-0.00050753
0.000283865
3.38606e-05
0.000420416
-0.000136544
0.000424081
-3.67489e-06
0.000413686
1.03958e-05
0.000392147
2.1534e-05
2.98502e-05
0.000362291
0.000348119
-0.000135056
0.000794563
-0.000218644
0.000984551
-0.000177911
0.000627486
-0.000150451
0.00073444
-7.30956e-05
0.000608449
-1.05445e-05
0.000526423
7.83597e-05
0.000410223
0.000126596
0.000293122
0.000138664
0.000123197
0.000199775
0.000335972
-0.000364275
0.000693149
-0.000575731
0.000581802
-6.65906e-05
0.000443856
-1.2467e-05
0.000373054
-2.2958e-06
0.000263102
9.94227e-05
0.000170162
0.0001713
8.1242e-05
0.000215504
8.52446e-06
0.000211372
0.00017124
-3.94568e-05
0.000105107
-0.000379182
-9.86034e-05
-0.000371906
-0.000476444
0.000311179
-0.000554493
6.55908e-05
-0.000692243
0.000135491
-0.000690524
9.7704e-05
-0.00064132
0.000122107
-0.000561251
0.000135438
-0.000477367
0.000127499
0.0001028
-0.000408914
-0.000913027
0.000294608
-0.00168803
0.00040316
-0.001052
-0.000324816
-0.000976372
-9.92161e-06
-0.000829804
-1.10268e-05
-0.000771522
3.94429e-05
-0.000702139
5.27432e-05
-0.000626108
5.94237e-05
-0.000543889
4.52968e-05
2.21933e-05
-0.000463269
3.14404e-05
0.000343998
-0.00013497
0.000569603
-0.000467896
8.54229e-06
-0.000515895
4.0264e-05
-0.00063657
0.00011
-0.000622883
2.58114e-05
-0.000581806
1.16853e-05
-0.000503444
-1.89124e-05
-0.000405352
-5.2769e-05
-7.73449e-05
-0.00030579
0.000337686
0.000102426
0.000804093
0.000103343
0.000806024
6.19858e-06
0.000602202
0.000241978
0.000579615
0.000132117
0.000514657
9.07504e-05
0.000465478
6.08848e-05
0.000424691
2.19055e-05
0.000385879
-1.39253e-05
-4.34225e-05
0.000351988
0.00024127
-9.24705e-06
0.000602316
-0.00025759
0.000767477
-0.000159104
0.000750132
0.000259308
0.000909018
-2.67904e-05
0.000824929
0.000174838
0.000842132
4.36886e-05
0.000788265
7.57836e-05
0.000762544
1.18064e-05
2.21433e-05
0.000696989
0.000101819
4.18359e-05
-0.00012882
-2.70357e-05
-3.8961e-05
-0.000249189
0.00047335
-0.000252918
0.000326212
0.000120329
0.000402284
9.87871e-05
0.000420606
2.53774e-05
0.000277575
0.00021882
0.000277111
1.22737e-05
9.04017e-05
0.000208851
0.000193767
0.000166741
-8.2579e-05
-0.000335455
-0.000215166
-0.000116347
-9.09674e-05
0.000127863
0.000140144
0.000230553
0.000322636
3.96341e-05
0.000288011
3.46057e-05
0.000261899
2.61101e-05
0.00023197
2.9929e-05
0.00020288
2.9086e-05
0.00018129
2.15812e-05
0.000168876
1.2404e-05
0.000163643
5.21228e-06
0.000161693
1.91369e-06
4.22287e-06
3.06136e-05
0.000208802
-6.32367e-05
0.000128482
-9.82205e-05
6.10995e-05
-9.77006e-05
2.93991e-05
-7.64841e-05
7.86218e-06
-4.67294e-05
-8.18424e-06
-1.69751e-05
-1.73646e-05
7.45471e-06
-1.92398e-05
2.71705e-05
-1.78252e-05
-4.55725e-06
-0.000124431
0.000293796
-0.000154872
0.000158932
-0.000147777
5.39453e-05
-0.000106386
-1.19987e-05
-5.8892e-05
-3.96324e-05
-1.89354e-05
-4.81389e-05
8.7671e-06
-4.50679e-05
2.50206e-05
-3.55118e-05
3.01208e-05
-2.29689e-05
-2.51961e-06
-0.00033135
0.000216235
-0.000249095
7.66789e-05
-0.000151976
-4.31383e-05
-7.36271e-05
-9.03125e-05
-1.56265e-05
-9.75987e-05
2.39685e-05
-8.76933e-05
4.68511e-05
-6.79041e-05
5.63676e-05
-4.49987e-05
5.35764e-05
-2.01786e-05
4.58127e-06
-0.00029707
5.00602e-05
-0.000136179
-8.41837e-05
-2.386e-05
-0.000155446
3.84955e-05
-0.000152659
7.40856e-05
-0.000133179
9.43062e-05
-0.000107909
0.000105622
-7.9204e-05
0.000108331
-4.7666e-05
0.000103656
-1.54226e-05
1.23449e-05
-6.6286e-05
-0.000189427
7.57384e-05
-0.000226168
0.000122678
-0.000202382
0.000147739
-0.000177727
0.000158025
-0.000143468
0.000159064
-0.00010895
0.000156592
-7.67441e-05
0.000151216
-4.22766e-05
0.000142442
-6.62616e-06
2.08101e-05
0.000358113
-0.000195516
0.000324746
-0.00019278
0.000301042
-0.000178695
0.0002709
-0.000147602
0.000241526
-0.000114089
0.000215293
-8.2729e-05
0.000196996
-5.8451e-05
0.000182519
-2.776e-05
0.000166805
9.1357e-06
2.90299e-05
0.000608853
-0.00010737
0.000485116
-6.90376e-05
0.000403031
-9.66335e-05
0.000317512
-6.20968e-05
0.00024735
-4.38884e-05
0.000196804
-3.22101e-05
0.000174116
-3.57173e-05
0.000162959
-1.65625e-05
0.000144031
2.81193e-05
3.36296e-05
0.000181596
-8.01155e-05
8.98224e-05
2.27369e-05
2.7169e-05
-3.40611e-05
-1.97493e-05
-1.51664e-05
-3.97777e-05
-2.38597e-05
-2.95673e-05
-4.24569e-05
-7.45817e-06
-5.77684e-05
1.58918e-05
-3.99357e-05
3.11174e-05
1.29405e-05
2.52468e-05
0.000150452
0.000173207
0.000139155
0.000123995
0.000100129
5.75513e-05
-2.36737e-07
-4.01824e-05
-2.72304e-05
)
;

boundaryField
{
    inlet
    {
        type            calculated;
        value           nonuniform List<scalar> 10(-0.000142546 -0.000121891 -0.000107237 -9.0322e-05 0.000239006 -8.15153e-05 -9.68578e-05 -0.000130634 -0.000153902 -0.000152955);
    }
    sym
    {
        type            calculated;
        value           uniform 0;
    }
    wedge
    {
        type            calculated;
        value           nonuniform List<scalar> 10(2.40267e-20 2.40201e-20 1.20096e-20 2.40194e-20 -4.24413e-39 1.20098e-20 0 1.20085e-20 1.20067e-20 -2.54272e-39);
    }
    top
    {
        type            calculated;
        value           uniform 0;
    }
    back
    {
        type            empty;
    }
    front
    {
        type            empty;
    }
    outlet
    {
        type            calculated;
        value           nonuniform List<scalar> 10(0.00015741 3.59286e-05 2.80633e-05 4.64348e-05 9.59105e-05 0.000134017 0.000158638 0.000139505 3.95592e-05 -1.96571e-06);
    }
}


// ************************************************************************* //
