/*--------------------------------*- C++ -*----------------------------------*\
| =========                 |                                                 |
| \\      /  F ield         | OpenFOAM: The Open Source CFD Toolbox           |
|  \\    /   O peration     | Version:  2412                                  |
|   \\  /    A nd           | Website:  www.openfoam.com                      |
|    \\/     M anipulation  |                                                 |
\*---------------------------------------------------------------------------*/
FoamFile
{
    version     2.0;
    format      ascii;
    arch        "LSB;label=32;scalar=64";
    class       volVectorField;
    location    "6";
    object      U;
}
// * * * * * * * * * * * * * * * * * * * * * * * * * * * * * * * * * * * * * //

dimensions      [0 1 -1 0 0 0 0];

internalField   nonuniform List<vector> 
200
(
(-22.3866 0.464393 0)
(16.3266 2.36673 0)
(-11.913 -0.705642 0)
(7.43944 -3.76932 0)
(-3.21699 -0.490468 0)
(3.06806 -1.29068 0)
(0.0631856 -0.593014 0)
(1.18762 -0.460695 0)
(0.989762 -0.354684 0)
(0.850757 -0.256791 0)
(-16.3175 0.245329 0)
(10.8847 0.449159 0)
(-1.04105 0.767651 0)
(2.62148 -0.743045 0)
(1.39243 0.620338 0)
(1.51873 0.0483636 0)
(1.36561 0.498306 0)
(1.10032 0.546346 0)
(0.805427 0.560897 0)
(0.555723 0.553544 0)
(-16.0142 -1.14414 0)
(10.7664 -3.67234 0)
(-2.04829 -2.91594 0)
(2.58809 -1.35269 0)
(0.492359 -1.18734 0)
(0.7696 -0.168573 0)
(0.54257 0.597652 0)
(0.283004 1.07753 0)
(0.0849963 1.18746 0)
(-0.0385425 0.994217 0)
(-16.742 -2.14302 0)
(11.1084 -3.56451 0)
(-7.13994 2.50482 0)
(2.62297 1.00051 0)
(-3.46769 1.14236 0)
(-0.860466 0.989744 0)
(-1.77031 1.05863 0)
(-1.33605 1.1034 0)
(-1.18542 1.00998 0)
(-1.01032 0.809649 0)
(-12.123 -0.196051 0)
(2.14598 0.0570061 0)
(-5.53843 -0.0393269 0)
(-1.04161 0.266467 0)
(-2.51972 0.279483 0)
(-1.68113 0.477841 0)
(-1.73647 0.607552 0)
(-1.51585 0.690006 0)
(-1.34086 0.633475 0)
(-1.13374 0.49746 0)
(-18.3243 1.98958 0)
(12.0993 3.74147 0)
(-7.91699 -2.42935 0)
(3.15227 -0.69076 0)
(-3.68874 -0.30983 0)
(-0.461413 -0.197638 0)
(-1.78173 -0.126099 0)
(-1.18195 -0.138397 0)
(-1.05128 -0.213478 0)
(-0.777592 -0.302792 0)
(-16.7586 0.965964 0)
(11.1368 3.27029 0)
(-1.30126 2.25799 0)
(2.49401 1.47264 0)
(1.2036 1.24839 0)
(1.23365 0.620043 0)
(1.1501 0.307624 0)
(1.0428 -0.0142042 0)
(0.930021 -0.309557 0)
(0.829957 -0.516757 0)
(-18.3956 -0.309119 0)
(12.4315 -1.48178 0)
(-3.12229 -1.91071 0)
(3.73774 1.2903 0)
(1.49426 0.15893 0)
(1.85565 0.598388 0)
(1.9583 0.322391 0)
(1.90044 0.276286 0)
(1.78361 0.15825 0)
(1.6809 0.0639521 0)
(-22.7484 0.216463 0)
(17.0739 -1.18072 0)
(-12.6175 -0.238521 0)
(8.44841 0.700732 0)
(-2.7795 -0.251845 0)
(2.75401 0.996712 0)
(0.221821 0.247107 0)
(1.05288 0.671743 0)
(0.521778 -0.0596454 0)
(0.596008 0.227144 0)
(-21.1575 0.0868189 0)
(15.4739 0.733304 0)
(-9.0608 -1.67692 0)
(5.56466 -2.68125 0)
(-5.22232 1.18748 0)
(3.15536 0.409578 0)
(-2.99309 0.0925616 0)
(2.06276 1.57217 0)
(-0.98143 0.261782 0)
(1.2265 0.679057 0)
(0.746233 -0.0970229 -2.80218e-21)
(0.732169 0.00950934 0)
(0.685509 0.106843 0)
(0.63164 0.179192 0)
(0.574183 0.213508 1.13126e-17)
(0.521128 0.222878 0)
(0.488398 0.221532 0)
(0.480911 0.21814 0)
(0.490978 0.214545 0)
(0.507963 0.208761 -6.80343e-18)
(0.218904 0.604877 -4.98856e-18)
(-0.0846486 0.372589 5.17501e-18)
(-0.238412 0.16543 0)
(-0.258894 0.0927353 0)
(-0.235342 0.0498059 8.90708e-23)
(-0.170088 0.00923984 0)
(-0.0925136 -0.0219367 0)
(-0.00833063 -0.0318187 0)
(0.0503379 -0.0249885 0)
(0.115747 0.0227211 0)
(-0.21819 0.697481 0)
(-0.370977 0.301783 -5.13282e-18)
(-0.396524 0.0440123 0)
(-0.331825 -0.069462 0)
(-0.215637 -0.126066 -1.13446e-17)
(-0.0969048 -0.128342 5.87801e-18)
(-0.00746842 -0.107888 0)
(0.0561925 -0.0696853 6.31935e-18)
(0.091982 -0.0410952 0)
(0.0902387 0.00780168 6.83616e-18)
(-0.878451 0.599378 0)
(-0.728715 0.272772 0)
(-0.510124 0.00450751 0)
(-0.26508 -0.165758 0)
(-0.112639 -0.205728 5.67185e-18)
(0.0272523 -0.181166 -5.87316e-18)
(0.105936 -0.131656 0)
(0.157357 -0.0750398 -1.26009e-17)
(0.176816 -0.016708 0)
(0.149196 0.0410547 -6.82197e-18)
(-0.932352 0.340226 2.45864e-18)
(-0.505554 -0.0678014 2.55831e-18)
(-0.155395 -0.385241 0)
(0.0407042 -0.381762 2.74015e-18)
(0.155572 -0.325937 2.82773e-18)
(0.233341 -0.251441 0)
(0.284452 -0.165519 0)
(0.315919 -0.0775685 6.28395e-18)
(0.325366 0.00727546 0)
(0.30793 0.0829837 0)
(-0.503216 -0.359131 -2.48934e-18)
(0.153104 -0.522447 -2.57074e-18)
(0.236116 -0.507388 0)
(0.353884 -0.438717 -2.7199e-18)
(0.404973 -0.347787 -2.81032e-18)
(0.431059 -0.252267 0)
(0.44371 -0.155362 0)
(0.449955 -0.0528292 0)
(0.445985 0.0474539 0)
(0.430655 0.124675 0)
(0.824175 -0.646744 2.46647e-18)
(0.831189 -0.611597 0)
(0.770398 -0.534491 0)
(0.722923 -0.434167 0)
(0.66831 -0.330412 2.79626e-18)
(0.615433 -0.23688 0)
(0.572674 -0.152876 0)
(0.551047 -0.0546679 0)
(0.53104 0.0538502 0)
(0.51001 0.127433 3.38416e-18)
(1.4425 -0.146242 -1.20621e-18)
(1.32679 -0.195507 1.25164e-18)
(1.07974 -0.247787 0)
(0.913794 -0.216968 1.34886e-18)
(0.740471 -0.161415 -1.40206e-18)
(0.599794 -0.0914758 1.45756e-18)
(0.499555 -0.0574917 1.5148e-18)
(0.487502 0.0105703 0)
(0.468415 0.103977 1.63431e-18)
(0.449195 0.13902 -1.69714e-18)
(0.372378 -0.410423 -1.87421e-18)
(0.404732 -0.103209 -1.94116e-18)
(0.0880709 -0.262582 0)
(0.0312175 -0.101141 -2.08815e-18)
(-0.126135 -0.0695884 -7.18109e-19)
(-0.0997177 -0.0780837 -2.22693e-18)
(-0.0516276 -0.128015 -1.53511e-18)
(0.00295712 -0.0782288 0)
(0.0826283 0.092716 -1.64431e-18)
(0.126636 0.104003 -2.56001e-18)
(-0.259377 0.0290175 6.26567e-19)
(0.756313 0.25585 6.48655e-19)
(0.241907 0.100881 0)
(0.381556 0.0389203 6.90714e-19)
(0.300101 -0.0482391 -7.13947e-19)
(0.227592 -0.144009 7.40001e-19)
(0.105514 -0.191029 0)
(-0.105892 -0.141537 0)
(-0.147432 -0.0134291 0)
(-0.006885 0.0490737 8.54463e-19)
)
;

boundaryField
{
    inlet
    {
        type            fixedValue;
        value           uniform (3 0 0);
    }
    sym
    {
        type            slip;
    }
    wedge
    {
        type            slip;
    }
    top
    {
        type            slip;
    }
    back
    {
        type            empty;
    }
    front
    {
        type            empty;
    }
    outlet
    {
        type            inletOutlet;
        inletValue      uniform (3 0 0);
        value           nonuniform List<vector> 10((0.507963 0.208761 -6.80343e-18) (0.115747 0.0227211 0) (0.0902387 0.00780168 6.83616e-18) (0.149196 0.0410547 -6.82197e-18) (0.30793 0.0829837 0) (0.430655 0.124675 0) (0.51001 0.127433 3.38416e-18) (0.449195 0.13902 -1.69714e-18) (0.126636 0.104003 -2.56001e-18) (3 0 0));
    }
}


// ************************************************************************* //
