/*--------------------------------*- C++ -*----------------------------------*\
| =========                 |                                                 |
| \\      /  F ield         | OpenFOAM: The Open Source CFD Toolbox           |
|  \\    /   O peration     | Version:  2412                                  |
|   \\  /    A nd           | Website:  www.openfoam.com                      |
|    \\/     M anipulation  |                                                 |
\*---------------------------------------------------------------------------*/
FoamFile
{
    version     2.0;
    format      ascii;
    arch        "LSB;label=32;scalar=64";
    class       volScalarField;
    location    "110";
    object      T;
}
// * * * * * * * * * * * * * * * * * * * * * * * * * * * * * * * * * * * * * //

dimensions      [0 0 0 1 0 0 0];

internalField   nonuniform List<scalar> 
200
(
300.052
300.118
300.248
300.552
301.131
302.592
305.212
311.975
322.539
356.393
300.022
300.048
300.103
300.217
300.453
300.947
301.993
304.147
308.472
317.11
300.01
300.021
300.044
300.091
300.188
300.386
300.794
301.611
303.294
306.676
300.004
300.008
300.017
300.035
300.072
300.147
300.303
300.609
301.243
302.521
300.001
300.003
300.007
300.014
300.028
300.058
300.118
300.238
300.485
300.98
300.001
300.001
300.003
300.005
300.011
300.023
300.046
300.094
300.191
300.388
300
300
300.001
300.002
300.004
300.009
300.019
300.037
300.077
300.156
300
300
300
300.001
300.002
300.004
300.008
300.015
300.031
300.063
300
300
300
300
300.001
300.002
300.003
300.006
300.013
300.027
300
300
300
300
300
300.001
300.002
300.003
300.007
300.014
412.881
444.797
469.987
487.928
498.179
502.032
499.258
494.398
488.822
489.587
342.485
370.139
400.891
430.599
455.406
472.01
482.613
487.251
488.601
488.471
316.234
328.086
344.616
366.235
392.45
421.388
448.413
470.783
479.506
477.769
306.313
311.509
319.587
331.456
348.097
369.543
395.524
420.198
443.141
445.966
302.463
304.598
308.119
313.667
322.037
333.933
349.799
368.693
387.83
393.745
300.978
301.845
303.323
305.733
309.562
315.19
323.25
332.711
344.294
345.823
300.393
300.747
301.359
302.376
304.02
306.502
310.138
314.566
320.005
321.23
300.16
300.306
300.561
300.988
301.686
302.744
304.322
306.26
308.708
309.278
300.068
300.13
300.241
300.427
300.733
301.198
301.9
302.754
303.869
304.074
300.035
300.067
300.124
300.221
300.383
300.627
301.003
301.451
302.06
302.106
)
;

boundaryField
{
    inlet
    {
        type            fixedValue;
        value           uniform 300;
    }
    sym
    {
        type            slip;
    }
    wedge
    {
        type            slip;
    }
    top
    {
        type            slip;
    }
    back
    {
        type            empty;
    }
    front
    {
        type            empty;
    }
    outlet
    {
        type            inletOutlet;
        inletValue      uniform 300;
        value           nonuniform List<scalar> 10(490.088 488.162 478.065 445.244 393.087 345.6 321.205 309.257 304.061 302.1);
    }
}


// ************************************************************************* //
