/*--------------------------------*- C++ -*----------------------------------*\
| =========                 |                                                 |
| \\      /  F ield         | OpenFOAM: The Open Source CFD Toolbox           |
|  \\    /   O peration     | Version:  2412                                  |
|   \\  /    A nd           | Website:  www.openfoam.com                      |
|    \\/     M anipulation  |                                                 |
\*---------------------------------------------------------------------------*/
FoamFile
{
    version     2.0;
    format      ascii;
    arch        "LSB;label=32;scalar=64";
    class       volScalarField;
    location    "0.0005";
    object      ddt0(rho,e);
}
// * * * * * * * * * * * * * * * * * * * * * * * * * * * * * * * * * * * * * //

dimensions      [1 -1 -3 0 0 0 0];

internalField   nonuniform List<scalar> 
180000
(
-1.53533e-05
-3.83721e-05
-4.33061e-05
-1.35921e-05
1.27131e-05
3.99507e-05
4.00944e-05
-1.67505e-06
3.34368e-06
6.49014e-06
4.86244e-05
4.27884e-05
3.35938e-05
-1.18115e-05
-3.92036e-05
-5.7805e-06
-1.83386e-05
8.15899e-06
3.79703e-05
5.38727e-06
-2.05059e-05
-2.5038e-06
-5.00688e-06
-2.97429e-05
-1.90556e-05
5.40089e-06
-2.98609e-05
-1.74485e-05
-3.08139e-05
-1.13079e-05
2.28972e-05
4.59639e-06
-1.27007e-05
-5.19424e-06
-5.63023e-05
-5.5088e-05
-4.01288e-05
-5.88748e-05
-3.71355e-05
-2.16491e-05
-4.42076e-05
-5.61315e-06
-3.65856e-05
-1.75576e-05
9.36761e-06
1.33863e-05
2.94667e-05
4.18547e-05
1.07667e-05
9.66431e-06
9.59748e-06
-1.50026e-05
-2.50044e-05
-3.14274e-05
5.25438e-06
2.90594e-05
7.11728e-05
6.26972e-05
3.74468e-05
2.77569e-05
2.77335e-05
2.52359e-05
2.00979e-05
2.25472e-05
2.50924e-05
2.86476e-05
-1.15351e-05
7.50557e-06
-3.26744e-06
1.53389e-05
1.3915e-05
-2.27261e-05
8.49192e-06
5.1126e-06
1.35719e-05
-1.22621e-05
-4.30333e-05
2.04982e-05
4.6266e-05
5.74341e-05
3.74977e-05
7.1119e-06
6.39121e-05
4.35052e-05
-5.41296e-06
2.10419e-05
2.17556e-05
-1.13296e-05
-4.60711e-06
1.75735e-05
4.56036e-05
1.42844e-05
3.54158e-05
5.05621e-05
1.63195e-05
1.05539e-05
5.03874e-05
5.27939e-05
4.86675e-05
-5.18092e-05
-6.42449e-05
-5.82648e-05
-6.22936e-05
-4.67359e-05
-9.47927e-06
-3.88282e-05
-2.3842e-05
-5.32608e-05
-2.57626e-05
-2.81535e-05
-3.85162e-05
-1.89921e-06
1.54894e-05
3.03998e-05
1.14292e-05
-5.19478e-06
2.45855e-05
1.11728e-05
-3.13126e-05
-4.33391e-05
-1.38837e-05
9.14545e-06
3.32353e-06
2.05734e-05
3.03528e-06
1.38331e-05
2.58385e-05
3.90578e-05
4.91261e-05
2.00855e-05
-8.19215e-07
-1.6339e-06
3.87834e-05
-2.54632e-06
1.04918e-05
-4.24331e-06
2.17717e-05
4.28838e-05
3.34818e-05
-2.21576e-05
-3.11012e-05
-7.64806e-05
-3.936e-05
-1.87053e-05
-2.21784e-05
4.05307e-06
2.69129e-05
7.30068e-06
3.07132e-05
3.11433e-05
-3.19168e-05
-2.90596e-05
-1.7078e-05
2.75738e-05
6.03429e-06
-5.73395e-06
2.01593e-06
-3.32603e-05
-4.65728e-05
7.78031e-07
-5.19886e-06
-9.31229e-05
-7.332e-05
-7.58519e-05
-6.55748e-05
-8.53338e-05
-2.42974e-05
-3.79081e-05
-8.13391e-05
-0.000104205
-6.10382e-05
-6.07244e-05
-3.76591e-06
1.56131e-05
3.51821e-05
5.26832e-05
3.65358e-05
3.82673e-05
1.86267e-05
-7.97593e-06
2.30231e-05
8.49471e-07
-1.55101e-06
1.42431e-06
1.87689e-05
-7.49986e-06
-1.76221e-05
2.61247e-06
1.47341e-05
3.89716e-05
1.4909e-07
-7.42863e-06
1.80204e-05
4.05344e-05
3.65866e-05
3.32797e-05
1.56862e-05
2.39412e-05
3.39778e-05
2.97734e-05
5.04224e-06
-6.2234e-06
1.22358e-05
-2.77272e-05
-2.41658e-05
-2.43132e-05
-6.52464e-06
-2.18282e-06
-3.25766e-05
-2.68507e-05
-8.53596e-07
1.45746e-05
-2.98037e-05
-6.14379e-05
-5.13186e-05
-3.03091e-05
-3.95394e-05
-3.62644e-05
-5.47142e-07
-2.80714e-05
9.33249e-06
-2.5811e-05
3.09917e-05
3.61138e-05
9.4314e-06
1.08152e-05
-1.95849e-05
7.49377e-06
2.60402e-05
4.43749e-05
1.70102e-05
4.34029e-07
1.08953e-05
-3.2324e-05
-1.48619e-05
3.47912e-05
3.93941e-05
-2.45186e-05
-3.91908e-06
3.47989e-05
3.88966e-05
3.63461e-05
3.73735e-05
2.88004e-05
3.9226e-05
4.93096e-05
0.000144805
0.000251837
0.000348919
0.000497908
0.000773559
0.00121525
0.00187449
0.00297558
0.00474741
0.00742784
0.0116151
0.0181543
0.0283359
0.0441882
0.0689198
0.107525
0.167864
0.261984
0.409021
0.638832
0.998111
1.56032
2.44046
3.81882
5.97883
9.36499
14.6756
23.0076
36.0852
56.6187
88.8745
139.568
219.285
344.718
542.227
853.456
1344.31
2119.1
3343.37
5279.76
8346.49
13209.3
20936
33234.1
52892.8
84393.6
135412
218277
356736
587137
994780
1.67192e+06
2.92829e+06
4.73982e+06
-1.06426e-06
-3.01212e-05
-2.61598e-05
-8.9849e-06
4.1241e-05
8.13929e-06
4.15919e-06
1.85641e-08
-3.64599e-05
-5.75834e-06
9.77209e-06
7.17191e-06
4.75898e-05
1.87667e-06
4.26727e-05
5.62661e-05
2.39924e-05
4.22901e-05
4.12177e-05
-2.78743e-06
7.16056e-06
1.16835e-05
7.8353e-06
3.67658e-06
-4.1145e-05
-9.49921e-06
-4.27936e-06
1.38537e-05
-3.22611e-05
-3.77675e-05
-1.24855e-05
-3.50305e-05
-1.86e-05
-4.26902e-05
-2.61912e-05
2.43677e-05
3.45982e-05
1.94469e-05
2.69355e-05
3.1584e-05
3.09543e-07
5.90709e-06
1.19628e-06
3.27255e-05
3.95742e-05
3.36818e-05
3.47726e-05
2.02798e-05
2.36237e-05
-1.23733e-05
-4.52048e-05
-7.59635e-06
-3.04107e-05
-3.87024e-05
-1.2021e-05
-7.07376e-06
-3.27085e-05
-3.05526e-05
-1.22791e-07
-7.6887e-06
-3.98567e-05
-1.90557e-05
6.23489e-06
3.12626e-05
3.5993e-05
-2.90523e-05
5.75681e-05
2.28678e-05
2.13314e-06
-9.05232e-06
2.34024e-05
3.11266e-05
4.87742e-05
7.0602e-05
5.35076e-05
4.97722e-05
3.29332e-05
2.57275e-05
3.32579e-05
-3.59131e-06
-5.94364e-05
-4.29767e-05
-2.85937e-05
-5.70305e-05
-3.67557e-05
-4.31043e-05
-1.9652e-05
1.68114e-05
-2.01905e-06
2.05283e-05
4.27988e-05
2.51683e-05
2.92998e-05
1.0112e-05
2.34165e-05
-2.65658e-05
-2.01697e-05
1.56615e-05
3.33673e-05
5.53764e-05
2.14436e-05
2.97169e-05
2.5555e-05
7.25296e-05
3.68757e-05
-2.34709e-05
-2.53392e-05
-5.20443e-05
-4.38255e-05
-1.65308e-05
-3.44213e-05
-3.9328e-05
-5.74592e-05
3.85733e-05
5.05749e-05
-8.12247e-06
-5.80768e-05
-1.48986e-05
-2.64503e-05
-2.70772e-05
-1.07696e-05
-1.52807e-05
2.91737e-05
-2.55084e-05
2.34118e-05
-2.04165e-05
1.40157e-05
4.07788e-05
6.23702e-05
-1.26351e-05
-5.27098e-05
-1.65516e-06
3.84831e-05
6.56019e-05
4.4273e-05
4.38686e-05
3.26698e-05
5.39126e-05
2.53838e-05
3.16878e-06
-3.69388e-05
-6.41434e-05
-4.64528e-05
-4.30837e-05
-4.28112e-05
-1.80302e-06
1.21274e-05
-2.735e-05
-1.09681e-05
4.61536e-06
-1.23409e-06
1.08298e-05
4.23966e-05
-2.78279e-05
-1.51995e-05
1.35635e-05
4.86967e-06
-1.78087e-05
-2.51852e-05
3.37041e-06
1.83327e-06
-5.39215e-05
3.7612e-06
-5.41962e-05
-5.78359e-05
-6.23191e-05
-0.000149376
-0.000110366
-5.63071e-05
-4.10316e-05
-5.62475e-05
-5.67527e-05
-8.14213e-05
-2.42884e-05
-5.02466e-05
-5.04076e-05
-6.62073e-06
-6.98324e-05
-3.8153e-05
-3.68851e-05
-4.49024e-05
-2.7511e-05
-4.57208e-05
-2.92944e-05
-6.2202e-05
-3.47126e-05
-1.70756e-05
-2.8726e-05
-1.29029e-05
1.87135e-05
4.48207e-05
3.59331e-05
-8.99649e-06
-8.20634e-06
-2.83283e-05
-1.64584e-05
-4.14474e-05
-2.54355e-05
-4.90926e-05
-1.65745e-05
-1.97236e-05
-6.68606e-06
2.17286e-05
4.86966e-05
4.80313e-05
2.83381e-05
-6.03935e-06
1.43441e-05
-6.0031e-06
2.62623e-05
3.25665e-05
-1.8264e-05
2.43641e-05
1.88295e-05
5.0631e-05
7.70027e-05
2.31163e-05
-9.20729e-07
-4.36527e-06
-1.06067e-06
-9.19392e-06
-3.30316e-05
-3.08884e-05
-2.42689e-05
-4.15501e-05
-6.26409e-05
-4.6173e-05
-2.63492e-05
-5.30053e-06
7.37649e-06
1.14696e-05
1.48788e-06
-5.99448e-06
-2.79745e-05
6.01391e-07
2.4041e-06
-3.31756e-05
-5.72264e-05
-4.66146e-05
-3.64588e-05
-2.32413e-05
2.62612e-05
4.93968e-05
4.76601e-05
7.31091e-05
0.000115382
0.000150704
0.00022672
0.000351315
0.000535589
0.000756778
0.00111283
0.00181258
0.0029676
0.00455801
0.00710379
0.0111182
0.0174239
0.027159
0.0423286
0.0659975
0.102948
0.160563
0.250358
0.390612
0.609549
0.951585
1.48615
2.32199
3.62965
5.67632
8.8807
13.8996
21.7627
34.0855
53.402
83.6908
131.198
205.741
322.754
506.528
795.299
1249.35
1963.7
3088.4
4860.41
7654.69
12064.5
19032.8
30056
47537.9
75311.4
119699
190806
306548
495108
813995
1.33193e+06
2.23334e+06
3.56899e+06
-3.53732e-06
3.80191e-06
3.10042e-05
5.15745e-05
3.67501e-05
4.23926e-05
2.68792e-05
2.30992e-05
-3.07119e-05
-3.34892e-05
-2.95831e-06
-1.77984e-05
-2.19774e-05
-2.8225e-05
-4.53103e-05
-7.61065e-05
-5.62614e-05
-3.08375e-05
4.87474e-06
4.07793e-06
2.12728e-05
3.02244e-05
3.75196e-05
4.75897e-05
5.64839e-05
4.59325e-05
4.94528e-05
6.27655e-05
5.72514e-05
-7.45507e-06
-8.68886e-06
-4.02642e-05
-4.30253e-05
-2.94673e-05
-2.77244e-05
-2.21848e-05
1.83301e-05
1.38878e-05
-3.72202e-05
-2.42118e-06
-7.33291e-07
1.79308e-05
-1.32301e-05
-3.28824e-05
2.27407e-05
5.21235e-06
-1.45839e-05
-3.01521e-05
-2.39734e-05
-7.76023e-06
-3.07426e-06
3.44411e-06
2.15417e-05
-6.389e-06
3.4475e-06
2.34603e-05
-1.13117e-05
1.35047e-05
-1.55215e-05
1.16238e-05
9.44425e-07
-1.09956e-05
-1.05584e-05
-3.65725e-06
1.33994e-06
-3.32877e-05
-6.47768e-05
-4.22381e-06
3.76719e-05
9.19125e-06
-5.0188e-05
-6.91609e-05
-5.63164e-05
-5.62311e-05
-5.41258e-05
-6.25586e-06
4.69524e-07
1.92767e-05
-7.76649e-06
-7.53986e-06
-5.14602e-06
-2.47492e-05
1.38215e-05
4.66318e-05
3.0929e-05
3.34895e-05
2.78814e-05
3.21317e-06
3.05325e-05
2.19716e-05
2.40061e-05
-8.52855e-06
2.78801e-05
4.94408e-05
1.21625e-05
2.2229e-05
5.45131e-05
4.0229e-05
-2.71302e-06
-1.37415e-05
-3.46096e-05
-4.42735e-05
-6.28468e-05
-5.60155e-05
-4.69687e-05
-4.58796e-06
4.67592e-05
5.30022e-05
3.98928e-05
-3.16713e-05
-3.91569e-05
-2.13736e-05
-6.26681e-06
6.18548e-06
4.3234e-06
4.61698e-05
-2.78106e-06
1.30637e-05
7.29975e-05
2.97896e-05
6.78038e-05
3.26647e-05
3.43694e-05
3.84771e-06
-2.81915e-05
-7.19797e-05
-8.35713e-05
-5.74082e-06
-1.83677e-05
-4.02829e-05
-3.06062e-05
5.365e-06
5.91621e-05
2.07685e-05
3.0914e-05
-2.09823e-06
-8.8976e-06
2.74671e-05
2.82173e-05
-1.19197e-05
-1.23014e-05
2.60008e-05
3.80288e-05
3.29784e-05
1.24358e-05
1.8053e-05
2.0713e-05
3.87957e-05
3.79233e-05
3.79389e-05
4.53062e-05
1.4042e-05
-3.87343e-05
-1.74856e-05
-2.12159e-05
9.82502e-06
-2.49999e-05
2.51278e-05
1.2157e-05
5.19316e-06
1.47885e-06
1.76516e-05
-8.8496e-06
-3.23311e-05
-6.23443e-05
-4.0723e-05
-5.75115e-05
-5.67105e-05
-3.79519e-05
4.50965e-06
3.11234e-05
3.0792e-05
5.45135e-05
4.03274e-05
1.64297e-05
2.28673e-05
2.33827e-05
5.21958e-06
2.40953e-05
-2.03181e-06
-3.47941e-05
-8.55215e-06
8.51402e-06
-1.99333e-05
4.04732e-05
2.25196e-05
7.14764e-06
1.13263e-07
7.14044e-06
-4.55245e-05
-6.94546e-05
-1.28548e-05
8.61014e-06
4.72568e-06
2.29114e-06
3.93681e-06
3.79844e-05
8.72489e-07
-3.97086e-05
-7.32845e-05
-2.52816e-05
-2.80367e-05
-1.9586e-05
9.68595e-06
1.73448e-05
1.28331e-05
-3.55274e-06
1.69154e-05
-2.46234e-05
-1.09221e-05
-6.99192e-06
-3.48388e-05
-5.87971e-05
-4.65058e-05
-2.32676e-05
-3.25014e-05
2.8651e-05
4.52054e-05
-6.84394e-06
4.14499e-05
4.4905e-05
5.04966e-05
3.13715e-05
3.90348e-05
-1.63341e-05
-1.25461e-05
-7.98966e-06
-1.77771e-05
-2.94719e-06
-3.25463e-05
-6.3558e-05
-5.1448e-05
-5.63542e-06
-1.1487e-05
-3.58754e-05
-2.65194e-05
-2.19981e-05
1.17049e-05
5.03776e-05
5.83956e-06
-7.66049e-07
2.18868e-05
4.27638e-05
5.13622e-05
5.24547e-05
8.98437e-05
0.000156603
0.000189886
0.000304587
0.00043434
0.000627802
0.00106936
0.00169345
0.0027108
0.00426964
0.00659755
0.0102669
0.0160652
0.0250087
0.0389396
0.0606474
0.0944435
0.147215
0.229342
0.357327
0.556811
0.867955
1.35356
2.11152
3.29514
5.14418
8.03357
12.5502
19.6119
30.6553
47.9279
74.9485
117.224
183.381
286.934
449.074
703.026
1100.96
1724.75
2703.13
4238.38
6649.04
10436.2
16391.5
25761.3
40532.9
63831
100763
159244
253249
403287
653440
1.04666e+06
1.73149e+06
2.70788e+06
8.43376e-07
1.17849e-05
1.15269e-05
-3.39268e-06
4.87931e-05
6.33162e-05
3.72875e-05
4.50832e-05
3.34057e-05
5.78131e-05
1.94464e-05
1.06371e-05
4.43287e-05
5.33459e-05
3.52279e-05
1.64071e-06
-8.79208e-06
-7.82914e-06
9.90465e-06
1.30753e-05
-5.68876e-07
-4.45748e-06
-4.77044e-05
-4.94429e-05
-1.65288e-05
5.26975e-06
5.35528e-06
-5.67614e-06
-5.60853e-05
-6.21961e-05
-1.04447e-05
-1.09814e-06
-2.70853e-05
-4.16941e-05
-6.1977e-05
-6.51738e-05
-4.80996e-05
-1.15444e-05
2.37515e-05
1.32249e-05
-1.57882e-06
1.79174e-05
3.85912e-05
3.75807e-05
9.77678e-05
3.95913e-05
-1.05908e-05
4.75887e-06
7.19737e-05
3.62817e-05
2.07885e-05
1.1127e-05
1.304e-05
4.11781e-06
3.16484e-06
-6.82359e-06
-1.40706e-05
-3.69828e-05
-1.15361e-05
1.05698e-05
-2.7614e-05
-3.35838e-05
-1.47858e-06
1.24848e-05
-3.26401e-06
8.70346e-06
1.49968e-06
-1.29062e-05
4.74923e-05
-1.61091e-05
-7.84322e-06
-7.30484e-06
-6.61247e-06
-1.13226e-05
-3.01346e-05
-2.55383e-05
1.02432e-05
-2.62955e-05
-3.10761e-05
-2.75113e-05
-2.0962e-05
8.72965e-06
1.109e-05
-7.10669e-06
-6.87001e-06
-2.6249e-05
-2.14897e-05
-4.24018e-06
-4.82265e-05
-2.14444e-05
4.41993e-05
1.98944e-05
-1.6177e-05
-5.83241e-05
-3.24348e-06
1.26313e-06
-8.3584e-06
1.44608e-05
-3.0099e-05
-3.37773e-05
-7.63628e-05
-8.6923e-05
-6.31262e-05
-1.79574e-05
-3.59544e-05
-5.58946e-06
-5.87179e-06
3.14957e-05
5.88588e-05
7.00037e-05
6.4211e-05
5.35495e-05
4.04113e-05
2.09091e-05
2.33032e-05
4.15932e-06
4.79529e-05
3.88783e-05
3.3276e-05
-5.73282e-07
2.67411e-05
7.61684e-05
7.01669e-05
3.2644e-05
-1.42729e-05
1.89761e-05
-1.49747e-06
4.91118e-05
7.98891e-06
-1.08632e-05
-4.61986e-05
-6.75663e-05
-3.76359e-05
1.19149e-05
-2.98789e-05
-4.64004e-05
-3.09297e-05
-6.44238e-05
-4.03981e-05
-1.79519e-05
-1.56244e-05
-3.06004e-06
-4.26986e-05
-1.03766e-05
2.10287e-05
-4.426e-05
-2.99238e-05
-1.2145e-05
4.03133e-05
1.91025e-05
6.91512e-07
9.69034e-07
-1.39971e-05
-2.55513e-05
-7.00503e-06
4.94137e-05
5.17427e-05
7.03056e-05
3.83294e-05
3.35275e-05
2.74364e-05
2.08826e-05
1.05579e-05
3.08006e-05
-2.61336e-05
3.35735e-05
7.98947e-05
0.000116357
5.26524e-05
6.43126e-05
8.60897e-06
-3.61608e-05
-1.1456e-05
-5.08653e-05
-3.89782e-05
-2.35499e-05
-4.7766e-05
-3.63064e-05
-5.63618e-05
-3.92201e-05
-4.69799e-05
-9.96733e-06
-2.93121e-05
-1.37298e-05
1.22864e-05
-1.53943e-05
-3.24868e-05
-2.47997e-05
1.10717e-06
3.3375e-05
3.77791e-05
2.6514e-05
3.77562e-05
5.38231e-05
5.55272e-05
6.24726e-06
2.62467e-05
3.7188e-05
2.26308e-05
-1.30088e-05
-6.11329e-05
-3.71747e-05
-2.07562e-05
5.44259e-06
-1.51974e-05
5.58708e-05
3.25799e-05
1.71908e-05
-1.47943e-06
-6.51602e-06
3.1506e-05
-1.49739e-05
-3.55834e-06
-4.02801e-05
-2.47097e-05
1.46301e-06
2.5606e-05
2.64339e-05
3.72999e-05
2.50719e-05
7.76201e-05
3.50172e-05
-4.29875e-06
2.256e-05
-5.59508e-06
-1.93562e-05
3.38292e-06
-1.60347e-05
5.85116e-06
2.27005e-05
-1.37567e-05
-7.00479e-06
-7.71048e-06
3.9663e-05
-7.80811e-06
1.11749e-05
3.03406e-06
1.53033e-05
3.33239e-05
4.6318e-05
1.11841e-05
-6.73409e-07
1.90175e-05
2.85988e-06
1.39625e-06
7.75243e-05
0.000131252
0.000224858
0.000282727
0.000420058
0.000661975
0.00101609
0.0015417
0.00243605
0.00378216
0.00587307
0.00912545
0.0142248
0.022166
0.0344752
0.0535292
0.0833578
0.129748
0.201894
0.314237
0.488991
0.760951
1.18456
1.8445
2.87283
4.47566
6.97466
10.8721
16.9513
26.4353
41.2323
64.3211
100.349
156.574
244.321
381.284
595.093
928.949
1450.37
2265.01
3538.13
5528.7
8641.92
13514.5
21142.2
33102.1
51847.4
81357.4
127658
201341
317151
507896
800018
1.30478e+06
1.99525e+06
-2.04393e-05
-1.68948e-05
1.88768e-05
-4.59174e-05
-4.08089e-05
-5.12154e-06
-9.65677e-06
2.13562e-05
1.81662e-05
4.00991e-06
4.35112e-06
-1.98206e-05
-3.38926e-06
-1.23893e-05
5.92104e-07
5.12355e-06
1.08304e-05
-4.54435e-06
-7.10913e-07
-2.34382e-05
-4.28709e-05
-7.22606e-05
-5.04578e-05
-1.7185e-05
-2.12202e-05
5.41164e-07
9.22888e-06
3.14816e-05
9.22858e-06
-4.12616e-05
-6.84085e-05
-3.41733e-06
-5.36002e-07
-7.68393e-06
-1.91126e-05
-1.77313e-06
-6.13644e-06
-6.8792e-07
3.02117e-05
2.3914e-05
6.61715e-06
2.21223e-06
7.96018e-06
2.01337e-05
3.81713e-05
-2.71967e-06
-3.55347e-05
-1.93203e-05
-1.12662e-05
-2.7436e-05
2.25207e-05
4.23038e-05
3.76375e-05
4.74663e-05
-5.29064e-06
3.54673e-06
1.17271e-05
-6.95634e-06
-1.41973e-05
-3.19405e-05
-7.73842e-05
-5.69829e-05
-3.06208e-05
-4.18049e-06
3.37229e-05
2.38431e-05
2.66321e-05
3.45853e-05
4.07233e-05
3.83373e-05
2.91425e-05
-6.04223e-06
-2.0492e-05
-5.38132e-05
-5.65807e-05
-1.8332e-05
-1.00662e-05
1.6212e-05
-1.68242e-05
-4.86364e-05
1.35441e-05
2.19493e-05
1.17954e-06
-3.70598e-05
-1.72789e-05
-3.98115e-05
-3.42072e-05
-1.21536e-05
-1.43696e-05
-1.49885e-05
-6.05953e-06
5.44523e-06
9.55682e-06
-9.03241e-06
-3.68178e-06
1.97989e-05
4.52653e-05
5.62919e-05
2.05044e-05
3.21717e-05
8.94624e-06
3.61337e-05
8.31915e-06
3.6367e-05
2.52985e-06
-2.65467e-05
-2.38419e-05
-2.45177e-05
-2.2879e-05
2.82992e-05
2.07402e-05
1.52867e-05
5.30948e-06
2.51377e-05
2.88325e-05
1.95706e-05
8.38343e-06
-3.97104e-05
-1.53674e-05
-8.70648e-07
-2.87428e-06
-6.95617e-06
3.61597e-06
3.79492e-05
3.33156e-05
-1.72209e-05
-2.54234e-06
-4.96021e-06
3.52037e-05
4.4716e-05
3.98779e-05
4.12406e-05
1.38647e-05
-2.57353e-05
-3.64521e-06
-1.62446e-05
2.46143e-05
1.69361e-05
-2.63472e-05
-6.62199e-06
-2.3304e-06
-2.63283e-05
-8.89112e-06
-2.14836e-05
-1.28305e-05
1.67049e-05
3.13703e-05
1.95015e-05
6.54635e-05
6.93894e-05
3.9557e-05
2.71679e-05
4.59922e-05
3.23145e-05
-3.79912e-06
7.90367e-05
9.03999e-05
2.77348e-05
7.46907e-06
3.20778e-05
1.27252e-05
2.29977e-05
4.73261e-05
3.24911e-05
6.34719e-06
-2.79526e-05
3.01807e-05
-2.99097e-06
3.27142e-05
2.70693e-05
1.20593e-05
-1.71533e-05
1.13576e-06
4.13695e-05
1.91645e-05
1.98281e-05
3.5427e-05
-1.79819e-05
-2.52453e-05
-5.28473e-06
-1.73154e-05
1.91445e-05
-2.81333e-05
-4.52355e-05
-8e-05
-0.000125818
-0.000122247
-7.16259e-05
-1.91743e-05
-3.53221e-05
1.81992e-05
-8.87948e-06
3.22265e-05
6.00068e-05
1.04957e-05
1.83701e-05
1.79916e-05
9.23547e-07
1.73424e-05
1.95575e-05
1.94504e-06
-3.28135e-05
-1.09447e-05
2.62797e-05
4.42625e-06
-5.86625e-06
-1.31259e-05
8.90144e-06
-3.40046e-05
-4.13246e-05
-3.29136e-05
1.89298e-05
-2.92208e-05
-4.47984e-05
-3.30138e-06
-1.57957e-05
3.25806e-07
-1.95737e-05
1.3163e-05
-1.29091e-05
1.12074e-05
-2.11539e-05
-3.19952e-05
1.79984e-06
3.18091e-05
1.70678e-05
1.42956e-05
-2.61689e-05
9.99142e-06
6.43816e-06
1.14685e-05
-3.42131e-05
-2.08958e-06
2.22132e-05
3.13561e-05
6.73577e-05
1.28018e-05
-1.62837e-05
-1.33459e-05
-2.15314e-05
-1.60874e-05
-1.71124e-05
-8.49755e-06
3.44543e-05
2.87106e-05
5.00873e-05
5.6449e-05
0.000121967
0.000201337
0.000324705
0.000538097
0.000851373
0.00138512
0.00210803
0.00329018
0.0050666
0.00782423
0.0121591
0.0188987
0.0293666
0.0457243
0.0710371
0.110448
0.171702
0.26684
0.414573
0.644189
1.00114
1.55601
2.41879
3.76069
5.84828
9.09647
14.1512
22.0186
34.2643
53.3267
82.9997
129.192
201.097
313.036
487.296
758.607
1181.05
1838.97
2863.76
4460.56
6949.03
10829.4
16880.2
26328.9
41071.1
64166.2
100177
157107
245679
390408
607932
980872
1.47067e+06
-1.20533e-05
2.48753e-05
-4.90861e-06
-5.13185e-06
-1.22039e-05
-6.88846e-06
-1.09564e-05
-1.58795e-07
2.95631e-06
-7.62554e-06
-3.07597e-05
-1.55005e-05
-2.51193e-05
-2.70252e-05
3.81956e-05
-4.91265e-05
7.14337e-07
3.08652e-05
1.3096e-05
-7.58961e-06
-1.55321e-05
-4.24106e-05
8.79564e-06
2.50643e-05
5.22945e-05
4.65842e-05
1.27047e-05
3.25014e-05
-3.47882e-06
2.11573e-05
2.74279e-05
2.45275e-05
-1.12876e-05
1.07198e-05
-3.5335e-05
-4.71652e-05
9.86277e-06
2.39466e-05
2.42091e-05
5.18922e-05
6.74672e-05
3.87608e-05
3.59734e-05
2.51456e-05
1.00658e-05
4.92967e-05
7.8811e-06
-3.64285e-05
-2.2478e-05
-5.70278e-06
1.42158e-05
2.72699e-06
3.39575e-05
-7.03171e-06
-1.63442e-05
-2.06478e-05
3.52963e-05
4.32397e-05
-1.32804e-05
6.24458e-06
7.00142e-05
1.12857e-05
1.63388e-05
-2.19249e-06
4.52191e-05
3.29352e-06
-1.61114e-05
2.90513e-05
2.85191e-05
-2.36478e-05
-2.24527e-05
1.33229e-06
3.37298e-05
2.57509e-05
4.02401e-05
4.43566e-05
2.38285e-05
-7.29442e-06
-2.92413e-05
1.44801e-05
2.15243e-05
2.1691e-05
-9.53245e-06
2.10878e-06
2.60505e-05
3.23207e-07
1.83746e-05
1.75095e-07
-4.3981e-05
-2.91345e-05
-1.57939e-05
1.9284e-05
-1.13888e-05
-5.87854e-05
-3.24076e-05
-6.74626e-06
-7.23956e-07
-9.80921e-06
1.48521e-05
-2.1529e-05
-5.66538e-06
-3.69773e-05
-1.76143e-05
2.07937e-06
1.81145e-05
7.20735e-05
6.19831e-05
6.35357e-05
2.27126e-05
-1.61005e-05
-1.43886e-05
1.39278e-05
4.89789e-05
3.341e-05
2.40952e-05
1.87079e-06
-2.20255e-05
-2.98999e-05
-7.83558e-05
-7.99915e-07
4.0402e-05
3.61727e-05
2.05706e-05
-1.0718e-05
3.09182e-05
1.34103e-05
2.54347e-05
1.9475e-05
1.24981e-05
4.51522e-05
4.16244e-05
3.62667e-05
7.19927e-06
-1.08469e-06
2.73359e-05
-1.56412e-05
-8.19245e-06
4.02839e-06
4.37949e-05
-2.41079e-06
1.50644e-06
1.27419e-06
-7.61509e-06
-1.3251e-05
-1.33477e-05
-3.57267e-05
-6.16039e-05
-4.34871e-05
-3.45516e-05
5.42615e-06
-6.66208e-05
-5.42423e-05
-4.51504e-05
-5.9973e-05
-5.4195e-05
-1.91411e-05
1.81813e-05
-1.32201e-05
-2.22643e-05
-2.32934e-05
-4.6379e-05
-1.94686e-05
-2.99239e-05
-3.87192e-05
-3.89008e-05
1.30143e-05
5.08164e-05
4.61221e-05
1.65394e-05
1.03479e-06
8.33245e-06
2.22626e-05
-2.67311e-06
-7.02959e-06
-2.30381e-05
2.01504e-05
1.98354e-05
2.44045e-05
-1.73553e-06
-2.76433e-06
-1.01064e-05
3.02963e-05
-2.06054e-05
-1.42474e-05
-7.97815e-06
-4.18505e-06
3.35543e-06
-2.33684e-05
-3.14224e-05
-7.71157e-05
-4.39277e-05
-6.09663e-05
-5.15705e-05
-2.28179e-05
-4.48921e-06
-6.55266e-06
-5.91274e-05
-7.08671e-05
-4.84043e-06
-2.71867e-05
-3.82782e-05
-3.74427e-05
-1.39915e-05
-1.47744e-05
-3.95738e-05
6.61608e-06
-2.30345e-05
-1.75444e-05
-1.17382e-05
1.16576e-05
-1.53165e-05
-4.37206e-05
-4.56073e-06
-7.19039e-06
-1.24538e-05
-2.49999e-05
-2.22099e-05
-2.40256e-06
-3.62894e-06
-3.90724e-05
2.36163e-05
4.04265e-05
2.98384e-05
2.09388e-05
3.10164e-05
2.77655e-05
-1.16224e-05
-2.03114e-05
-6.72344e-06
4.12393e-05
4.58271e-06
-1.06464e-05
7.82486e-06
3.34668e-06
-1.98356e-05
-7.44787e-06
4.48397e-07
-4.13635e-06
1.08861e-05
6.37385e-05
5.09189e-05
2.13912e-05
3.10428e-05
2.07266e-05
3.56887e-05
5.94236e-05
6.95958e-05
0.000158173
0.000195898
0.000303566
0.000442047
0.000704432
0.00109568
0.00168952
0.00265372
0.00412294
0.0064332
0.0100313
0.0156385
0.0242095
0.0376479
0.0585618
0.091017
0.141355
0.219429
0.340639
0.52865
0.82029
1.273
1.97561
3.0663
4.75966
7.38907
11.4724
17.8146
27.6654
42.9675
66.7373
103.662
161.02
250.119
388.521
603.519
937.503
1456.39
2262.61
3515.57
5462.96
8491.26
13199.7
20530.4
31930.8
49730.2
77366.5
120867
188090
297358
459466
735541
1.08575e+06
4.14316e-05
2.87077e-05
2.94219e-05
5.70937e-05
6.82368e-07
-1.10637e-05
-3.37719e-05
-7.36225e-06
-7.30907e-06
3.6498e-05
1.28111e-05
8.62844e-06
1.75361e-05
5.64736e-06
1.20567e-05
-2.26623e-05
1.21298e-05
4.23864e-05
3.47505e-05
6.37785e-05
6.50969e-05
8.62242e-05
7.18427e-05
5.82692e-05
4.12175e-05
2.8315e-05
7.24363e-06
1.3948e-05
2.30189e-05
2.79127e-05
1.38751e-05
-9.39979e-06
4.36943e-05
3.61126e-05
1.04034e-05
1.87913e-05
3.98688e-05
1.64662e-05
3.90043e-05
4.08322e-05
1.82555e-05
1.28698e-05
-1.85133e-05
-1.09604e-05
-7.18576e-07
3.38909e-06
-1.61622e-05
2.29855e-06
-1.18924e-05
-1.3335e-05
5.8253e-06
1.29829e-05
4.90705e-05
6.75662e-05
1.80864e-05
6.08954e-05
6.4482e-06
-1.38781e-05
7.80357e-06
-2.24384e-05
-2.40499e-05
-1.64987e-05
-7.12066e-06
-2.03528e-05
-2.92329e-05
-1.96676e-05
-1.39833e-05
-9.54588e-06
-1.50669e-05
1.36832e-05
3.47515e-05
1.44627e-05
1.85613e-05
-6.31653e-06
1.30816e-05
-2.68162e-05
-2.86948e-05
-1.96333e-05
1.1934e-05
-2.95204e-05
-2.59989e-05
2.78879e-06
2.19721e-05
1.69396e-05
-5.58635e-06
2.67744e-05
5.2344e-05
0.000104353
4.36436e-05
2.1489e-05
1.09758e-05
-2.96857e-05
-2.87169e-06
-9.77848e-06
2.53591e-07
8.52104e-06
2.05912e-05
2.85497e-05
2.25642e-05
1.21386e-05
-1.95103e-05
-2.51562e-05
-2.34727e-05
-3.05516e-06
-1.73274e-05
1.67587e-05
-3.17519e-06
2.98466e-05
4.99875e-05
5.13714e-05
-7.00842e-06
-1.90517e-05
-1.05953e-05
-3.06367e-05
-1.44978e-05
-8.70374e-06
-1.28903e-06
-6.97133e-06
-3.64142e-05
-1.00638e-05
-2.00399e-05
-3.73582e-05
-6.67294e-05
-3.48652e-05
-1.81856e-05
-2.10808e-05
-8.71898e-06
6.42006e-06
4.43797e-06
-2.0239e-05
2.44746e-05
1.75114e-05
-4.04111e-06
-4.81334e-05
-8.90839e-07
2.80266e-05
3.21145e-05
-1.2128e-05
-3.20766e-05
-5.7163e-05
-3.89879e-05
-5.47319e-05
-6.05337e-05
-4.79801e-05
-8.86521e-05
-2.99061e-05
-4.74523e-05
-1.0063e-05
1.28303e-05
2.37781e-05
4.05502e-06
-6.53217e-06
-3.81152e-05
-2.27592e-05
1.34994e-05
-7.27806e-06
-1.87384e-06
2.32156e-05
1.91646e-05
2.56542e-05
1.84011e-05
5.29058e-05
4.96526e-05
2.17848e-05
4.29356e-05
9.69102e-06
4.36972e-05
5.85465e-05
3.32423e-06
2.87954e-05
2.72213e-05
1.07715e-05
2.50257e-05
2.13152e-05
-4.72173e-06
9.78421e-06
1.74155e-05
4.58913e-05
1.78162e-05
2.32453e-05
-9.1714e-06
-4.73568e-05
-3.25096e-05
-1.68884e-05
-7.2254e-05
-2.8057e-05
-2.75422e-05
2.25964e-05
-2.09325e-05
-4.5821e-05
-2.2647e-05
-3.09669e-08
-8.59162e-06
-2.52047e-05
-6.54795e-06
-5.70981e-06
1.0598e-05
7.26326e-06
2.73899e-06
1.10056e-05
1.72761e-05
2.91569e-05
3.26204e-05
4.6949e-06
-3.05029e-05
5.99936e-06
1.86529e-05
-4.72629e-05
1.68347e-05
-1.26072e-05
-2.37081e-05
5.25832e-05
1.7109e-05
-1.02603e-05
-5.5955e-07
-5.30274e-05
8.86284e-06
5.37747e-05
2.98466e-05
-1.41937e-05
7.93833e-06
3.41092e-05
1.48878e-06
3.81073e-06
-9.83214e-07
-6.27211e-06
-4.06974e-05
-6.34846e-05
4.99614e-06
2.14636e-05
1.40581e-05
3.24869e-05
2.72512e-05
3.56267e-05
3.73666e-05
6.46628e-05
2.89717e-05
3.29887e-05
6.04959e-05
2.9304e-05
3.34167e-05
1.10388e-05
4.23621e-05
5.15075e-05
3.38061e-05
7.58281e-05
7.70484e-05
9.84664e-05
0.000133392
0.000235832
0.000324969
0.00052917
0.000836329
0.00137313
0.00212781
0.00330255
0.00512991
0.00804638
0.0125285
0.0194164
0.0301708
0.0468957
0.0728115
0.113001
0.175367
0.271927
0.421699
0.653746
1.01346
1.57096
2.43502
3.77438
5.8508
9.06999
14.0615
21.8013
33.8038
52.4166
81.2822
126.047
195.471
303.134
470.107
729.058
1130.69
1753.65
2720.07
4219.35
6546.39
10157.4
15767.9
24474.1
38035.7
59033.7
91989.1
142695
224827
345616
550250
802943
2.48777e-05
1.92221e-05
3.24764e-06
2.77776e-05
-4.16401e-05
-4.50358e-05
2.40249e-05
9.27832e-06
-2.23479e-05
-3.45161e-05
-4.28264e-05
8.50304e-06
-1.15608e-05
-2.34793e-05
-4.10115e-06
8.41707e-06
-5.71734e-05
-2.25093e-05
-1.32459e-05
1.47405e-05
1.70007e-05
1.9313e-05
2.27823e-05
1.51371e-05
-2.94455e-05
-5.20624e-05
-4.1953e-05
-3.8401e-05
-6.38017e-05
-7.03836e-05
-5.06635e-05
-5.82726e-05
-3.75457e-05
4.36912e-05
4.38727e-05
6.14905e-05
6.57826e-05
3.8228e-06
1.95603e-06
-2.77895e-05
2.09793e-05
4.71099e-05
5.45658e-05
2.77816e-05
2.93603e-05
-1.66955e-05
1.21482e-05
1.45477e-05
1.70492e-05
2.91076e-05
-3.8004e-05
-4.7003e-05
-4.23382e-05
-1.67777e-05
-2.94289e-05
-1.9647e-05
-2.5913e-05
-8.37645e-05
-3.93362e-05
-1.80132e-05
-6.28773e-05
-6.36763e-05
-5.33487e-05
-3.0194e-05
1.0379e-05
1.17933e-05
6.43458e-06
-1.28405e-05
-2.23948e-05
1.77103e-05
2.14208e-05
1.65043e-05
-9.88736e-06
-2.1802e-05
-1.17648e-05
-4.60252e-06
-3.69934e-06
-3.72869e-05
2.94802e-05
2.22254e-05
1.51835e-05
1.56996e-05
1.7963e-05
-1.71082e-05
-1.39733e-05
-3.72765e-05
-3.73338e-05
-2.84656e-05
-4.96126e-05
-1.63632e-05
3.83965e-05
2.72661e-05
2.53181e-05
5.22815e-05
2.1218e-05
1.20863e-05
-7.50566e-06
-4.28809e-05
8.77046e-07
-2.51567e-05
-9.25096e-06
-1.18896e-05
2.63139e-05
2.21565e-05
3.35353e-05
4.98673e-05
5.35236e-05
2.60613e-05
1.49794e-05
2.2201e-05
3.04113e-05
-1.77444e-05
-9.49585e-06
1.87901e-05
7.58319e-05
2.43872e-05
-1.32347e-05
1.02797e-05
3.16429e-05
4.01504e-05
-9.71977e-06
-2.67112e-05
-2.57217e-05
-5.35929e-05
-2.12587e-05
-5.55439e-05
-6.19037e-05
-6.10132e-05
-2.86673e-05
-5.45972e-05
-6.46245e-05
-4.66308e-05
-4.34659e-05
-2.69092e-05
7.83004e-06
2.66992e-05
1.31607e-05
-4.48809e-05
-1.82169e-05
1.17997e-05
-1.31995e-05
3.66319e-05
4.46351e-05
-1.60077e-05
-2.70738e-05
-2.30194e-05
-4.9645e-05
-1.40833e-05
-1.68567e-05
-2.23086e-05
-2.7536e-05
-4.79272e-05
-2.64385e-05
-3.48521e-05
-7.98357e-06
2.54976e-05
2.18107e-05
-7.86038e-06
2.20446e-05
-3.13525e-05
-1.91329e-05
3.76545e-05
4.01156e-05
5.44877e-06
-4.99715e-06
1.70047e-05
8.51198e-06
3.96937e-05
5.35994e-05
5.19934e-06
-4.1854e-07
-3.08162e-05
2.36354e-05
1.18581e-05
1.28747e-05
-1.78931e-05
-8.46508e-05
-8.71533e-05
-8.99558e-05
-5.61925e-05
-1.7674e-05
-1.15653e-05
-3.34325e-06
-3.12032e-05
-2.0805e-05
2.79553e-05
7.40191e-05
2.94815e-05
3.85571e-06
5.50269e-05
3.41435e-05
3.1693e-06
3.59096e-05
1.61302e-05
1.47859e-06
-2.02825e-05
-6.67245e-06
-5.2773e-05
-5.26515e-05
-2.54591e-05
-3.82741e-05
-1.6241e-05
-3.81799e-05
-1.61665e-05
1.1269e-05
2.04441e-05
5.03594e-05
2.66078e-05
6.27045e-06
1.79367e-05
9.82825e-06
1.06758e-06
3.39978e-06
1.89674e-05
7.0548e-06
4.20115e-05
6.10875e-05
3.43391e-05
2.22537e-05
7.29124e-06
2.58802e-06
-2.01658e-05
2.1764e-05
2.92616e-05
5.3257e-05
2.33287e-05
1.16337e-05
1.25077e-05
4.83089e-05
2.42522e-05
1.42346e-05
-6.37251e-06
3.01423e-08
5.14713e-08
6.49761e-07
1.7618e-05
-1.60161e-05
6.71637e-06
2.07335e-05
1.13575e-05
3.10102e-05
3.60102e-05
6.73754e-06
2.57258e-05
4.77049e-05
6.89142e-05
0.000114308
9.38993e-05
7.98843e-05
0.000196736
0.000297533
0.000395939
0.000634664
0.00104428
0.00162191
0.00256151
0.00397009
0.00620515
0.00966207
0.0150724
0.0234281
0.0363945
0.0565928
0.0878372
0.13627
0.211389
0.327764
0.50795
0.786997
1.21912
1.88828
2.92439
4.52888
7.01354
10.8615
16.8209
26.0511
40.3473
62.4917
96.7928
149.927
232.235
359.743
557.271
863.302
1337.44
2072.17
3210.7
4975.72
7711.19
11955.9
18533.4
28764.2
44576.7
69346.9
107352
168769
258576
410143
593699
-2.16924e-05
5.78794e-06
1.6991e-05
-2.80436e-05
-1.7593e-06
-1.97417e-05
-5.10248e-05
-1.47975e-05
-4.54481e-05
-5.35175e-05
-5.02135e-05
-3.73548e-05
-4.40606e-05
-3.07681e-05
3.43188e-06
3.06371e-05
4.05143e-07
2.15595e-05
3.83067e-06
4.05523e-05
6.8763e-05
4.51331e-05
-9.96515e-06
-3.05298e-06
-5.84863e-05
-3.80563e-05
7.28626e-06
-2.04335e-05
3.25557e-05
2.21669e-05
3.5151e-05
3.76555e-05
7.65727e-05
7.64416e-05
6.52939e-05
2.7227e-05
3.30026e-05
3.10647e-05
2.03083e-05
2.91236e-05
-6.70874e-06
-4.51976e-05
-5.4983e-05
-4.67555e-05
-5.74581e-06
-1.22142e-05
-1.83019e-05
-3.88094e-05
-3.55146e-05
3.84406e-05
2.46026e-05
-2.35478e-06
-2.20017e-05
-5.60108e-06
-3.57389e-05
-3.08247e-06
2.18e-05
2.93851e-05
-1.2552e-05
2.28654e-05
-1.05886e-06
-2.95902e-06
-1.9521e-05
-6.83244e-05
-5.34172e-05
-5.79554e-05
-1.94779e-05