/*--------------------------------*- C++ -*----------------------------------*\
| =========                 |                                                 |
| \\      /  F ield         | OpenFOAM: The Open Source CFD Toolbox           |
|  \\    /   O peration     | Version:  2412                                  |
|   \\  /    A nd           | Website:  www.openfoam.com                      |
|    \\/     M anipulation  |                                                 |
\*---------------------------------------------------------------------------*/
FoamFile
{
    version     2.0;
    format      ascii;
    arch        "LSB;label=32;scalar=64";
    class       volScalarField;
    location    "0.0005";
    object      ddt0(rho,K);
}
// * * * * * * * * * * * * * * * * * * * * * * * * * * * * * * * * * * * * * //

dimensions      [1 -1 -3 0 0 0 0];

internalField   nonuniform List<scalar> 
180000
(
-9.09076e-06
1.02079e-05
-9.88389e-06
-3.63238e-05
-4.43842e-06
5.1085e-05
1.9468e-05
-1.31055e-05
1.01095e-05
-2.62616e-05
-1.19013e-05
-3.43363e-06
-2.1734e-06
-2.0634e-05
2.61608e-05
2.51042e-05
-1.15011e-05
-4.93487e-06
-6.43243e-07
3.23108e-05
1.32569e-05
2.2641e-05
1.60401e-05
1.46793e-05
-9.33721e-06
-7.53023e-07
-9.673e-06
2.95163e-05
3.74347e-05
1.79682e-05
1.25287e-05
2.91543e-05
8.28637e-06
-4.94535e-05
9.92881e-07
2.50632e-05
-3.19797e-05
2.23536e-06
-2.54234e-05
-3.06062e-05
-9.25066e-06
7.35888e-06
4.95018e-05
6.81885e-05
1.63163e-05
-1.90691e-05
2.99097e-05
4.82324e-05
-7.6373e-06
-4.02111e-06
-2.93445e-05
3.67498e-05
-2.05942e-05
3.52274e-05
4.56005e-05
-2.22262e-05
-2.0324e-05
-4.74006e-05
5.13747e-06
1.5827e-05
4.02799e-05
4.41337e-05
2.53091e-06
-7.62653e-06
-6.32098e-06
2.55707e-05
-1.534e-06
8.68862e-06
-4.07449e-05
2.43855e-05
2.31766e-05
-3.5506e-06
-1.15139e-05
4.45734e-05
1.69226e-05
3.50091e-05
6.99055e-06
8.45599e-06
1.62886e-05
5.05733e-05
1.94905e-05
3.4173e-05
2.1008e-05
-2.36606e-05
-1.72666e-05
-2.60356e-05
1.2505e-05
-6.91721e-06
1.80031e-05
-4.73791e-07
3.68963e-05
1.88354e-05
1.63264e-05
2.43535e-05
1.80123e-05
4.7589e-05
-7.78055e-06
1.18078e-05
-8.59371e-06
2.587e-06
5.28448e-05
7.0166e-06
-4.25265e-05
4.52403e-05
8.47302e-05
7.16417e-05
3.41527e-05
-1.25134e-06
5.88315e-05
3.55273e-05
3.37884e-05
9.85126e-06
1.97424e-05
6.98726e-05
3.4919e-05
6.12099e-06
2.05353e-05
-3.1933e-05
1.36836e-05
5.05265e-05
-2.67059e-05
-4.12136e-06
2.31777e-05
3.76881e-05
-1.79346e-06
1.25676e-05
6.78458e-05
5.95472e-05
-3.35464e-06
-1.03145e-05
-1.68488e-05
-2.54839e-06
1.25347e-05
1.53612e-05
-6.6736e-06
2.17059e-05
6.67609e-06
-2.5075e-05
2.07296e-07
2.79755e-05
3.49279e-05
3.00808e-05
1.72949e-05
2.43844e-05
9.48734e-06
3.27901e-05
1.05499e-05
-1.2225e-05
-1.26901e-05
-3.80068e-05
-2.36185e-05
-5.30029e-07
-3.26627e-05
-1.64055e-05
-1.45554e-05
7.27433e-06
3.10934e-06
3.56536e-06
1.48667e-05
1.85794e-06
3.60944e-05
2.2256e-05
2.15937e-05
6.29137e-05
-1.09723e-05
-2.97714e-05
6.06202e-05
1.96138e-05
-1.34449e-05
-2.19369e-05
-5.30941e-05
3.72911e-06
2.89081e-05
8.68254e-06
-1.48477e-05
-3.48251e-05
4.55479e-05
3.89756e-05
3.47298e-05
1.45471e-05
4.65251e-05
5.96953e-05
1.11642e-05
6.95264e-06
3.36906e-05
3.39757e-05
-1.43856e-05
1.20693e-05
6.72626e-05
2.34277e-05
-7.51438e-06
1.08087e-05
1.891e-05
2.27929e-05
5.88402e-05
2.54501e-05
-4.18394e-05
5.4631e-05
-2.68629e-05
8.06494e-06
3.19204e-05
1.1782e-05
4.01506e-05
4.09391e-05
3.58149e-05
5.13094e-05
-7.75604e-06
6.60932e-05
-5.552e-06
1.33783e-05
6.926e-06
2.77567e-05
1.44798e-05
-3.65369e-05
2.35014e-05
4.96178e-05
2.29682e-05
6.734e-06
4.39899e-05
-1.46598e-05
-4.00072e-05
4.99643e-05
0.000103893
6.1854e-05
2.50185e-05
-6.86484e-06
2.76865e-05
-3.98647e-05
8.87001e-06
-1.49681e-05
-4.34923e-05
5.55406e-06
1.00044e-05
1.27462e-05
2.32871e-05
3.08535e-05
5.40181e-05
4.38665e-07
-2.00686e-05
8.67607e-06
4.82114e-05
-1.44e-05
-8.05748e-06
1.29401e-06
-2.15832e-05
4.68678e-05
-1.40359e-05
-3.61221e-05
-4.4262e-06
8.17665e-05
0.000158266
0.000180638
0.000422363
0.000779041
0.00126721
0.00225521
0.00399839
0.00722259
0.0123592
0.0205918
0.037986
0.0655411
0.101519
0.180869
0.337993
0.492854
0.760924
1.58791
2.51455
2.96274
6.07659
12.5521
13.4295
17.449
50.8832
73.3829
47.2766
136.449
349.884
260.992
170.859
1070.64
1652.72
401.095
1337.64
5993.55
4937.9
-60.3496
8913.15
21078.9
7354.23
-3009.01
18137.5
3165.13
-109657
-293700
-762328
-1.88362e+06
-4.70091e+06
-8.91793e+06
1.75401e-06
-3.23561e-06
4.7232e-06
1.80604e-05
-2.81529e-05
-2.51535e-05
3.63858e-05
2.57792e-05
-1.13776e-05
-5.72796e-06
-5.88766e-05
1.48895e-05
-1.66863e-05
-9.09798e-06
-3.73643e-06
2.3571e-05
8.8293e-07
4.24131e-06
-1.49618e-05
-1.10375e-05
-4.08723e-06
1.7655e-06
5.16572e-05
1.18725e-05
6.31931e-06
3.30551e-05
2.31386e-06
-1.47798e-07
-2.08618e-05
-8.55292e-06
-8.251e-06
-2.20264e-06
-1.92888e-05
1.49692e-05
9.9964e-06
2.88077e-05
-1.64686e-05
9.03442e-06
1.82046e-05
-2.88342e-05
-5.66669e-06
5.90997e-05
5.0619e-06
-1.07189e-05
-2.4813e-05
-5.3195e-05
-1.78485e-05
1.084e-06
-2.42858e-06
1.89204e-05
-2.61174e-05
1.14065e-05
3.51964e-05
-1.61434e-05
5.02466e-05
-1.11792e-05
-3.47339e-05
-3.03995e-05
-4.96205e-05
-3.69592e-05
1.12254e-05
-2.14787e-05
2.02774e-05
1.92268e-05
-1.89964e-05
3.04868e-05
2.45399e-05
1.41281e-05
-1.53277e-05
-1.40739e-05
3.61468e-06
-6.80863e-06
-2.06873e-06
1.42255e-05
-1.99852e-05
-3.41345e-05
-2.31601e-05
-5.27663e-06
3.69696e-05
1.24963e-06
-4.07095e-05
-4.30899e-05
-1.67455e-05
-1.58743e-06
7.29867e-05
-5.47877e-06
-4.15781e-05
-2.32235e-05
-3.07348e-05
-2.88328e-06
2.92593e-05
-1.80172e-05
-1.21407e-05
-9.13227e-06
1.26366e-05
-2.19285e-05
4.88594e-06
-3.63584e-05
-4.10796e-05
-6.56291e-05
-2.81029e-05
2.0374e-05
-4.34197e-06
-3.62963e-05
-1.62449e-05
-4.57947e-05
3.75786e-06
2.02938e-05
-2.35315e-05
-4.57265e-06
6.5248e-05
-2.27451e-05
-9.07311e-06
-3.8393e-05
-2.75092e-07
4.37969e-06
-1.18443e-05
3.83014e-05
1.13904e-05
-6.06469e-05
-9.05152e-06
1.58836e-05
2.0334e-05
4.48315e-05
-4.46424e-05
-3.49456e-05
1.37446e-05
-1.01594e-05
3.38767e-06
-2.82071e-05
1.27018e-05
1.11556e-05
4.26078e-05
3.24033e-05
-4.83234e-05
-2.52926e-05
-1.41579e-05
2.56328e-05
-3.3843e-06
4.43183e-05
-2.95245e-05
-4.62674e-05
1.91077e-06
2.28966e-05
-5.86908e-05
-8.15797e-05
-7.55004e-06
-5.12552e-05
-6.7268e-05
5.49031e-06
-3.4264e-05
-6.03096e-05
-2.03108e-06
2.96063e-05
2.10272e-05
3.73919e-05
-2.66383e-05
-5.99264e-06
4.00423e-06
-1.44305e-05
-3.43745e-05
-7.65354e-06
-8.43266e-06
1.12775e-05
-1.01328e-05
5.54272e-06
1.80716e-05
-2.1449e-05
-1.77073e-05
2.60365e-05
1.95298e-06
-5.039e-05
4.80058e-06
-4.7035e-05
1.58621e-05
1.86333e-05
-2.64659e-06
3.59409e-05
4.31993e-05
2.12047e-05
-1.2809e-05
7.72886e-06
-3.64688e-05
-4.28033e-06
8.44828e-06
-3.16843e-05
-4.99776e-05
-1.08069e-06
-1.36581e-05
-2.64998e-05
-2.50853e-05
1.90076e-06
-1.2109e-07
-2.01751e-05
3.95846e-05
4.40982e-05
4.97208e-06
-2.67243e-05
-1.04218e-05
3.92472e-05
-5.10922e-05
-2.42333e-05
3.21702e-05
3.24817e-05
1.63568e-05
2.27586e-05
3.20364e-05
3.89785e-05
6.92712e-05
-1.41831e-05
4.13865e-05
2.90726e-07
-1.66355e-05
3.58384e-05
-1.77174e-05
-1.85254e-05
6.29596e-05
2.34831e-06
4.39701e-05
4.03645e-05
4.09729e-05
5.24956e-05
3.36053e-05
-3.27438e-06
-1.57099e-05
1.0769e-05
3.22474e-05
-2.48554e-05
1.33614e-05
1.00606e-05
-3.50768e-05
-1.93944e-05
-3.80389e-05
-2.64562e-05
-3.517e-05
2.17741e-05
-7.48631e-06
3.33164e-05
1.03911e-05
-4.53121e-06
3.10415e-05
-5.96974e-05
1.57224e-05
-9.12255e-06
9.67241e-06
3.08715e-05
4.70151e-05
1.93964e-05
3.13001e-05
-1.23734e-05
0.000132111
0.000164486
0.000325966
0.000640622
0.00109576
0.00203659
0.00356104
0.00641049
0.0113409
0.0195209
0.0336962
0.0587285
0.100535
0.167058
0.286386
0.490608
0.796222
1.29941
2.24134
3.65546
5.60008
9.34226
15.8917
23.7252
35.6508
62.1972
98.5075
134.071
211.133
370.779
520.832
681.654
1153.17
1897.65
2378.55
3215.75
5531.65
8199.43
9678.34
13569.6
21481
27811
28479.3
29529.7
13701.5
-59695.2
-292300
-813609
-2.17946e+06
-4.40814e+06
1.07583e-05
1.20053e-05
1.71545e-05
-1.63963e-05
-1.7727e-05
4.90836e-07
2.34043e-05
1.0188e-05
-4.44318e-06
-3.34149e-05
-1.18322e-06
1.80298e-05
-9.51522e-07
6.24403e-05
1.37048e-05
7.24058e-06
1.03058e-05
5.9874e-06
1.62599e-06
3.48722e-05
-6.82871e-06
-3.95832e-05
4.17113e-05
1.96029e-05
3.18724e-06
1.40756e-05
7.01967e-06
-1.21725e-05
-1.18294e-05
-3.34162e-07
2.8292e-05
4.78646e-05
-3.72649e-05
-2.88942e-05
-2.57337e-05
-4.15254e-05
-1.96141e-05
-4.45915e-05
-7.90489e-06
4.22739e-05
-2.80705e-05
-8.51327e-06
-7.14482e-06
-5.78909e-05
-6.66284e-06
2.31512e-05
1.56229e-05
4.22866e-05
3.57125e-05
1.06784e-05
-8.18056e-06
2.57364e-05
1.93657e-05
-7.93117e-06
-7.87753e-05
1.68054e-05
7.68159e-06
-2.22975e-05
-1.01062e-06
5.3139e-05
1.24937e-05
-1.83602e-05
-1.26256e-05
5.38454e-06
6.23717e-06
2.51527e-05
8.02041e-05
3.46647e-05
2.28643e-05
3.14068e-05
-1.01858e-05
2.84261e-05
8.43886e-06
-3.14423e-05
-3.65096e-05
2.22012e-05
-1.40283e-05
-3.10545e-05
-4.20349e-05
-6.0122e-05
-1.21526e-05
-3.13145e-05
-1.6212e-05
-2.38659e-05
3.08514e-06
-3.62481e-05
-5.33431e-05
-9.87931e-06
2.23122e-05
-2.56821e-05
-4.35899e-05
-4.55615e-05
-2.88102e-06
-3.24519e-05
1.01224e-06
5.32986e-05
-1.32827e-05
2.07523e-05
3.37511e-05
9.96593e-06
-1.61923e-05
-3.9453e-05
-3.89205e-05
-2.46753e-05
-9.8701e-06
-6.20434e-06
-5.19659e-06
3.14244e-05
-6.1242e-05
-3.07002e-05
-4.82003e-06
-3.0921e-06
-1.68522e-05
1.28299e-05
-4.03676e-06
-2.37356e-05
1.77424e-05
-2.7621e-05
-2.98696e-05
-4.8721e-06
-6.31985e-06
-4.50846e-05
2.73489e-05
2.64998e-05
-7.28629e-05
1.28677e-05
6.49127e-05
7.69252e-05
5.8477e-05
3.43645e-06
-2.59011e-05
6.3264e-05
-3.89956e-05
-3.94007e-05
-1.83326e-05
1.9592e-05
2.64153e-06
-3.52167e-05
-3.48654e-05
-1.13677e-05
-8.11448e-05
3.55658e-05
-7.86865e-05
-3.59217e-06
4.89758e-05
3.70125e-06
3.88234e-05
1.94259e-05
3.98257e-05
5.84234e-06
-3.92121e-05
-7.99711e-06
-1.46758e-06
1.17833e-06
-2.94079e-05
-2.97438e-05
3.37963e-06
7.21909e-06
-3.35065e-05
1.97466e-05
-1.15427e-05
-2.3048e-05
2.53325e-06
1.09858e-05
2.8167e-05
2.36478e-05
-1.73749e-06
-3.16831e-05
-7.71616e-05
-2.74621e-05
2.38665e-05
-8.5844e-06
1.49366e-05
3.55497e-05
-1.5889e-05
-3.42175e-05
-5.04098e-05
-4.62826e-05
-4.85146e-05
-2.83074e-05
-3.08633e-05
-9.4823e-06
-3.10664e-05
2.36349e-05
1.4852e-05
-7.85563e-05
1.21513e-05
-2.5496e-05
4.24142e-05
1.0347e-05
1.85833e-05
4.11771e-05
2.11478e-05
-1.36114e-05
-3.54461e-05
-4.94422e-05
-4.8873e-06
8.05641e-06
-2.31083e-06
-1.6152e-06
4.15416e-05
-2.87601e-05
1.09691e-05
4.8074e-05
7.56872e-05
6.00312e-05
3.60889e-05
2.74082e-05
2.1065e-06
-5.49995e-05
1.12136e-05
1.73425e-06
1.34917e-05
2.99683e-05
-3.97359e-06
2.42116e-05
9.06291e-06
-4.81617e-05
-5.61457e-06
9.7202e-05
5.71595e-06
1.91756e-05
-5.98394e-06
2.37286e-06
-7.89963e-06
-2.55343e-05
-2.70449e-05
-2.90344e-05
1.25183e-05
1.46006e-05
4.27752e-05
1.97679e-05
1.97137e-05
-8.77994e-05
-3.33323e-05
3.35573e-05
-4.20967e-05
-2.19297e-05
-3.11173e-05
6.37126e-06
-2.7683e-05
-8.72275e-05
7.16682e-06
-9.70692e-06
-1.13965e-07
4.68579e-05
3.55157e-05
-2.64191e-05
1.42884e-05
7.66832e-05
7.17189e-05
0.000183398
0.000274509
0.000496095
0.000956797
0.00168775
0.00301008
0.00531868
0.00926918
0.0162509
0.0283746
0.0488508
0.0842089
0.143715
0.24411
0.411258
0.692724
1.1537
1.90794
3.14802
5.17543
8.38669
13.5206
21.8768
34.9549
55.0474
86.8051
137.449
212.598
326.237
504.106
777.783
1164.81
1749.59
2644.94
3968.48
5782.32
8521.07
12549.8
18303.2
25907.7
36923.6
51224.4
68849.4
82434.9
86424.4
26467.4
-134885
-761502
-1.58332e+06
6.27618e-06
1.30841e-05
4.31954e-05
-2.58845e-06
-1.12309e-06
7.2325e-07
2.51032e-05
-1.22705e-05
-8.26788e-06
-2.65565e-05
1.65286e-05
-2.55779e-05
-7.5413e-06
5.05695e-06
1.1824e-05
1.46589e-05
3.33304e-05
3.33576e-05
6.07945e-05
8.11402e-07
-3.51751e-05
-1.08566e-05
-3.211e-05
-4.834e-05
1.03325e-05
4.69843e-05
4.20401e-05
2.79549e-05
2.51598e-05
7.7859e-06
3.17175e-06
-2.93289e-05
-6.33415e-06
1.87278e-05
-3.53711e-05
-4.95159e-05
-3.38064e-06
-6.75715e-05
4.65026e-05
4.45515e-05
1.67257e-05
-7.2621e-07
2.33947e-05
8.79471e-06
-4.57914e-05
-6.73864e-06
-1.02391e-05
-3.59385e-05
-2.33242e-05
-1.52509e-05
4.51311e-05
8.80355e-05
-7.30079e-07
-2.13738e-06
2.5328e-05
-1.99971e-05
-3.62935e-05
-1.38948e-05
-4.91881e-05
2.91709e-06
-2.71896e-05
-3.97929e-05
-3.74848e-05
4.03788e-06
-7.54293e-05
-4.41877e-05
-2.46807e-05
3.21442e-06
1.28729e-05
1.54173e-05
6.58811e-05
-1.46405e-06
-1.8349e-05
-8.38014e-06
2.95914e-05
5.23795e-05
2.32682e-05
-7.89775e-06
3.47528e-05
1.42877e-05
-3.4412e-06
8.37637e-06
-9.00315e-06
-3.32491e-05
2.91118e-05
-1.35463e-05
-1.31214e-05
3.71e-06
1.4665e-05
6.26158e-05
-3.68574e-05
-9.43388e-06
1.20473e-05
-3.34715e-05
-4.34461e-05
-2.8207e-05
-9.80601e-06
-5.1188e-05
2.93179e-06
-2.43285e-06
-3.07893e-05
-6.35352e-06
2.74301e-05
5.10746e-05
3.6032e-05
-3.68344e-05
-1.07762e-05
-4.60208e-06
-4.10607e-05
-7.7123e-06
6.68491e-05
3.18973e-05
-2.64593e-05
-4.61024e-06
-2.34994e-05
-3.55201e-05
-4.49851e-05
1.37439e-05
9.93365e-07
-4.15905e-05
3.60654e-05
1.69934e-05
2.16968e-05
-1.40478e-05
-1.04492e-05
-6.52348e-05
5.07994e-07
5.45951e-05
-8.26233e-05
-1.38147e-05
8.59706e-06
1.08188e-07
7.92203e-06
1.76576e-05
-3.17227e-05
-6.12645e-05
-2.69901e-05
-1.42875e-05
-5.30263e-06
-2.37558e-05
-1.23226e-05
-6.81259e-06
3.71835e-06
-1.79348e-06
-3.4541e-06
-3.83897e-05
-6.64147e-06
6.9997e-06
-2.35811e-05
-4.3616e-06
-3.11357e-05
1.4141e-05
4.38641e-06
-7.39997e-05
-1.02355e-05
-8.06563e-06
-2.3374e-05
-1.47938e-05
-6.2259e-06
-5.81049e-05
-5.06308e-05
1.405e-05
6.04893e-05
-2.68639e-05
-9.04835e-06
8.63892e-05
4.66899e-05
3.75692e-05
1.73783e-05
-2.3246e-05
4.88203e-05
5.48082e-06
9.93193e-06
-1.64986e-05
1.42507e-05
8.27309e-06
2.22621e-05
1.64462e-05
-5.90084e-05
-2.21439e-05
1.26194e-05
-5.85366e-06
-1.52957e-05
1.06501e-05
-3.12142e-05
-3.9973e-05
2.46427e-05
-1.36222e-05
-1.03644e-05
8.08639e-06
-3.52902e-05
-5.06921e-05
-4.67092e-06
5.81024e-06
3.2609e-05
5.08271e-05
-4.10832e-05
5.1495e-05
3.11784e-05
-1.56082e-05
-2.82323e-05
-6.06992e-06
-2.80621e-05
-3.25324e-05
-1.22172e-05
-4.33376e-08
1.43046e-05
-1.11421e-05
-1.11798e-05
2.42838e-05
4.45339e-05
2.19351e-05
7.90254e-06
2.99953e-05
-4.26255e-06
-1.73274e-05
1.23756e-05
-1.48179e-05
-9.41567e-07
-1.91731e-05
1.06947e-05
3.77898e-07
8.90931e-06
-2.72501e-05
-2.5317e-05
-3.55282e-05
-1.40405e-05
3.4764e-07
-2.14895e-05
7.57554e-06
2.44535e-05
7.75484e-07
-1.19275e-05
3.16487e-05
-1.01498e-05
-2.20895e-05
-2.5255e-05
-1.52127e-05
3.55749e-05
-5.82604e-05
-1.06004e-05
-1.7493e-06
8.25197e-06
-5.51777e-05
3.11775e-05
-3.91315e-05
2.51508e-05
2.45567e-05
4.25619e-05
2.96994e-05
5.5297e-05
9.33503e-05
0.0002183
0.000396122
0.000737192
0.00124692
0.00220475
0.00397498
0.00705731
0.0122482
0.021522
0.0372914
0.0646078
0.110746
0.189632
0.321514
0.543875
0.911951
1.52538
2.52909
4.17551
6.8504
11.1842
18.1233
29.208
46.8766
74.6652
118.232
186.092
292.105
453.967
702.998
1081.54
1661.21
2522.63
3827.08
5764.13
8678.37
12907.6
19217.2
28330.6
41741.7
60333.6
86952.4
120522
165022
194898
224902
29325
-9222.99
6.64805e-05
-6.50936e-05
1.48298e-05
1.33067e-05
-2.56576e-05
-7.34698e-06
-2.3131e-05
2.2395e-05
-3.23639e-05
1.93424e-05
-2.4655e-05
1.45304e-05
-1.96443e-05
8.12984e-06
-2.65703e-05
-6.27621e-06
-2.35791e-05
-1.8344e-05
1.56487e-05
2.60909e-06
-8.50388e-06
5.95631e-05
-1.71866e-05
-6.5494e-05
3.41757e-06
3.62151e-05
-1.24974e-06
-4.22548e-05
-2.76883e-06
1.42312e-05
-2.7942e-05
-1.79868e-05
-1.16427e-05
-2.88466e-05
-5.7904e-05
-2.73867e-06
-3.43322e-05
-3.30986e-05
3.49254e-07
9.08214e-06
7.52277e-07
1.176e-07
3.14455e-05
-1.079e-05
-2.20188e-05
6.99283e-06
1.99499e-06
2.41203e-05
-7.93985e-06
-1.40654e-05
2.79396e-05
-2.35196e-05
-1.01986e-05
-7.15988e-05
9.63007e-07
-6.87558e-05
-3.34907e-05
-4.35345e-06
-0.000111681
9.94759e-06
5.31207e-05
-2.61478e-06
-1.44413e-05
1.40276e-05
-2.75145e-05
3.46891e-05
4.89183e-05
-8.7796e-06
-5.80811e-06
-5.18187e-06
-2.22761e-05
-2.49276e-05
-6.28679e-05
1.10221e-05
-4.71297e-05
-2.91915e-05
-1.96146e-05
-2.9979e-05
4.19385e-06
5.09061e-05
2.51827e-05
4.68956e-05
2.35353e-05
-2.01615e-05
-1.52558e-05
4.46174e-05
2.80969e-05
3.734e-05
3.82234e-07
-8.02331e-06
2.38375e-05
2.26961e-05
-4.10807e-05
-8.79868e-06
-4.17627e-05
-6.40364e-06
-5.16208e-05
4.49014e-06
6.03726e-05
7.25647e-06
-1.21289e-05
2.84063e-05
3.68709e-06
-3.50827e-05
-6.35377e-05
-1.32883e-05
-7.9768e-06
2.35158e-05
-2.64834e-05
-4.46303e-05
-5.88046e-05
-8.23387e-05
-2.63404e-05
7.60483e-06
6.56069e-05
5.10518e-05
1.47475e-05
9.65655e-06
-1.43227e-05
6.33134e-06
5.27577e-05
-1.89149e-05
-2.04553e-05
4.11337e-06
-2.10858e-05
6.33178e-06
-2.32857e-06
-4.30824e-05
-1.44145e-05
-6.10624e-05
-3.64604e-06
-1.08195e-05
-3.68735e-06
4.59598e-05
6.41445e-05
1.83156e-05
-7.29223e-05
5.78923e-05
5.50938e-05
1.28811e-06
-1.18916e-05
6.1466e-05
-2.43469e-05
4.64041e-05
3.81863e-05
-3.0256e-05
3.76945e-05
-1.75644e-05
-5.0568e-05
1.14826e-05
-1.75613e-05
2.14908e-05
3.97347e-05
9.07157e-07
-2.93904e-05
1.72798e-05
-1.68941e-05
-1.54657e-05
-4.46683e-05
-5.67604e-05
8.47346e-06
-2.32813e-05
1.86652e-06
1.25247e-05
3.99913e-05
-3.91729e-05
-1.92159e-05
1.06221e-06
-6.81301e-07
-1.21765e-05
-1.17857e-05
4.58481e-05
5.19722e-06
1.37193e-05
-1.05927e-05
-4.24766e-05
2.02219e-05
2.07927e-06
-3.68055e-05
-1.17917e-05
3.59448e-05
-6.49539e-05
-2.89712e-05
5.68887e-06
2.8768e-05
-3.17372e-05
-9.27186e-06
-3.83914e-05
-7.74522e-06
1.35426e-05
-1.70003e-05
-4.79055e-05
2.35849e-05
1.89686e-05
5.56881e-05
9.94129e-06
7.81942e-06
1.9699e-05
4.2526e-05
-6.58362e-05
-2.93515e-05
-3.38231e-06
-1.57767e-05
-3.31538e-05
1.96034e-05
-2.74153e-05
-5.90611e-05
-1.80093e-05
-5.22351e-05
-2.6704e-06
-3.2457e-05
-7.2371e-06
-5.51712e-05
4.54677e-05
-9.06006e-06
-2.46942e-05
-8.26725e-05
-7.24475e-05
-7.92041e-07
-3.66497e-07
-6.19171e-05
-3.72142e-05
-3.37228e-05
5.29069e-06
-1.97603e-05
3.8634e-05
1.299e-05
-8.57579e-06
2.46452e-05
-4.04703e-05
7.21857e-06
1.59884e-05
-5.89982e-05
-1.44064e-05
4.23099e-06
-8.72029e-06
-3.61097e-05
2.9265e-05
4.59114e-05
4.28557e-05
3.14464e-05
-4.84757e-05
-1.17417e-06
4.54525e-05
3.24855e-05
1.84183e-05
1.76181e-05
-5.27025e-05
-1.43932e-05
-2.94228e-05
-2.76573e-05
6.36945e-05
0.000130408
0.000236892
0.000476182
0.000808955
0.00155087
0.0026705
0.00477787
0.00842909
0.0148969
0.0258844
0.0452199
0.077898
0.134368
0.229176
0.390638
0.659276
1.11072
1.85488
3.08935
5.1043
8.40335
13.7378
22.3609
36.1641
58.1895
93.1318
148.192
234.641
369.215
578.833
901.131
1398.09
2154.3
3312.58
5054.1
7697.8
11639.5
17587.1
26339.4
39432.2
58392.4
86492.7
125225
182258
247204
351692
357102
645400
-3.20071e-05
-2.48969e-05
8.61972e-06
2.23239e-05
3.91921e-05
1.57278e-06
-3.48949e-05
-1.56679e-06
1.10887e-05
-3.45079e-06
-1.33463e-05
-2.7778e-05
3.53294e-05
-2.32903e-05
-2.37484e-05
9.09682e-06
-5.82615e-06
-1.71672e-05
-1.63116e-07
-1.46421e-06
-6.2841e-06
-4.98305e-05
5.20353e-05
-1.5422e-05
2.67933e-06
-1.83948e-05
-6.00229e-06
7.77687e-06
-1.06357e-05
2.61845e-05
-8.15397e-05
-3.02632e-05
3.11243e-06
-2.80164e-05
-3.75608e-05
-1.60738e-05
2.443e-05
2.36478e-05
3.02923e-07
-1.27416e-05
-2.1351e-05
-7.15599e-05
7.99289e-06
3.65049e-05
3.08935e-05
4.5583e-05
8.13408e-05
7.51302e-05
7.68808e-05
1.73844e-05
-2.51309e-05
-1.02693e-05
5.30076e-05
1.55007e-05
2.49873e-06
-2.58723e-05
-3.7726e-05
-4.04874e-05
-2.69631e-05
-4.24497e-05
-8.28794e-06
2.98068e-05
3.99873e-05
3.54988e-05
1.88177e-05
6.00101e-06
6.57358e-05
-2.53084e-05
1.53366e-05
-6.75562e-05
-5.14228e-05
1.2528e-05
-3.76256e-05
1.50735e-05
3.69434e-05
3.89362e-05
-2.39945e-06
1.92794e-05
4.8865e-05
-1.61669e-05
-6.13738e-05
-1.72801e-05
9.20079e-06
-6.29902e-05
-3.94305e-06
2.10053e-05
3.12299e-05
-7.04481e-05
-6.13965e-05
-6.36461e-05
-4.88145e-05
2.02535e-06
-1.83765e-05
3.14725e-05
5.74195e-06
1.57341e-05
-4.5193e-05
-2.1042e-05
-2.37598e-05
-3.32945e-05
-2.75898e-05
1.74983e-05
9.56845e-06
7.79242e-06
-1.5552e-05
-6.05187e-05
-1.35141e-05
-1.22249e-05
-6.00323e-06
-5.22349e-05
3.40145e-06
4.31904e-05
4.42139e-05
2.25634e-05
3.25712e-05
5.19382e-05
-2.90052e-05
-5.46208e-05
-2.3498e-05
-1.23939e-05
-2.35718e-05
-1.86973e-05
3.73956e-05
2.50337e-05
-2.20748e-05
1.17816e-05
-3.10138e-06
2.01217e-05
1.84948e-05
1.58275e-05
9.42233e-06
-5.43222e-05
3.37781e-06
8.76137e-06
-6.01001e-05
-3.52022e-05
-1.08354e-06
5.26774e-05
-2.35539e-05
-5.82814e-05
-1.64938e-06
2.3982e-05
-1.68417e-05
-1.19672e-05
5.08279e-05
5.63874e-05
2.34404e-05
2.66138e-05
-3.27307e-05
1.30151e-05
-1.94836e-05
-5.60445e-05
-3.35921e-05
2.64265e-05
3.99318e-05
2.22129e-05
-2.58206e-05
-8.87594e-06
1.56586e-05
1.77554e-05
1.34632e-05
-3.97083e-05
2.868e-05
8.41747e-06
-3.40318e-05
-1.90782e-05
4.55331e-05
-2.90118e-05
1.51123e-06
-6.61475e-06
-2.92188e-05
-1.10143e-05
-9.59785e-06
9.71373e-06
-7.09732e-06
-5.61594e-05
-2.62515e-05
-2.98723e-06
-4.65961e-05
-9.72805e-07
4.36766e-05
1.37177e-05
-4.61847e-05
-4.00474e-05
3.64298e-05
3.21053e-05
1.58971e-06
-6.7289e-06
5.90184e-06
8.15096e-06
1.40917e-05
-1.00737e-05
-3.61638e-05
-4.5975e-05
2.00808e-05
-1.53748e-05
1.54284e-05
3.02439e-05
-5.27206e-06
5.84682e-05
1.72162e-05
4.22732e-06
3.72173e-06
-8.22857e-06
8.49011e-05
-2.8322e-05
1.32294e-05
-3.32593e-05
-1.70403e-06
7.51307e-06
-3.75618e-05
-5.2345e-05
-1.21406e-05
1.3011e-05
-2.80185e-05
2.1907e-05
-2.474e-05
-2.69143e-05
-6.64658e-05
-8.42196e-06
1.88798e-05
-4.41735e-05
-5.59084e-05
3.38532e-05
3.31214e-05
-9.41178e-06
-3.65057e-05
-2.52685e-05
3.47124e-05
-2.68863e-05
1.09377e-05
-2.73667e-06
8.54269e-06
-1.9642e-05
-6.20616e-05
-4.11525e-05
-1.81443e-05
-4.79155e-05
-9.95091e-06
-2.84015e-05
2.99205e-05
-3.77009e-05
-4.996e-06
-6.65612e-06
-5.56911e-05
-4.09407e-06
4.53714e-06
-7.76211e-06
2.81805e-05
5.15959e-05
6.30502e-05
0.000123653
8.37923e-05
0.000108974
0.000227924
0.000488933
0.00090712
0.00167831
0.00304478
0.00536253
0.00950281
0.0165423
0.0290468
0.0503919
0.0874971
0.15016
0.257678
0.43765
0.742943
1.24906
2.09686
3.48959
5.79339
9.54318
15.67
25.551
41.5011
66.9854
107.633
172.005
273.485
432.733
680.991
1067.38
1663.14
2582.61
3986.36
6137.12
9387.71
14332.2
21734.5
32924.8
49446.2
74315.3
109936
164087
233517
350741
430589
796501
-1.0256e-05
-6.93504e-06
2.88839e-05
-3.87414e-05
-3.62325e-06
-1.20098e-05
-2.07773e-05
1.77456e-06
-1.45341e-05
1.41897e-05
6.15944e-05
2.43917e-07
-1.60416e-05
9.52493e-06
-1.49067e-05
-7.65498e-06
5.17323e-06
4.75435e-06
4.55357e-05
-2.45423e-05
-1.38949e-05
2.34231e-05
-9.21756e-06
3.2692e-05
5.84487e-05
2.19817e-05
-1.88936e-06
4.00809e-06
3.52115e-05
-1.55661e-05
2.96391e-05
-7.24206e-06
-5.76266e-05
-4.59622e-05
-2.71817e-05
7.64492e-06
4.01111e-05
2.99587e-05
3.36307e-06
4.21795e-05
1.37658e-05
-2.64211e-05
-1.93004e-05
2.17952e-05
-7.64772e-05
-7.15237e-06
-4.05665e-05
-7.63647e-05
-2.02787e-05
2.99381e-05
4.54811e-05
1.96393e-05
-1.66232e-05
-1.26686e-05
6.26518e-05
2.16359e-05
3.50624e-05
4.20048e-05
1.99653e-06
-7.2634e-06
-3.52285e-05
-1.55355e-05
-4.51063e-05
-2.93683e-05
3.12596e-05
-5.21561e-05
-5.51018e-05
1.55961e-05
2.27598e-05
3.32583e-06
1.80446e-05
-3.63085e-05
5.24125e-05
4.47502e-05
3.74372e-05
-1.78672e-05
1.07813e-05
2.32103e-05
-3.27234e-05
2.72991e-06
-3.75041e-05
-3.29246e-05
-9.38331e-06
-2.24956e-05
-3.26002e-05
8.4049e-07
2.39647e-06
2.13834e-05
-1.44861e-05
-5.00507e-05
-1.34011e-05
-1.81958e-05
-2.77561e-05
-3.69194e-05
6.75024e-06
-8.13444e-06
2.78671e-05
-1.27053e-06
-1.89029e-05
-6.86551e-05
1.08752e-05
8.8917e-06
6.24745e-05
3.46529e-05
-2.22631e-05
-8.91365e-05
-3.57497e-06
3.75742e-05
2.12337e-05
6.74243e-06
1.48658e-05
1.07372e-05
-2.27967e-07
1.38499e-05
8.6638e-06
2.77974e-06
-1.63471e-05
7.87449e-06
-4.46727e-05
-1.67518e-05
-3.28216e-05
-7.61031e-06
-3.53396e-05
3.46479e-05
5.38366e-05
4.4793e-05
-3.85072e-05
1.7826e-05
8.72038e-05
4.15543e-05
2.30548e-05
2.70985e-05
-1.04112e-05
-8.63623e-05
-3.1773e-05
-3.75918e-05
-1.85552e-05
-2.15736e-05
-1.73618e-05
4.17359e-05
-1.6514e-05
-8.01597e-06
2.09355e-05
2.80652e-05
-4.43354e-05
-2.18035e-05
-3.89615e-05
-1.5432e-05
9.347e-06
-2.63237e-05
-1.92887e-05
2.34266e-05
4.579e-05
-1.23684e-05
-4.10474e-05
1.69707e-05
7.99234e-05
2.31022e-05
1.5993e-05
-8.17031e-06
3.72969e-05
-1.50403e-05
-9.39358e-06
-2.91774e-05
-2.93595e-05
-1.97386e-05
-3.82425e-06
-5.56713e-06
-3.87363e-05
1.80822e-05
-1.75145e-06
-2.95058e-05
-1.8929e-05
-6.77536e-05
-5.42405e-06
-4.11972e-05
-3.61983e-05
-1.78382e-05
-1.37639e-05
-2.36916e-05
4.48466e-05
5.97879e-05
3.37076e-05
7.97397e-06
3.27035e-05
5.99289e-06
-2.63287e-05
-3.21485e-05
-1.87027e-06
1.22407e-05
-2.41611e-05
-1.85269e-05
1.8419e-05
-2.25716e-05
-2.47479e-05
3.19865e-05
-3.4964e-05
-2.66771e-05
-4.93933e-06
3.04671e-05
-5.4004e-06
-4.246e-05
1.38e-06
7.63338e-05
3.00977e-05
-1.46652e-05
1.95902e-05
2.36617e-06
2.16451e-05
-1.60124e-05
-7.25805e-05
-6.08538e-06
-2.9745e-05
-7.93852e-06
-1.34981e-06
-5.29371e-05
-1.97206e-05
-2.25645e-05
2.17796e-07
4.69975e-05
-1.35081e-06
2.45157e-05
-3.73834e-05
4.01363e-05
1.23033e-05
8.1155e-06
2.05943e-05
-3.17284e-05
2.50551e-06
-7.85656e-05
-5.49202e-05
-1.60726e-05
-4.21919e-05
-7.84771e-06
3.59701e-06
-3.38602e-05
4.03302e-05
3.83837e-05
2.03058e-05
-2.99808e-05
-8.16204e-06
8.71872e-06
-1.19541e-05
3.27677e-05
-3.56001e-06
-6.82974e-06
-3.75602e-05
-4.3739e-05
-4.33155e-05
-3.53021e-05
-2.38021e-05
2.11537e-05
4.37578e-05
0.000122755
0.000193824
0.000330705
0.000487254
0.000937572
0.00168936
0.00305887
0.00546013
0.00973837
0.0172915
0.0301533
0.0527126
0.0909345
0.157248
0.268812
0.459781
0.778278
1.31687
2.20717
3.69461
6.1316
10.1552
16.6883
27.3498
44.5077
72.1875
116.34
186.778
298.173
473.942
749.577
1180.01
1849.57
2884.64
4482.55
6929.48
10680.5
16369.3
25038.6
38032.9
57787.2
86694.8
131290
191444
294369
387541
719810
1.33455e-05
1.30215e-05
-1.36867e-05
-1.50624e-05
1.51709e-06
1.36948e-05
-1.11864e-05
4.75868e-05
2.95575e-05
-2.45652e-05
6.53592e-06
-7.33165e-06
-1.11458e-06
2.58065e-05
7.18388e-06
3.04285e-05
1.48118e-05
-9.47439e-06
-5.95617e-05
1.56976e-05
-2.093e-05
2.53628e-05
4.29306e-05
4.6789e-05
-3.08049e-05
-1.0558e-05
-3.72225e-05
-3.69544e-07
-1.79851e-05
-7.63523e-06
1.68228e-05
4.81336e-06
9.86044e-05
4.18585e-05
-8.73512e-06
5.11232e-08
-2.52256e-05
-1.16174e-05
-1.0314e-06
-4.13562e-05
-8.04317e-06
3.02586e-05
-3.29551e-05
-3.41794e-05
1.42959e-06
1.63475e-05
-3.04694e-05
-1.70041e-05
1.464e-05
-3.9557e-05
-3.4591e-05
-1.19521e-05
-3.24085e-05
1.45955e-06
1.84432e-05
1.34925e-05
-3.69005e-05
1.00797e-05
5.54828e-05
1.27508e-05
-2.76878e-05
-1.70939e-05
-1.67931e-05
-3.13727e-05
1.16514e-05
-7.61417e-06
6.03432e-06
-2.84813e-07
-3.00906e-05
3.64919e-05
9.02924e-06
-2.28763e-05
-4.03789e-07
8.80412e-06
-4.28944e-05
1.97044e-05
-2.71155e-05
-4.69337e-05
9.08049e-06
7.7183e-05
2.10457e-05
-4.2339e-05
1.44069e-05
5.45284e-05
-5.46641e-05
-1.21649e-05
-1.00806e-06
-1.46859e-05
-2.7111e-05
3.33619e-05
6.99139e-06
6.30618e-06
1.06784e-05
-1.33596e-05
5.70754e-05
5.57585e-05
-1.77925e-05
2.45201e-05
1.63557e-05
-7.04243e-06
-2.14142e-05
-8.23109e-06
-7.01432e-07
8.16558e-06
-1.75789e-06
-7.4269e-05
-4.79172e-05
-7.90983e-06
3.22665e-05
2.61498e-06
-6.06012e-05
7.59232e-06
1.16151e-05
9.89814e-06
2.68121e-05
8.39373e-06
-1.10751e-05
2.77436e-05
-1.02122e-05
2.34118e-05
3.67621e-05
-2.74636e-08
-3.20999e-05
4.1942e-05
1.34444e-05
-4.99489e-05
-8.41209e-06
1.64304e-05
-5.98523e-05
-2.82705e-06
-6.99744e-06
-1.66065e-05
-3.24475e-05
-2.40812e-05
-5.6616e-05
-2.62772e-05
4.88962e-06
-3.27009e-05
-3.94853e-05
3.76556e-05
3.12637e-05
-5.51787e-05
1.82097e-05
3.24641e-05
-3.18203e-05
1.85408e-05
-1.18454e-05
-3.17385e-05
-3.33007e-05
-2.7007e-05
-5.21753e-05
-4.8942e-05
8.72129e-06
-1.61965e-05
5.23672e-06
-3.71605e-06
5.14735e-05
-4.71886e-05
-3.00611e-05
4.86684e-06
-1.18474e-05
-3.95055e-05
1.65752e-06
1.55273e-05
-1.28248e-05
-2.98157e-05
-1.28439e-05
-3.15661e-05
8.62647e-06
-3.56384e-05
2.20535e-05
4.8392e-05
5.65477e-06
-2.017e-05
1.46909e-05
-5.22589e-05
8.15218e-06
-1.36832e-05
-5.96952e-05
-3.37467e-05
-8.06274e-06
-4.75512e-05
-5.26851e-05
2.53146e-05
4.69149e-05
-2.22606e-06
-4.68772e-05
-1.14968e-05
-5.37056e-05
-1.3653e-05
-2.2438e-05
-3.31422e-05
-4.74931e-05
9.60764e-07
1.54151e-05
2.39014e-05
2.02735e-05
4.64171e-05
-4.72039e-05
-3.28822e-06
-3.50382e-06
3.98922e-05
-5.80308e-06
-1.5649e-05
-5.96516e-06
-1.82825e-05
8.08946e-06
-2.68861e-05
-2.07657e-05
-1.77923e-05
-1.59111e-05
-2.07294e-05
-8.95222e-05
-2.2097e-06
1.76892e-06
5.10941e-05
2.95984e-05
6.89994e-05
5.8303e-05
-2.32471e-05
-2.07167e-05
2.37672e-05
-2.92336e-05
4.63139e-07
1.17385e-05
1.86455e-05
-5.03836e-05
-4.04712e-05
3.79982e-05
-6.29026e-05
-2.92971e-05
-4.37866e-05
-3.53463e-05
-3.36298e-05
-2.01228e-05
1.87575e-05
-1.56105e-06
-1.40387e-05
1.8973e-06
-1.4059e-06
-1.95737e-05
-1.66753e-05
2.03064e-05
-1.53551e-05
-1.96157e-06
-4.82538e-06
2.0179e-05
-3.46953e-05
-1.36997e-07
3.1946e-06
2.50985e-05
-2.09649e-05
-1.54405e-05
2.87107e-05
8.28873e-05
0.000175056
0.000282724
0.000520212
0.000917471
0.00165612
0.00307998
0.005368
0.00955327
0.0168845
0.0296503
0.0514309
0.0895929
0.154135
0.265704
0.452839
0.772242
1.30346
2.19975
3.67778
6.14297
10.1729
16.8187
27.5898
45.1555
73.3845
118.92
191.483
307.302
490.361
779.539
1232.99
1942.31
3046.16
4756.48
7399.64
11456.7
17690
27150.9
41661.9
63231
96840.9
143532
223888
305598
568392
-4.98155e-07
1.70711e-05
-4.24175e-06
2.62228e-05
-1.69071e-05
3.82274e-06
-1.11259e-05
7.40396e-06
-1.61884e-06
8.59522e-06
2.18873e-05
1.58907e-05
-8.00969e-06
-2.41616e-05
-1.67723e-05
2.39158e-05
-1.22964e-05
-3.20303e-06
3.07951e-05
2.54359e-06
-6.32491e-06
1.23904e-05
-3.43592e-05
-7.22533e-05
-4.05989e-05
-4.94996e-05
-3.03335e-05
3.27778e-05
2.50034e-05
2.1582e-05
2.09916e-06
-2.7059e-05
-9.8674e-06
2.34728e-05
1.37163e-05
3.63869e-05
-4.79397e-06
6.40941e-06
1.90105e-05
-2.01449e-06
3.2566e-05
-6.20366e-05
1.5487e-05
2.65721e-05
-9.47485e-06
-4.47685e-05
1.21066e-05
6.57331e-06
-5.36587e-05
-2.79413e-06
-3.92288e-05
-1.98243e-05
1.64376e-05
1.5905e-05
-3.6982e-05
3.77536e-06
-4.03324e-06