/*--------------------------------*- C++ -*----------------------------------*\
| =========                 |                                                 |
| \\      /  F ield         | OpenFOAM: The Open Source CFD Toolbox           |
|  \\    /   O peration     | Version:  2412                                  |
|   \\  /    A nd           | Website:  www.openfoam.com                      |
|    \\/     M anipulation  |                                                 |
\*---------------------------------------------------------------------------*/
FoamFile
{
    version     2.0;
    format      ascii;
    arch        "LSB;label=32;scalar=64";
    class       volScalarField;
    location    "0.0005";
    object      ddt0(thermo:psi,p);
}
// * * * * * * * * * * * * * * * * * * * * * * * * * * * * * * * * * * * * * //

dimensions      [1 -3 -1 0 0 0 0];

internalField   nonuniform List<scalar> 
180000
(
-3.45815e-11
4.53558e-11
-5.03645e-12
-6.40476e-11
-1.096e-10
2.10557e-10
-1.4794e-11
-5.17781e-12
-7.84088e-11
-1.15807e-10
9.23144e-11
-1.76534e-11
9.29261e-12
-5.40061e-11
-1.44163e-11
-1.68248e-11
7.22273e-11
-9.80058e-13
-8.47303e-11
4.16612e-11
8.8092e-11
8.81471e-11
1.04508e-10
6.31112e-11
4.23009e-11
-8.7893e-11
4.18126e-11
-3.86738e-11
6.87169e-11
6.00207e-11
-6.14227e-11
1.99043e-10
7.96013e-12
-1.16771e-10
4.57162e-11
-8.51755e-11
-6.95818e-11
1.72969e-11
2.78395e-11
-1.06962e-10
-1.53775e-10
1.18324e-11
2.16228e-10
2.81802e-10
-1.35721e-10
1.21075e-11
1.65164e-10
5.47028e-11
4.63676e-11
-9.302e-11
-2.19506e-11
1.07177e-10
-2.62734e-11
1.41959e-10
1.68074e-10
-5.99563e-11
-3.08049e-11
-2.09852e-10
6.07411e-12
1.45134e-10
2.37652e-10
2.68063e-11
5.5681e-11
2.75115e-11
5.14301e-11
4.22591e-11
-4.03198e-11
-9.76778e-12
-4.55907e-11
1.66949e-10
9.65353e-11
-1.38488e-10
3.11697e-11
8.81115e-11
9.12311e-11
1.04429e-10
7.11516e-13
-9.48636e-11
6.15813e-11
1.24508e-10
7.34038e-11
1.49748e-10
8.54488e-12
-8.79497e-11
-1.17081e-10
-6.6378e-11
5.38344e-11
5.96499e-11
-4.45204e-11
-3.81399e-11
-5.08608e-12
8.14279e-11
1.54966e-10
1.96348e-11
3.36942e-11
2.48528e-10
-5.62205e-11
-2.62848e-11
-8.34584e-11
3.9691e-11
2.18254e-10
-7.45648e-11
7.0036e-11
1.08742e-10
1.64543e-10
2.52085e-10
9.3353e-12
2.03647e-10
1.05491e-10
5.94371e-11
2.88077e-11
-2.41842e-11
1.91863e-10
1.57917e-10
1.37777e-10
3.74039e-11
2.70138e-11
-8.41704e-11
1.12154e-10
6.41993e-11
1.35372e-11
-2.35836e-11
1.28147e-11
8.76269e-11
-6.51813e-11
1.32241e-10
2.66255e-10
1.4279e-10
-6.78147e-11
2.481e-11
-6.33303e-12
-1.83492e-10
8.50457e-11
1.21559e-11
3.06431e-11
-1.41627e-11
4.32296e-11
-1.14239e-11
1.87034e-12
8.73099e-11
2.46893e-11
1.546e-10
9.48281e-11
1.30511e-10
1.15043e-10
6.36682e-11
-8.24245e-11
8.88023e-11
-4.86957e-11
-2.47477e-10
-1.16214e-10
6.56058e-12
-2.0139e-10
4.15924e-11
-1.90858e-10
1.28989e-10
-6.15057e-11
-8.01371e-11
3.09999e-11
4.73213e-11
2.04169e-10
-6.83397e-11
1.9869e-10
2.51693e-10
-5.6072e-11
-1.8978e-10
1.13382e-10
-8.38453e-12
2.78417e-11
1.19867e-11
-2.45848e-10
-6.58013e-11
1.11741e-10
-5.39104e-12
5.65092e-11
-9.87592e-11
7.61912e-11
1.37855e-10
8.63049e-11
1.228e-10
1.06133e-10
2.0368e-10
1.12783e-10
-2.99902e-11
2.07236e-10
3.26057e-11
-8.10162e-11
4.87979e-11
1.85702e-10
7.10453e-11
-1.8275e-11
-1.11446e-10
4.18064e-11
-4.06741e-11
2.77725e-10
9.29979e-11
-8.27294e-11
8.54221e-11
-7.79177e-11
-8.89577e-11
3.14681e-11
6.88898e-11
4.10292e-11
2.04357e-10
2.22877e-10
1.5448e-10
-9.70352e-12
2.73768e-10
1.18437e-10
4.41058e-11
6.59547e-11
1.06014e-10
5.39134e-11
-7.43698e-11
2.34134e-11
3.6855e-11
1.06574e-10
7.6276e-11
-9.0542e-12
-6.08728e-11
-2.04439e-10
2.15759e-10
1.80813e-10
3.1871e-10
2.49644e-10
-6.22346e-11
8.55503e-11
2.84442e-11
-5.87259e-11
1.02433e-11
-1.81059e-11
-1.42551e-10
2.67848e-11
4.44691e-11
4.789e-11
1.53142e-10
1.38083e-10
3.25927e-11
-1.00352e-10
8.37862e-11
9.95383e-11
-2.63049e-11
-8.9108e-11
-1.79063e-10
6.07618e-11
1.1492e-10
2.40272e-10
2.56929e-10
5.09105e-10
1.37756e-09
2.58197e-09
4.87029e-09
8.97003e-09
1.64853e-08
2.98448e-08
5.39145e-08
9.75063e-08
1.76353e-07
3.13263e-07
5.5277e-07
9.90383e-07
1.74369e-06
2.99688e-06
5.27106e-06
9.30761e-06
1.56519e-05
2.65555e-05
4.70889e-05
7.94133e-05
0.000128166
0.000222462
0.000386885
0.00060858
0.000987562
0.0017539
0.00284743
0.00429174
0.00730536
0.0125969
0.018885
0.0290307
0.0506686
0.081224
0.117892
0.189491
0.32005
0.48371
0.71701
1.16377
1.85989
2.77454
4.22747
6.68002
10.2855
15.4551
23.5226
35.5516
52.8896
75.4792
108.226
2.25043e-11
2.65025e-11
-5.23608e-11
8.37147e-11
-1.99058e-10
-1.45645e-10
1.40599e-10
-4.17753e-11
1.81966e-11
-9.49052e-11
-8.51332e-12
1.65925e-11
-1.37347e-10
6.64548e-11
-2.31844e-11
9.54297e-11
-3.94669e-11
4.84382e-11
-1.88126e-11
-1.56924e-10
-6.89513e-11
6.705e-11
1.28139e-10
1.02395e-10
-2.14646e-11
9.44674e-11
2.85305e-11
8.37793e-11
-1.16692e-10
-3.23294e-11
1.74073e-11
-7.09282e-11
-6.39333e-11
-8.01696e-14
7.65311e-11
6.29471e-11
1.13709e-10
-3.77883e-13
6.32479e-11
-7.96974e-11
7.70221e-11
1.26317e-10
7.75024e-11
1.20227e-10
-9.34145e-11
-2.14252e-10
-9.29966e-11
-7.31913e-11
4.25375e-11
3.43304e-11
-2.03385e-10
9.90261e-11
2.3597e-10
-4.54284e-11
1.41291e-10
1.14469e-11
2.02069e-11
-1.6981e-10
-8.19084e-11
-1.90611e-10
3.30819e-11
4.97308e-11
2.9088e-11
1.06047e-10
2.19912e-11
-2.99908e-12
1.40955e-10
6.91503e-11
2.64944e-11
-3.80764e-11
-1.49059e-11
-4.46891e-11
1.03642e-10
-5.27049e-13
-8.51428e-11
1.15984e-10
-5.13535e-11
-2.0143e-11
1.25036e-10
-6.16081e-11
-1.69423e-10
-9.9109e-11
-2.23001e-10
1.21872e-10
1.09184e-10
7.01139e-11
-1.24772e-10
2.49915e-11
-2.23926e-10
9.56647e-11
-7.68093e-13
5.86403e-11
6.68642e-11
-1.23903e-11
-4.01734e-11
-7.73911e-12
-1.80991e-11
5.60015e-11
-1.36611e-10
-1.98631e-10
-2.14113e-10
1.03695e-10
-2.9396e-11
-4.81157e-11
-4.40554e-11
-5.40102e-11
1.64388e-11
5.87918e-11
3.59679e-11
3.81783e-11
5.42185e-11
-8.6852e-11
-3.53014e-12
-1.39179e-10
3.13439e-11
-3.31859e-12
-5.56139e-11
1.58252e-10
1.07598e-10
-2.57288e-10
-1.01475e-11
9.69978e-11
8.08007e-12
2.47155e-10
-2.32774e-10
-1.18787e-10
-3.94598e-11
6.27888e-12
1.25387e-11
-9.21211e-11
1.10356e-10
1.5316e-10
1.32787e-10
1.22417e-10
-7.57123e-11
4.80417e-11
-1.22091e-10
-8.46209e-12
2.23008e-10
1.63235e-10
-3.02758e-11
-1.09738e-10
-2.17202e-11
-5.81263e-11
-2.26116e-10
-2.27361e-10
9.39528e-12
-9.80647e-11
-3.03588e-10
8.61991e-11
-1.58178e-10
-2.52443e-10
-2.26995e-11
4.28964e-11
1.0765e-10
1.65794e-10
-1.27587e-11
8.83493e-11
-1.55336e-10
-5.97417e-11
-2.04494e-11
1.14575e-11
9.43723e-11
4.18035e-11
-4.08267e-11
6.45883e-11
-3.74287e-11
1.52648e-10
-8.11732e-11
1.1594e-10
-1.16744e-10
-2.83208e-11
-7.03097e-11
-1.04848e-10
-2.00594e-11
1.73211e-10
3.00335e-11
4.1338e-11
3.81135e-10
3.90886e-11
5.66808e-11
-2.30546e-11
-8.92209e-11
-1.65519e-11
-2.8054e-11
-7.17836e-11
-2.30207e-10
4.90982e-11
-9.52307e-11
2.46602e-11
-1.04483e-10
-1.25058e-10
9.4605e-12
-2.83567e-11
5.38086e-11
1.29817e-10
-1.9099e-11
3.26309e-11
4.50403e-11
8.70927e-11
-1.91635e-10
-1.36022e-10
1.45583e-10
1.20984e-10
1.67553e-10
3.40367e-11
6.99458e-11
2.5921e-10
1.49996e-10
5.12364e-11
1.32522e-10
4.33597e-11
8.30392e-11
1.78915e-10
-1.00985e-10
1.68832e-10
1.35965e-10
2.33188e-12
3.42807e-10
1.21409e-10
1.35203e-10
2.72748e-10
3.16081e-11
-1.03226e-11
-2.7769e-13
1.07982e-10
-2.38009e-11
-1.09192e-11
1.90231e-10
3.57103e-12
-2.82918e-11
-3.2259e-11
-1.67141e-10
-2.86161e-10
8.72646e-11
3.26453e-11
1.02647e-10
2.73213e-10
-2.11514e-11
2.09376e-10
-1.10354e-10
-9.06543e-11
-7.45882e-11
-7.73766e-11
7.07903e-11
3.12468e-10
2.81005e-10
4.80323e-10
6.08587e-10
9.64392e-10
2.2175e-09
4.04688e-09
7.87915e-09
1.42863e-08
2.5983e-08
4.71209e-08
8.51883e-08
1.53584e-07
2.75235e-07
4.88154e-07
8.63771e-07
1.52493e-06
2.67107e-06
4.63571e-06
8.06246e-06
1.3962e-05
2.38454e-05
4.06262e-05
6.95871e-05
0.000117589
0.000196023
0.00032979
0.000554281
0.000910415
0.00149189
0.00248215
0.00406486
0.00651258
0.0105671
0.0172876
0.0275299
0.0434248
0.0697758
0.111576
0.173932
0.271929
0.430537
0.673687
1.03782
1.60917
2.50425
3.85902
5.90247
9.05347
13.8445
21.0271
31.6171
47.3183
69.0116
100.222
4.14517e-13
7.09703e-11
6.23129e-11
-1.81935e-10
-2.53926e-11
3.89476e-11
6.28184e-11
6.37064e-11
-9.41174e-11
-1.0603e-10
7.88105e-12
-8.30431e-13
4.90258e-11
2.42628e-10
1.6331e-10
-5.37328e-12
-8.96918e-11
6.24004e-11
7.18858e-11
7.89861e-11
-6.84e-11
-5.60913e-11
7.37215e-12
6.75687e-11
8.3586e-11
8.38168e-11
-1.03995e-10
-9.69308e-11
4.20327e-11
-9.59867e-11
1.45028e-10
8.9793e-11
1.68073e-11
-1.76185e-12
-3.10962e-10
-8.19374e-11
9.88244e-11
-1.75757e-10
-1.17634e-10
1.51953e-10
-4.9349e-11
-4.34773e-11
1.95448e-11
-2.6607e-10
-1.02619e-11
-2.07463e-11
1.9076e-11
1.84779e-10
1.96316e-10
1.49243e-10
-2.67026e-11
1.19324e-10
1.54433e-10
-6.9722e-11
-2.62674e-10
-7.28903e-11
2.16698e-11
-1.57724e-10
2.509e-11
2.03033e-10
8.06518e-11
3.06713e-11
7.80986e-12
-1.17592e-10
-4.45067e-11
1.49111e-10
1.54747e-10
2.63842e-10
3.77245e-11
2.96996e-11
1.22782e-11
5.468e-11
-8.29503e-11
2.17516e-11
4.37307e-11
5.40659e-11
4.13137e-11
-1.69931e-10
-8.04383e-11
-3.02871e-10
3.50138e-11
-1.82659e-10
-5.00638e-11
5.9336e-11
1.37181e-11
-1.37717e-10
-6.05696e-11
-2.66461e-11
-2.57245e-11
1.00627e-10
-2.34157e-10
-1.53053e-10
3.47368e-11
-2.59587e-10
9.6053e-11
8.65278e-11
-5.52115e-11
5.68377e-11
2.15052e-10
8.64775e-11
-1.68093e-10
-2.21701e-11
-2.95431e-10
-1.09378e-10
7.06267e-12
-1.0603e-10
1.70561e-10
2.01127e-11
-1.2099e-10
9.37599e-12
-6.37202e-11
2.39687e-12
-2.96066e-11
7.11115e-11
2.4818e-11
-1.35268e-10
7.80928e-11
-1.13991e-10
-1.27577e-10
4.7136e-11
-7.3791e-11
-1.90236e-10
1.91652e-10
1.83097e-10
-1.98287e-10
-3.78962e-11
2.24452e-10
4.1478e-10
2.6654e-10
6.64673e-11
5.15746e-11
2.30355e-10
-9.32206e-11
-2.0165e-10
-9.90825e-11
5.27222e-11
-4.60231e-11
-2.13964e-10
5.03628e-11
-1.34336e-10
-6.47599e-11
2.19813e-11
-1.79173e-10
1.33427e-10
1.88367e-10
6.77168e-11
1.63952e-10
2.10581e-11
5.05166e-11
1.4638e-10
-3.66648e-11
-7.62527e-11
6.55134e-11
-9.66991e-12
-1.32765e-10
-5.8897e-11
3.90642e-11
-9.29705e-11
-1.60292e-10
6.68111e-12
-1.23202e-11
-7.28866e-11
5.55139e-11
1.42796e-10
1.79418e-10
7.19538e-11
3.98649e-11
-1.70474e-10
-1.90259e-10
-1.52274e-10
-1.32312e-11
-1.30371e-11
9.59783e-11
-4.98378e-11
1.13196e-10
-5.50605e-11
-2.15168e-10
-3.34071e-10
-7.56476e-11
-1.25155e-10
-1.75108e-10
-4.33755e-12
-5.75623e-11
6.64088e-11
-6.0217e-11
-9.87912e-11
-6.55006e-11
-6.34978e-11
1.62233e-10
5.7437e-11
8.10595e-11
2.14805e-10
9.95099e-11
6.74721e-11
-1.71783e-10
-1.34639e-10
5.61839e-11
-1.6061e-11
-7.06707e-12
1.35049e-10
5.78225e-11
-7.94323e-11
-2.74935e-11
2.00447e-10
3.48462e-10
2.16108e-10
2.78234e-11
3.14059e-10
-4.33118e-11
-2.00805e-10
4.47316e-11
-1.72042e-11
1.77423e-10
2.0676e-10
6.10254e-11
1.98123e-10
4.43195e-11
-2.72175e-10
1.56024e-10
1.78388e-10
1.38937e-10
2.115e-10
5.36872e-13
1.46387e-10
-8.14583e-11
-2.16373e-11
-1.42028e-10
-2.02276e-10
-3.24337e-11
2.16502e-10
2.81293e-10
1.75309e-10
5.79188e-11
-1.88764e-10
-7.46382e-11
5.52989e-11
-1.51985e-10
-1.3992e-10
-1.07332e-10
1.06242e-10
-5.77502e-11
-2.21432e-10
9.54672e-11
-9.61331e-11
5.1272e-11
2.83038e-10
1.25258e-10
2.10834e-10
5.8221e-10
8.79953e-10
1.76707e-09
3.32074e-09
5.86113e-09
1.11025e-08
2.01132e-08
3.66973e-08
6.66041e-08
1.19351e-07
2.13845e-07
3.81043e-07
6.7603e-07
1.1915e-06
2.09216e-06
3.65207e-06
6.34458e-06
1.09619e-05
1.88654e-05
3.22726e-05
5.49199e-05
9.30637e-05
0.000156984
0.000263125
0.000438959
0.000729861
0.00120654
0.0019824
0.00324551
0.00529582
0.0085824
0.0138409
0.0222591
0.0356574
0.0567308
0.0899556
0.142254
0.224023
0.35075
0.547906
0.853419
1.32452
2.0464
3.15581
4.85115
7.43569
11.3425
17.2612
26.0576
39.2435
57.7686
85.7792
1.39654e-11
7.80987e-12
1.12897e-10
-7.11161e-11
-4.26191e-11
-3.60873e-11
6.50871e-11
9.24584e-11
4.85789e-11
-1.58458e-10
-5.1471e-12
-6.96074e-11
-4.3721e-11
6.85013e-11
-2.34446e-11
-1.25829e-11
2.14966e-10
1.36362e-10
3.13425e-10
-4.71893e-11
1.84652e-11
-3.61447e-11
-1.36644e-10
-2.21378e-10
-8.80925e-11
2.53771e-10
7.46049e-11
8.6026e-11
9.20395e-11
-6.48878e-11
7.60386e-11
-2.14073e-10
-2.58293e-12
1.20767e-10
-1.45211e-10
-2.18272e-10
-1.25784e-10
-1.42523e-10
1.80982e-10
7.89192e-11
-3.14465e-11
5.19277e-11
1.43319e-10
1.22854e-10
-5.92524e-11
-6.6693e-12
-2.23286e-11
-1.398e-10
4.43418e-11
-6.7311e-11
2.39934e-10
2.18954e-10
-6.61311e-11
1.03788e-10
2.07613e-10
7.85471e-12
-9.75538e-11
-7.55245e-11
-5.12066e-11
-1.82051e-10
1.86628e-11
-9.15855e-11
-1.39331e-10
3.04938e-11
-2.28046e-10
-1.67543e-10
-1.31335e-10
-8.12412e-12
4.13559e-11
1.20412e-10
5.26053e-11
4.94417e-11
-6.99699e-11
-2.7471e-11
9.01389e-11
1.91473e-10
8.874e-11
4.25567e-11
6.16763e-11
1.07791e-10
-1.14752e-10
1.90394e-10
4.71574e-11
-9.79885e-11
6.71398e-11
-1.36122e-10
2.25191e-12
6.50861e-11
1.13941e-10
1.17307e-10
1.74832e-10
1.861e-11
7.34654e-11
-1.28942e-10
-1.74037e-10
-6.52667e-11
-1.24263e-10
-2.50504e-11
-8.36246e-11
3.38174e-12
-1.86976e-10
4.91944e-11
8.33574e-11
1.18211e-10
1.1193e-10
-8.87746e-13
-9.90839e-11
-1.56551e-11
-1.81271e-10
-3.0965e-11
1.88798e-10
5.91062e-11
3.92208e-11
9.06531e-11
2.30827e-11
-1.92181e-10
-7.60841e-11
-1.01879e-10
-3.91897e-11
-1.41287e-10
3.62193e-11
1.59116e-10
4.57814e-11
-1.66109e-11
-2.21939e-10
-1.06919e-10
-4.60466e-11
7.47457e-11
-1.03786e-10
-7.91319e-12
-7.80776e-11
-1.38293e-10
2.34835e-10
-1.4509e-11
-2.49577e-11
-8.25478e-11
-1.92359e-10
-6.2518e-11
-3.28639e-11
-1.87354e-11
-3.36106e-11
5.99862e-11
-7.1885e-11
1.55147e-11
1.2002e-10
-1.27941e-10
7.61444e-12
-2.76676e-11
3.37199e-12
-1.18184e-10
-1.23843e-10
1.04378e-10
-3.28214e-11
-6.81888e-11
-7.81508e-12
6.39474e-12
-2.37711e-10
-8.96182e-13
-1.52252e-10
-1.09542e-10
-1.99171e-10
2.47546e-11
1.93739e-10
-1.39437e-10
-4.44497e-11
3.4187e-10
1.73051e-10
2.67524e-10
-3.03642e-11
1.27218e-10
1.43596e-10
2.42782e-11
-1.50857e-10
1.02696e-10
-3.99601e-12
-8.21613e-11
1.42236e-10
-7.58927e-11
-2.36622e-10
1.95831e-12
-6.64362e-11
-4.41285e-11
1.65929e-11
-9.73978e-12
-1.1505e-12
-3.43606e-11
8.80228e-11
8.14368e-12
4.32931e-11
8.23484e-11
-1.48774e-10
-8.38801e-11
-1.18874e-10
4.21949e-11
7.14311e-11
9.37232e-11
-3.34873e-11
2.13998e-10
1.94078e-10
8.99764e-12
-3.77211e-11
-1.78569e-10
-9.95215e-12
-9.27078e-11
-2.12785e-13
6.57276e-11
4.11354e-11
1.25634e-10
5.08363e-11
1.22e-10
1.69046e-10
5.94051e-11
1.33624e-10
7.69723e-11
-6.49612e-11
-6.87859e-11
4.80869e-11
2.76422e-11
2.11069e-11
1.63334e-11
-2.20104e-11
1.32459e-10
-8.61636e-12
-1.73188e-11
-9.10538e-12
-9.23787e-11
-9.50315e-11
6.35099e-11
-1.89056e-10
7.56267e-11
5.67917e-11
5.0794e-11
1.09056e-10
6.44531e-11
-1.47307e-10
-1.31903e-11
-1.29896e-10
-6.55567e-11
-3.89512e-11
-1.43025e-11
3.15169e-11
4.85139e-12
8.05531e-12
-7.50185e-12
9.7969e-11
-4.7589e-11
5.39974e-11
3.69523e-10
3.72557e-10
8.50539e-10
1.09398e-09
2.21915e-09
4.10671e-09
7.75988e-09
1.42281e-08
2.56697e-08
4.61845e-08
8.35638e-08
1.50178e-07
2.67472e-07
4.75934e-07
8.40554e-07
1.47969e-06
2.58873e-06
4.51011e-06
7.81212e-06
1.3473e-05
2.3107e-05
3.94566e-05
6.70052e-05
0.000113257
0.000190482
0.000318852
0.000530978
0.000880039
0.00145196
0.0023836
0.00389439
0.00633333
0.0102565
0.0165259
0.0265147
0.0423537
0.0673946
0.106723
0.168389
0.264605
0.414406
0.646217
1.00471
1.55636
2.40429
3.69975
5.67966
8.68233
13.246
20.0593
30.3909
45.1222
68.0813
1.28949e-10
-8.61159e-11
-6.1917e-11
1.35624e-11
-2.5417e-11
-4.51831e-11
6.35678e-11
-2.66095e-11
9.64211e-11
7.40189e-11
-8.31703e-11
9.31835e-11
1.00247e-11
-5.42302e-11
9.92755e-11
-4.12766e-11
-1.4378e-10
1.65179e-11
6.70911e-11
-4.44553e-11
2.36737e-12
1.85418e-10
-4.85282e-11
-1.76001e-10
-4.26167e-11
1.9731e-10
8.02712e-11
-1.9043e-11
2.72627e-11
7.86136e-11
-1.30937e-10
4.92018e-11
-1.48755e-11
-1.66352e-10
-2.60163e-10
1.66394e-11
-5.08576e-11
-1.02558e-10
6.18256e-11
1.61031e-10
6.59101e-11
-1.45364e-11
2.61028e-11
-9.07137e-11
2.22975e-11
-5.32174e-11
-5.01255e-11
2.37391e-10
-2.42356e-11
1.47517e-10
2.28488e-11
-8.5215e-11
-7.59098e-11
-1.36738e-10
-1.65582e-10
-3.8437e-10
-1.88122e-10
-1.26075e-10
-2.75028e-10
4.70834e-11
2.37359e-10
-3.85572e-11
1.06119e-10
1.41328e-10
-1.14168e-10
9.68167e-11
1.53009e-10
2.70189e-11
-7.22881e-13
3.94242e-11
4.51501e-11
-1.03102e-10
-1.76079e-11
-8.67576e-11
-2.59037e-10
-6.85814e-11
-2.82314e-10
-3.36214e-11
2.65781e-11
6.33995e-11
1.05661e-10
1.61483e-10
1.43634e-10
-7.44572e-11
-3.77284e-11
2.23729e-10
7.13878e-11
1.89487e-10
-2.9037e-11
-1.51865e-10
2.15845e-10
1.10965e-10
-6.43761e-11
-1.05863e-10
-2.66763e-11
-1.50047e-10
-2.08035e-10
5.3268e-11
2.67772e-10
1.73386e-10
-7.88688e-11
9.24453e-11
2.17632e-10
-3.19482e-10
-1.67848e-10
-3.80432e-11
-4.97424e-12
9.16594e-11
3.49917e-11
-1.92091e-10
-1.6624e-10
-2.87475e-10
-1.24798e-10
-3.44151e-11
2.25781e-10
2.15431e-10
6.19721e-11
1.02251e-10
-6.59343e-11
1.65201e-10
1.25157e-10
-1.00966e-10
3.69517e-11
-7.5647e-11
4.40955e-11
9.58364e-11
3.77e-12
-6.62577e-11
-1.17622e-10
-2.57893e-10
6.05979e-11
7.17453e-11
-2.31333e-11
8.42042e-11
2.26617e-10
-1.22593e-11
-6.87687e-11
2.34148e-10
8.42959e-11
7.38239e-11
1.46232e-10
-4.83838e-11
-2.61587e-12
3.38969e-10
5.75215e-11
4.6992e-11
6.84385e-11
-4.12947e-11
-9.76674e-11
-7.52593e-11
-2.50909e-11
1.84515e-10
1.28385e-10
-1.58781e-10
1.00215e-10
6.93737e-11
-8.71095e-11
-8.37267e-11
-1.12568e-10
-1.86795e-10
-1.33452e-11
-1.35547e-11
-5.10473e-12
4.45746e-11
1.61964e-10
7.04114e-13
-5.65006e-11
1.29588e-10
3.05146e-11
-6.11842e-11
1.32889e-10
1.70868e-11
-5.88044e-11
8.18101e-11
-5.54225e-11
-3.03338e-11
7.77273e-11
1.65814e-11
-6.16404e-11
-1.22339e-10
8.38381e-11
-1.19037e-10
-8.28841e-11
1.5826e-10
9.74284e-12
5.60093e-11
-8.37073e-12
-1.22907e-10
4.74232e-11
6.83893e-12
-1.85061e-10
-4.07778e-12
1.03787e-10
4.2832e-11
2.22247e-10
8.82618e-11
1.21629e-10
1.50561e-10
1.16644e-10
-9.16457e-11
2.25514e-11
1.84476e-10
-2.75288e-10
-1.18739e-11
2.01684e-11
-6.76023e-11
-1.06719e-10
-1.34586e-10
-3.88924e-12
-1.00099e-10
1.3272e-10
-2.00922e-10
-7.77472e-11
-1.39815e-11
-1.5461e-11
6.74095e-11
-3.23115e-10
-1.75341e-10
-1.37844e-11
-7.87831e-12
-2.55878e-10
3.19212e-11
-1.16454e-10
-6.39945e-11
-1.49722e-10
-2.40918e-11
-1.22978e-10
1.89831e-10
4.63642e-11
-2.92894e-11
5.89537e-11
-1.25755e-10
-1.16803e-10
-3.46945e-11
7.81808e-11
-3.12513e-12
-8.73442e-12
1.41215e-10
2.35009e-10
1.7902e-10
1.50032e-10
-1.37083e-11
-1.18485e-10
2.51565e-10
1.53611e-10
1.23499e-10
1.49983e-10
-6.87069e-11
8.81259e-11
2.064e-10
4.53687e-10
1.32332e-09
2.49948e-09
4.89758e-09
8.74484e-09
1.61146e-08
2.94084e-08
5.29079e-08
9.5541e-08
1.71319e-07
3.0539e-07
5.41146e-07
9.55781e-07
1.67731e-06
2.93209e-06
5.09485e-06
8.81749e-06
1.51718e-05
2.59957e-05
4.42957e-05
7.51492e-05
0.000126816
0.000213043
0.000356084
0.000592439
0.000980834
0.00161633
0.00265116
0.00432827
0.00703434
0.0113795
0.0183312
0.0293938
0.0469406
0.0746324
0.118217
0.186445
0.293014
0.458651
0.715644
1.11229
1.72382
2.66171
4.09987
6.28859
9.63095
14.6497
22.333
33.4129
51.0591
-6.45627e-11
-5.99491e-11
-1.88022e-11
1.11689e-10
1.6283e-10
-1.14059e-10
-5.11847e-11
3.62233e-11
7.35259e-11
-4.45592e-11
1.20975e-12
2.54764e-11
6.7557e-11
-2.63252e-11
-6.646e-11
5.10327e-11
-1.15011e-10
-1.22225e-11
-1.72584e-11
4.42773e-11
-6.44304e-11
-8.07729e-11
2.14582e-10
-4.94559e-11
-5.51385e-11
1.77357e-11
-1.57734e-10
1.01835e-10
1.90302e-11
-1.29408e-10
-5.14463e-11
-7.6049e-11
1.63425e-11
-3.17981e-11
-1.49065e-10
-8.08777e-11
6.39912e-11
1.53583e-10
9.77929e-11
-9.21737e-11
-1.43616e-11
-1.41524e-10
4.95856e-11
7.77494e-12
1.39754e-10
2.03965e-10
1.97548e-10
1.66462e-10
2.92825e-10
1.23397e-10
1.00431e-11
-9.19913e-11
1.52737e-10
1.17178e-10
4.5881e-11
-1.22448e-10
-9.96824e-11
-9.22284e-11
-1.39672e-10
-4.22053e-11
-1.68879e-10
1.07525e-10
2.34697e-10
9.69222e-11
9.27712e-11
1.51532e-10
1.17901e-10
-2.05103e-11
-1.19331e-10
-2.37826e-10
-1.39205e-10
-7.60482e-11
-1.88733e-10
1.66616e-10
2.35146e-10
2.77789e-10
1.97393e-11
1.50686e-10
2.00631e-10
-1.10076e-10
-1.76096e-10
-8.67377e-11
-6.94241e-11
-4.37139e-11
1.57602e-12
2.85802e-11
1.83574e-11
-4.44052e-11
-1.32304e-10
-2.76527e-10
-9.67938e-11
-2.56006e-11
-9.58114e-11
1.97861e-11
9.0498e-11
-6.43296e-11
6.90672e-11
-1.49887e-10
-1.76034e-11
-1.94607e-10
4.41795e-11
1.31815e-10
2.36196e-11
2.4745e-11
-4.74821e-11
-1.15422e-11
-1.34939e-10
-4.23856e-11
-6.686e-12
-2.16469e-10
-2.5954e-11
1.9622e-10
2.42141e-10
7.28101e-11
1.46204e-10
1.6273e-10
-9.46765e-11
-1.02572e-10
-1.13827e-10
-1.23267e-11
-8.27227e-11
-9.18035e-11
1.49255e-11
1.65731e-11
8.12034e-11
6.82524e-11
-8.32641e-11
1.02597e-10
1.24757e-10
1.80396e-10
3.57811e-11
7.7867e-12
-3.7083e-12
-1.11913e-10
-8.60385e-11
-2.38536e-10
1.76723e-10
2.18378e-10
-4.73591e-11
-2.78124e-10
1.03293e-10
-6.62281e-11
-1.45228e-10
6.72222e-11
1.12274e-10
1.90169e-10
1.24659e-10
-7.07064e-11
1.91048e-11
3.37829e-11
2.8203e-11
-1.40272e-10
-4.4252e-11
1.25364e-10
2.16511e-11
1.43132e-10
-1.21864e-10
-7.76618e-11
-9.41042e-11
2.43415e-11
1.35143e-10
3.57231e-11
1.03067e-10
-4.55733e-11
-1.79699e-10
9.28466e-13
1.17853e-10
-1.48435e-10
-1.13419e-10
-5.19777e-11
-8.07652e-11
8.81024e-11
-2.05634e-11
-1.43248e-10
-6.39957e-11
2.14936e-13
-1.73424e-10
-5.63842e-11
-1.2016e-10
9.52739e-11
1.61617e-10
-2.01339e-11
-1.32998e-10
-1.02558e-10
6.42478e-11
-2.85713e-11
7.74662e-11
1.05473e-10
-5.29196e-11
4.22706e-11
1.90503e-10
-5.66894e-11
-1.28952e-10
-1.38442e-10
3.79865e-11
-9.50216e-11
6.7693e-11
2.10201e-10
-1.63962e-11
3.10847e-10
1.00613e-10
8.02609e-11
-1.17947e-11
1.23857e-10
1.06012e-10
1.07682e-10
6.2556e-11
1.31798e-10
1.3214e-10
6.54258e-11
-9.21871e-11
-2.60978e-10
1.08438e-10
8.1778e-11
1.7819e-11
3.0531e-11
5.57431e-11
-8.90625e-11
-1.52594e-10
-3.83286e-11
7.85093e-11
-6.62272e-11
-6.02437e-11
1.17299e-10
1.14285e-10
-2.47206e-11
-9.47307e-11
-1.94382e-10
-7.91798e-12
6.68985e-11
7.6866e-11
-1.81375e-11
2.86302e-11
-1.06051e-10
-2.2531e-10
-5.90946e-11
-2.35489e-10
-9.72901e-11
-1.59883e-10
3.72662e-13
7.78275e-11
-2.88017e-10
6.93765e-11
-1.7827e-11
-1.34537e-10
2.87183e-11
1.22436e-11
4.19053e-12
2.40215e-10
1.98629e-10
7.32784e-10
1.1071e-09
1.46268e-09
2.59229e-09
4.92086e-09
9.30314e-09
1.69631e-08
3.09602e-08
5.61578e-08
1.01152e-07
1.80831e-07
3.21709e-07
5.69921e-07
1.00394e-06
1.76236e-06
3.07388e-06
5.34119e-06
9.22664e-06
1.58762e-05
2.71621e-05
4.62821e-05
7.84305e-05
0.000132349
0.000222167
0.000371327
0.000617525
0.00102244
0.00168474
0.00276374
0.00451307
0.00733697
0.0118757
0.019138
0.0307145
0.0490813
0.0781264
0.123844
0.19561
0.307728
0.482508
0.753704
1.17385
1.82145
2.8194
4.34643
6.69216
10.2367
15.7116
23.6823
36.5865
-4.25399e-11
1.32756e-11
6.29566e-11
-1.40215e-10
6.01101e-11
-4.48075e-11
-2.16678e-11
1.09008e-10
-1.30536e-10
8.16118e-11
2.12003e-10
-3.84169e-11
1.05596e-10
-1.74342e-10
-4.00279e-11
1.12102e-10
-6.53728e-11
-1.01936e-10
1.70854e-10
5.33275e-12
-8.83725e-11
9.46698e-11
-2.44002e-10
1.68465e-10
5.73271e-11
1.24386e-10
1.61442e-10
-8.60612e-12
-8.1927e-12
-7.42057e-11
1.5299e-10
-6.51791e-11
-7.02599e-11
-2.29587e-10
-6.26475e-11
3.28796e-11
3.62658e-11
9.45128e-11
1.89112e-10
1.82976e-10
-1.04184e-10
-8.53645e-11
1.65265e-10
-1.09649e-11
-5.14268e-11
-5.16022e-11
-1.33291e-10
-2.79549e-10
9.41781e-11
6.10745e-11
1.22551e-10
9.43703e-11
2.32997e-11
7.64926e-11
1.33501e-10
5.76888e-11
2.11325e-10
1.59435e-10
8.72148e-12
5.54853e-11
-7.60455e-11
-9.81278e-11
-4.63559e-11
-5.28428e-11
-3.60161e-11
-1.6314e-10
-1.64836e-10
7.01406e-13
5.4683e-11
5.27079e-11
1.12087e-10
2.50116e-11
7.66081e-11
1.27701e-10
2.04585e-10
-2.40411e-11
1.53993e-10
5.23888e-11
-1.99927e-10
2.80839e-11
-2.13384e-10
-1.33945e-10
-5.69202e-12
-1.0036e-10
-8.28446e-11
-1.35124e-10
1.74015e-10
6.15599e-11
-5.13665e-11
-1.10797e-10
-1.96206e-12
5.9097e-12
-1.77726e-10
3.64307e-11
-1.16961e-12
-7.79442e-11
1.37655e-10
2.47905e-11
6.92784e-11
-1.48066e-10
-1.30902e-11
1.41434e-10
2.16892e-10
1.87481e-10
-3.88382e-11
-2.24054e-10
-4.63565e-11
1.36083e-10
1.19332e-10
1.42966e-10
6.70855e-11
1.79025e-10
9.96482e-11
-2.69396e-11
5.59841e-11
3.60855e-11
3.44408e-11
-1.32691e-11
-6.47827e-11
-1.21276e-10
8.11505e-11
-3.25963e-11
-1.73051e-10
-9.15329e-11
4.24038e-10
1.81771e-10
-9.33807e-11
1.00306e-10
2.52984e-10
1.64641e-10
2.47449e-11
1.63562e-10
2.46582e-11
-1.56416e-10
-1.7625e-10
-1.24109e-10
-1.26863e-10
-1.30744e-10
9.1698e-11
1.34948e-10
-1.74132e-11
-9.53046e-12
7.68929e-11
1.19851e-10
-1.10707e-10
-1.24194e-10
-3.53819e-12
-1.28805e-10
-8.81751e-12
-6.23714e-11
-1.38948e-10
5.00738e-11
2.06597e-10
-3.96769e-11
-7.21365e-11
4.84853e-11
1.42421e-10
2.78697e-10
1.6078e-10
9.99987e-11
1.54024e-10
7.028e-11
-9.15981e-11
-2.57524e-11
-1.10188e-10
-1.87191e-10
-2.05192e-11
-8.19626e-11
-1.73326e-10
-7.78041e-11
-1.56193e-10
-6.10375e-11
4.56894e-11
-2.03036e-10
-5.20015e-11
-4.97082e-11
-1.43149e-10
1.44158e-11
-2.01663e-10
-1.10545e-10
3.10573e-10
2.40934e-11
3.64254e-11
1.61381e-10
7.13469e-11
-4.30513e-11
-1.16221e-10
-1.29246e-10
7.59295e-12
7.36231e-11
-2.06152e-11
5.95549e-12
1.67443e-10
-1.22096e-10
8.34601e-11
2.34492e-11
-1.06535e-10
-1.36766e-11
-5.39868e-12
6.30003e-11
-1.62438e-11
-2.49791e-10
1.07485e-11
2.44847e-10
2.22433e-10
-1.67142e-10
1.01727e-10
4.67904e-11
8.37327e-11
-1.35768e-10
-1.03722e-10
1.30984e-11
-1.21655e-10
9.19152e-11
-1.80139e-11
-1.12825e-10
-5.3982e-13
-5.42027e-11
1.15707e-10
1.59102e-10
-7.75596e-13
-3.20093e-11
1.06091e-10
1.5935e-10
1.33035e-10
-4.93366e-12
2.87904e-11
-7.66236e-11
-6.45286e-11
-3.88613e-10
-4.48987e-11
-1.2074e-10
-1.8559e-10
9.21623e-11
-1.50607e-10
5.55238e-11
9.82413e-11
2.4177e-10
1.19825e-11
-1.72564e-10
1.65196e-10
-5.64599e-11
3.15117e-12
5.10781e-11
-3.33285e-11
-1.17215e-10
5.81653e-12
-6.94168e-11
-1.2843e-10
1.67378e-11
9.73322e-11
3.93437e-10
7.46641e-10
1.54685e-09
2.98862e-09
5.04791e-09
9.18574e-09
1.67285e-08
3.06234e-08
5.50206e-08
9.91872e-08
1.77709e-07
3.16684e-07
5.60215e-07
9.87922e-07
1.73096e-06
3.02231e-06
5.2454e-06
9.07068e-06
1.55936e-05
2.67066e-05
4.54824e-05
7.71563e-05
0.000130184
0.000218774
0.000365757
0.000608984
0.00100897
0.00166473
0.00273378
0.00447067
0.00727846
0.0118005
0.0190512
0.0306317
0.049056
0.0782493
0.124354
0.196867
0.310604
0.488249
0.765161
1.19482
1.8611
2.88741
4.47477
6.89024
10.6538
16.1798
25.2463
1.8812e-11
-8.76044e-11
1.05161e-12
-9.68807e-11
6.51847e-11
-1.23563e-11
9.01373e-11
1.63921e-10
-5.52188e-11
-3.66767e-11
-2.7547e-11
7.26825e-11
6.34428e-11
3.947e-11
1.14994e-10
-8.444e-11
1.39076e-10
-1.95355e-10
-1.15342e-10
1.20071e-10
-1.13383e-10
-2.25675e-11
2.4539e-10
8.01143e-11
-8.49983e-12
-1.2298e-10
-1.31056e-10
-2.981e-10
-4.40283e-11
1.16697e-10
-1.1219e-11
6.50304e-11
3.8287e-10
8.17831e-11
5.46713e-11
-1.08608e-10
-7.31613e-11
-4.25329e-11
5.83138e-11
-2.37396e-10
6.84989e-11
1.13829e-10
-1.69431e-10
3.07785e-11
-5.87911e-11
-5.63708e-12
-1.15879e-10
-8.69834e-11
1.26791e-10
-3.50622e-11
-9.25273e-11
-1.70421e-10
-4.50025e-11
2.31547e-12
4.72674e-11
9.37787e-11
-1.46247e-10
1.10013e-10
2.81864e-10
-4.31744e-11
-2.449e-11
5.28978e-11
-9.44229e-11
-1.58346e-10
-1.25624e-10
1.23984e-10
1.69518e-10
-5.47499e-12
3.18524e-12
1.51343e-10
8.9017e-11
-6.40984e-11
5.97571e-12
-1.02381e-10
-6.93132e-11
8.34443e-11
-5.10672e-11
-1.69908e-10
3.13842e-11
2.73305e-10
1.41709e-10
-2.10256e-10
1.02745e-10
1.04369e-10
-2.40898e-10
1.50953e-10
4.24099e-11
-1.57879e-10
1.32135e-12
1.32762e-10
1.67989e-11
-1.76218e-11
-9.57637e-11
3.33035e-11
3.06704e-10
1.57941e-10
-5.43406e-11
2.06307e-10
5.41152e-11
-1.33658e-10
9.32502e-13
1.04428e-10
-6.67934e-11
9.2795e-11
-4.69203e-11
-3.04739e-10
-1.25891e-10
-6.39499e-11
1.92533e-10
1.8179e-11
-1.26409e-10
8.8486e-13
1.78384e-10
3.4083e-11
2.24629e-10
4.03811e-11
4.54658e-11
2.20268e-11
3.55139e-11
2.36236e-12
2.14833e-10
5.52314e-11
-5.13423e-11
1.75994e-10
-3.78973e-11
-2.05593e-10
-6.92289e-11
-8.37125e-11
-1.82977e-10
-4.80949e-12
9.87208e-11
-1.17597e-10
-1.31076e-10
1.36684e-10
-2.2553e-10
-1.39646e-10
-1.03288e-11
-1.57067e-11
-1.21426e-10
6.1246e-11
1.88853e-10
-1.9968e-10
2.44766e-11
1.80958e-10
-1.42567e-11
8.842e-11
-1.3873e-10
8.19208e-12
-8.44064e-11
-8.07288e-11
-9.33796e-11
-8.05538e-11
1.02534e-10
4.21426e-11
9.13799e-11
9.65112e-11
2.86324e-10
-1.58006e-10
-2.3517e-11
2.76747e-11
-6.20523e-11
-2.61337e-10
1.81463e-10
1.79092e-11
3.07099e-12
-1.29904e-10
-1.24267e-10
6.54322e-11
-1.50669e-10
-4.72759e-11
9.57755e-11
4.71051e-11
1.55822e-10
9.01781e-12
1.69818e-11
-6.56051e-11
1.38675e-10
-6.54249e-11
-7.03649e-11
-1.20396e-10
-1.09953e-11
-1.53666e-10
-2.33796e-10
2.1016e-10
1.28422e-10
-2.89018e-11
-1.29751e-10
5.27882e-11
-1.3473e-10
-1.10344e-10
5.76117e-12
-2.34764e-10
-7.33404e-11
1.50326e-10
2.2322e-11
6.40508e-11
1.76895e-10
1.42064e-10
-2.42522e-11
1.4797e-11
-6.69601e-11
1.7197e-10
1.26792e-10
8.67913e-11
3.23317e-11
-1.04004e-10
-8.11455e-11
1.24329e-10
-7.13579e-11
-5.95639e-11
-5.54517e-11
-2.08499e-10
-1.55674e-10
-7.20436e-11
-1.70651e-11
1.99892e-10
1.25879e-10
3.17071e-10
2.63977e-10
4.63354e-11
-6.14148e-12
1.49986e-10
-1.64544e-11
1.86362e-10
1.39202e-10
1.33398e-11
-2.52923e-10
-5.37566e-11
1.45753e-10
-1.28248e-10
-9.9563e-11
-2.75435e-10
-9.55362e-12
-1.89877e-10
5.67828e-11
1.45917e-10
-2.0961e-11
-7.39201e-11
4.28691e-12
6.00036e-12
-1.81488e-10
-4.93138e-11
4.81665e-11
-1.68143e-11
-2.5116e-11
-9.37029e-12
9.04297e-11
5.59401e-11
1.71978e-11
8.43784e-12
1.82447e-10
1.15715e-10
3.57037e-10
4.79914e-10
1.41962e-09
2.62065e-09
4.75983e-09
8.52324e-09
1.55932e-08
2.84519e-08
5.14199e-08
9.22586e-08
1.65302e-07
2.94092e-07
5.21229e-07
9.17632e-07
1.61124e-06
2.81102e-06
4.88872e-06
8.4505e-06
1.45571e-05
2.4932e-05
4.25493e-05
7.22138e-05
0.000122109
0.000205388
0.000344162
0.000573794
0.000952967
0.00157512
0.00259335
0.00425039
0.00693919
0.0112802
0.0182664
0.0294597
0.0473331
0.0757635
0.120827
0.192023
0.304093
0.480067
0.755226
1.18509
1.85234
2.89236
4.48727
6.99435
10.7054
16.8661
-5.38125e-11
-2.5206e-11
-5.06563e-11
5.77074e-11
8.41672e-11
2.07935e-11
-2.44242e-11
-8.68285e-11
6.47609e-11
3.47327e-11