/*--------------------------------*- C++ -*----------------------------------*\
| =========                 |                                                 |
| \\      /  F ield         | OpenFOAM: The Open Source CFD Toolbox           |
|  \\    /   O peration     | Version:  2412                                  |
|   \\  /    A nd           | Website:  www.openfoam.com                      |
|    \\/     M anipulation  |                                                 |
\*---------------------------------------------------------------------------*/
FoamFile
{
    version     2.0;
    format      ascii;
    arch        "LSB;label=32;scalar=64";
    class       volScalarField;
    location    "0.0005";
    object      ddt0(rho,e);
}
// * * * * * * * * * * * * * * * * * * * * * * * * * * * * * * * * * * * * * //

dimensions      [1 -1 -3 0 0 0 0];

internalField   nonuniform List<scalar> 
180000
(
-1.02029e-07
-2.2226e-06
2.11881e-05
3.99692e-05
3.06599e-05
-0.000111116
-3.24956e-05
-1.17184e-05
4.75534e-05
4.31189e-05
-5.60578e-05
-8.49536e-06
-3.47207e-06
-4.7121e-07
1.26932e-05
3.17193e-05
-1.33937e-05
4.58759e-06
5.79943e-05
4.33463e-05
1.85771e-05
2.10322e-05
7.49709e-06
-3.28602e-05
2.96737e-06
4.12618e-05
1.34207e-05
2.41523e-05
-2.80393e-05
-4.54554e-05
-2.3619e-05
-0.000104735
-5.92752e-05
2.38605e-05
-5.60053e-05
-2.96934e-06
1.54276e-05
-1.30412e-05
-2.18881e-05
5.6564e-05
6.61357e-05
-2.63035e-05
-9.25191e-05
-0.000130619
2.87738e-05
-2.24196e-05
-5.96783e-05
-3.46071e-05
-5.32551e-06
6.75255e-05
1.65882e-05
-4.91765e-06
1.42248e-05
-5.97459e-05
-5.9841e-05
1.53088e-05
4.54018e-05
0.000115857
5.5086e-05
-1.81964e-05
-6.21985e-05
2.63754e-05
2.4274e-05
-2.65192e-05
-3.16924e-05
-3.75401e-05
-5.52302e-05
-2.37064e-05
5.26895e-06
-3.39009e-05
9.33696e-06
0.000100062
7.21737e-06
1.00747e-05
-3.52605e-05
-3.59726e-05
4.70217e-05
6.36983e-05
-4.49479e-05
-7.54949e-05
-6.03397e-05
-7.96062e-05
-2.75905e-05
1.65768e-05
3.38774e-05
4.2682e-06
-4.15512e-05
-2.35768e-05
3.99153e-05
5.74333e-05
6.19543e-05
1.45518e-05
-3.61075e-05
-8.30254e-06
-5.14751e-05
-0.000110167
8.99698e-06
4.98313e-05
4.90143e-05
2.5674e-05
-4.69993e-05
7.08833e-05
1.87517e-05
-4.37371e-06
-3.32134e-05
-7.33197e-05
1.3735e-05
-5.65713e-05
-4.29573e-05
-1.08471e-05
3.08332e-05
4.13891e-05
-6.8004e-05
-7.47287e-05
-6.25307e-05
-3.17757e-05
-3.46219e-05
-9.42401e-06
-3.06979e-05
-2.98058e-05
-4.26301e-05
-6.31626e-06
-9.89555e-06
-1.09872e-05
2.61142e-05
-5.15985e-05
-9.92765e-05
-6.18786e-05
4.0574e-05
-8.01842e-07
-3.26642e-05
6.05715e-05
-2.68711e-05
1.11911e-05
-2.88453e-05
-3.38909e-06
-1.36168e-05
3.59606e-05
2.32293e-05
-1.56034e-05
1.89299e-05
-2.80085e-05
-3.71021e-05
-6.35862e-05
-9.20939e-05
-6.94852e-05
-2.01495e-05
-5.1212e-05
-2.32983e-05
7.49731e-05
6.50438e-05
5.29635e-05
8.80757e-05
1.87634e-05
0.000118671
2.71616e-05
8.34145e-05
8.76801e-05
1.95074e-05
-3.76381e-06
-9.60296e-05
-8.92812e-06
-0.000126254
-0.000154182
-2.14564e-05
1.94578e-05
-7.7762e-05
-3.97844e-05
-2.39264e-05
-3.21164e-06
0.000135376
0.00011048
4.00053e-05
6.08706e-05
1.95017e-05
5.63664e-05
4.45596e-05
-4.60749e-05
-5.04453e-05
-7.90098e-05
-6.97172e-05
-0.000131422
-0.000137499
-7.80771e-05
-0.000126924
-2.14602e-05
6.66913e-05
2.73825e-05
-6.16742e-05
2.54362e-06
2.311e-05
3.49088e-05
2.56893e-05
6.04129e-05
-7.69629e-05
-6.58626e-06
6.90484e-05
3.6496e-05
6.5616e-05
9.05242e-05
3.60802e-05
-2.254e-06
1.95936e-05
-1.9231e-05
-4.17414e-05
-4.07097e-05
-2.38255e-05
-8.55079e-05
-0.000105372
-5.33645e-05
-6.08053e-05
-6.2522e-05
-1.58045e-05
7.2358e-05
3.50488e-05
4.04582e-05
-2.7683e-06
2.74762e-06
2.20954e-05
7.73916e-05
0.000160261
-3.79864e-05
-7.93403e-05
-0.000158373
-0.000139675
-8.85426e-06
-4.97772e-05
-5.90761e-05
-2.14782e-05
-1.47193e-05
3.30547e-05
0.000120134
8.04356e-05
7.05534e-05
5.12363e-05
-1.15653e-05
-4.98465e-05
7.74704e-06
1.77377e-05
-4.38179e-05
-3.95717e-05
3.18843e-05
3.8032e-05
8.53949e-05
-1.88664e-05
-2.13368e-05
1.20408e-05
8.92285e-05
0.000213838
0.000142322
0.000172318
0.000259035
0.000479074
0.000873944
0.00171067
0.003332
0.00600981
0.0105308
0.0198945
0.0365889
0.0607047
0.110246
0.214185
0.348929
0.560886
1.14377
2.02841
2.83237
5.30194
11.1348
15.6443
22.0219
51.8331
90.2799
100.756
192.096
452.288
581.933
667.533
1705.3
3182.81
3305.5
5207.97
12814.8
18648.2
20314
39734.4
78885.1
103475
138307
260151
434094
603230
920691
1.55963e+06
2.47284e+06
3.86736e+06
6.23499e+06
1.05349e+07
1.62782e+07
8.11793e-06
-1.53955e-05
-3.31484e-06
-3.12499e-05
6.41363e-05
7.0095e-05
-4.92942e-05
1.09047e-06
-2.19951e-05
5.35897e-05
-1.85437e-05
2.80866e-05
7.39611e-05
-1.42651e-05
-3.24691e-05
-5.19187e-05
-3.52663e-05
-3.54573e-05
1.58865e-05
6.73873e-05
2.98436e-05
-9.78775e-06
-2.60051e-05
-4.42049e-05
-1.44337e-05
-3.32848e-05
-2.08832e-05
-2.52759e-05
5.84567e-05
4.11323e-05
9.04219e-07
4.24338e-05
2.22942e-05
-1.24977e-05
-2.80166e-05
-2.83672e-05
-5.01555e-05
-2.8829e-06
-2.83402e-05
2.18622e-05
-6.88591e-05
-5.97181e-05
-6.27521e-05
-6.87302e-05
2.60631e-05
6.70615e-05
5.68098e-05
4.90284e-05
2.34666e-05
4.26946e-05
8.15693e-05
-1.16392e-05
-0.00010984
-1.25751e-05
-7.31893e-05
-7.58995e-05
-4.81143e-05
7.14938e-05
8.52812e-05
0.000115775
3.39344e-05
5.78761e-05
5.29491e-05
3.40489e-05
3.46574e-05
-6.99193e-06
-6.36882e-05
-5.15385e-05
-2.49098e-05
1.59567e-05
2.37434e-05
4.66091e-06
-4.81293e-05
-1.05171e-05
2.1525e-05
-5.04233e-05
5.13166e-06
-1.00371e-05
-5.04758e-05
-4.98322e-06
8.5754e-05
7.97328e-05
0.000101691
-4.04376e-05
-2.60211e-05
-3.64359e-05
4.09188e-05
5.43269e-05
0.000117775
2.52246e-05
9.49707e-06
-6.19154e-06
-3.62564e-05
-2.49619e-05
2.76483e-05
-1.66824e-05
1.37666e-05
-2.87444e-05
3.52408e-05
6.36103e-05
0.000108226
-4.87531e-06
4.60985e-06
1.38213e-05
6.67295e-06
4.6289e-05
-2.00555e-05
-5.53217e-05
-3.58879e-05
-5.61465e-05
-1.24856e-05
7.36047e-06
-4.94207e-06
9.65754e-05
6.15913e-06
1.68758e-05
5.71557e-05
-4.40963e-05
-7.17466e-05
7.04766e-05
-1.2207e-05
-4.28569e-05
-3.89072e-05
-0.00012519
5.15212e-05
4.60166e-05
1.73303e-05
5.48776e-05
5.55044e-05
6.78741e-05
1.31525e-05
-2.12039e-05
-1.91649e-05
-4.98828e-05
2.61314e-05
-2.18459e-05
4.88344e-05
-1.02908e-05
-0.000103388
-0.000111365
-1.33976e-05
3.94786e-05
-3.54593e-05
-2.16594e-05
4.00018e-05
4.65519e-05
-1.38987e-05
1.44314e-05
9.30662e-05
-4.52163e-05
7.25208e-05
0.00017125
6.49437e-05
1.83641e-05
-1.084e-05
-5.87721e-05
-4.84074e-06
-2.13218e-06
6.80038e-05
7.18626e-05
2.76397e-05
9.09883e-07
-4.32252e-05
-1.33172e-05
-1.98266e-05
-5.71849e-06
-1.80793e-06
-5.63578e-05
-3.10397e-05
-5.4332e-05
3.43897e-05
5.15497e-05
9.26567e-05
0.00013277
7.84384e-05
-6.43363e-05
-4.77503e-05
-4.12892e-05
-0.000184883
-8.27275e-05
-8.16972e-05
-3.21927e-05
3.80407e-05
5.24092e-06
6.72624e-06
1.5046e-05
9.37238e-05
1.95438e-05
5.02226e-05
2.84202e-05
6.15558e-05
9.50185e-05
2.66096e-05
2.40813e-05
-2.27307e-05
-4.18575e-05
5.88481e-06
-1.87433e-05
-3.9038e-05
-6.37431e-05
4.75841e-05
6.50385e-05
-4.43026e-05
-4.13309e-05
-5.6161e-05
4.72817e-05
-8.70707e-06
-0.000105518
-2.55225e-05
-1.78174e-06
-1.44977e-05
1.18914e-05
-9.78504e-06
-7.20092e-06
8.84581e-05
-2.53147e-05
4.9047e-06
3.16407e-05
-0.000112942
-2.05194e-05
-2.83095e-06
-8.66368e-05
-2.92558e-05
1.17786e-05
1.00429e-05
-4.98877e-05
-6.19199e-06
-1.07951e-05
-0.000124285
-7.50994e-05
-3.48674e-05
-2.22031e-06
0.000124064
0.000199383
1.60872e-05
4.56336e-05
2.42727e-05
-4.38956e-05
-1.24714e-06
-8.4897e-05
3.11352e-05
6.89028e-05
6.26855e-05
4.19775e-05
1.03406e-06
-8.11409e-05
-7.58059e-05
-5.37358e-05
6.00785e-05
0.000187819
0.000169267
0.000281567
0.000364383
0.000765284
0.00154429
0.00291883
0.00529324
0.00938489
0.0166787
0.0305412
0.0546872
0.0958735
0.1711
0.307852
0.529082
0.909267
1.63155
2.83339
4.66282
8.08899
14.4235
23.5935
38.1464
67.7881
115.964
179.126
295.558
525.717
842.443
1273.16
2162.7
3704.17
5632.49
8627.74
14652.3
23814.8
35612.5
55485.7
91366.9
143148
216092
337216
536705
831626
1.28068e+06
2.00164e+06
3.17496e+06
4.98702e+06
8.02561e+06
1.23417e+07
1.46561e-05
-4.95768e-06
-3.60837e-06
6.25188e-05
1.81764e-05
-3.04275e-05
-3.33099e-05
-4.34087e-05
3.29594e-05
3.46314e-05
-1.22746e-05
1.94582e-05
-7.00627e-06
-8.66479e-05
-4.81187e-05
3.23932e-05
5.63476e-05
-1.75866e-06
8.14536e-06
-1.19305e-05
3.8816e-05
3.13313e-05
-1.72083e-06
-5.9311e-05
-4.65149e-05
-3.5545e-05
6.12052e-05
6.5601e-05
8.50859e-06
6.25571e-05
-6.53425e-05
-8.3819e-05
-4.59242e-05
-2.55515e-05
0.000123839
3.31771e-05
-1.47898e-05
6.48236e-05
7.06759e-05
-5.98599e-05
-5.22315e-05
-4.44326e-05
-4.88303e-05
6.11464e-05
1.02258e-05
1.65829e-05
2.69611e-05
-1.92631e-05
-3.67876e-05
-3.56939e-05
2.10422e-05
-7.42724e-05
-0.000121003
-2.51671e-05
8.28002e-05
1.00228e-05
1.95162e-05
9.85197e-05
2.33276e-05
-5.20441e-05
-1.06363e-05
2.04796e-05
3.78769e-05
0.000107207
7.29155e-05
-1.39297e-05
-5.57979e-05
-9.99255e-05
-4.10186e-05
-1.36413e-05
-1.5821e-06
-3.50621e-05
1.00444e-05
-2.16166e-05
-6.83855e-05
-5.53138e-05
-3.07885e-05
5.7955e-05
4.49337e-05
0.000112152
-1.03388e-06
7.66122e-05
4.05447e-05
-8.03103e-05
-3.89454e-05
3.68376e-05
-1.59144e-05
-1.21664e-05
-1.84267e-05
-3.00338e-05
6.84583e-05
5.08219e-05
3.35232e-06
0.000112148
-8.20611e-06
-2.07064e-05
3.25052e-05
-1.33423e-05
-0.000109808
-8.15043e-05
3.61038e-06
-2.54835e-05
8.04629e-05
5.988e-05
-9.28031e-06
4.43348e-05
-5.03182e-05
5.42892e-06
5.21648e-05
-5.44155e-06
-1.4882e-05
-1.67452e-05
-1.42036e-05
-2.08713e-05
2.33899e-05
6.54934e-05
3.33908e-05
9.03767e-05
6.33128e-05
-1.6023e-05
6.59734e-05
9.71958e-05
8.873e-06
-1.31894e-05
0.000144285
8.40105e-05
-5.69084e-05
-0.000161142
-0.000122576
-2.71843e-05
-0.000100351
-0.000123972
-1.77918e-05
6.63402e-05
7.1346e-05
-1.68534e-05
3.05243e-05
0.00012235
3.42431e-05
7.15913e-05
1.88693e-05
3.55881e-05
0.000116525
-5.98392e-06
-5.90529e-05
-3.26649e-05
-7.4398e-05
-6.37715e-05
-9.44765e-05
-9.42693e-05
-3.71004e-06
4.74771e-05
-1.10073e-05
2.0546e-05
6.47118e-05
1.44463e-05
2.82644e-07
7.61765e-05
8.87249e-05
3.5185e-05
3.14082e-05
6.94786e-05
5.2834e-05
1.00612e-05
-2.55894e-05
-1.26529e-05
-1.86032e-05
6.21998e-05
6.9943e-05
4.6742e-05
-7.89699e-06
-4.61643e-05
-0.000108157
-5.32134e-05
-0.00012022
-6.09306e-05
2.35005e-05
8.96983e-05
-9.63309e-06
4.29286e-06
2.97933e-05
1.00808e-06
6.77104e-06
-3.47555e-05
4.66709e-05
3.33607e-05
5.26917e-05
5.8134e-05
-1.22322e-05
-8.30405e-06
-1.94824e-05
-9.03731e-05
-5.72566e-05
-5.75164e-05
4.45135e-05
3.45697e-05
6.18491e-06
4.15862e-05
6.47269e-05
1.5796e-05
1.7661e-05
2.97682e-05
2.27373e-05
-6.73516e-05
-0.000122529
-9.57526e-05
-1.49072e-05
-0.00014135
-1.26866e-05
0.000103442
5.57737e-05
6.63167e-05
-3.99992e-05
-6.58063e-05
-1.83108e-05
-4.00227e-05
5.27764e-05
0.000143507
-1.49484e-05
-1.4701e-05
-2.88627e-05
-0.000107798
-9.43112e-05
-0.000125107
-3.92337e-05
-1.5171e-05
7.33749e-05
0.000129608
8.0352e-05
-5.28972e-05
-0.000103969
-8.45008e-05
-8.51057e-06
7.3466e-05
4.9377e-05
-1.18123e-05
-1.09595e-05
-5.81471e-06
-1.59998e-05
-8.59105e-05
7.62802e-06
8.52666e-05
-3.18493e-05
4.80082e-05
4.02822e-05
-4.46405e-05
3.24292e-05
1.00008e-05
2.38715e-05
5.36319e-05
5.2793e-05
0.000136192
0.000356704
0.000608168
0.0012104
0.00215136
0.00375807
0.00703367
0.0127567
0.0229033
0.0409374
0.0732219
0.129589
0.228825
0.402301
0.703743
1.21961
2.11404
3.65022
6.23841
10.6013
18.0695
30.5576
51.0224
85.2898
142.845
236.072
386.211
636.099
1044.23
1687.86
2715.69
4402.22
7076.31
11228.2
17803
28358.3
44733.4
69977.4
109449
171506
266773
413502
640429
995257
1.5399e+06
2.40255e+06
3.71512e+06
5.93463e+06
8.95782e+06
2.09964e-05
1.03233e-05
-5.60074e-05
1.68774e-05
1.47144e-05
4.80116e-06
-4.53155e-05
-6.61238e-05
-1.4792e-05
6.32013e-05
2.85343e-05
1.90481e-05
4.61926e-05
-8.8774e-06
3.09799e-05
5.68017e-06
-4.02505e-05
-4.57215e-05
-8.45767e-05
2.3683e-05
1.75139e-07
-3.07222e-06
6.69971e-05
9.36588e-05
4.54934e-05
-8.52861e-05
-3.35776e-05
-5.09637e-05
-4.85269e-05
1.54887e-05
-6.52382e-05
2.79962e-05
-1.33778e-05
-8.15145e-05
7.79527e-05
0.000132956
0.000132617
9.32249e-05
-2.70512e-05
2.06562e-05
5.14834e-05
1.74069e-05
-8.00291e-05
-0.000100716
-4.89296e-05
-2.02508e-05
2.72404e-06
5.97118e-05
9.8032e-06
2.51985e-05
-8.32501e-05
-7.65969e-05
4.73348e-05
-2.88087e-05
-7.74407e-05
1.35419e-05
3.56105e-05
1.32289e-05
-1.35804e-05
2.71024e-05
-3.9078e-05
-4.90492e-07
5.04269e-06
-2.55192e-05
6.86209e-05
8.08075e-05
4.67181e-05
-8.215e-07
3.77468e-06
4.57785e-06
1.7859e-05
-1.22841e-05
1.44616e-05
3.12504e-05
1.73601e-05
-1.95121e-05
1.37319e-05
3.71941e-05
2.71511e-07
-1.89776e-07
3.65331e-05
-3.4319e-05
-9.60427e-06
6.68508e-05
1.08208e-05
6.71192e-05
5.81326e-05
1.03117e-05
-2.44975e-05
-3.07557e-05
-7.84567e-05
-4.23668e-05
-7.19958e-05
-1.57648e-05
5.08622e-05
8.76776e-06
3.77616e-05
2.31211e-05
3.93952e-05
2.38822e-05
8.44771e-05
-1.84444e-05
-8.09593e-05
-5.28503e-05
-9.19255e-05
-3.2483e-05
7.51411e-06
-2.578e-05
5.00376e-05
8.52427e-06
-5.47024e-05
1.13869e-05
-1.93578e-05
-9.21059e-05
-2.92382e-05
5.71035e-05
4.61716e-05
1.02502e-05
-1.112e-05
3.79068e-05
8.73981e-06
-6.90049e-05
-1.4181e-05
1.07048e-05
8.27301e-05
9.5083e-05
5.96082e-05
4.09493e-06
1.21453e-05
-2.5907e-05
1.13719e-06
5.35123e-05
-6.98902e-05
-3.23662e-06
3.33104e-05
1.42597e-05
5.13419e-05
2.3945e-05
3.90965e-05
3.92538e-05
2.20837e-05
-2.3388e-05
3.4813e-05
2.19119e-05
-4.06881e-05
3.02996e-06
-2.78091e-05
3.70073e-06
-5.16974e-06
6.78443e-06
1.28786e-05
-0.000111953
-1.08372e-05
-6.61218e-06
-2.26494e-05
-7.61831e-06
0.000100088
2.87905e-05
7.3478e-05
0.000102655
0.000126602
5.89502e-05
7.13958e-06
0.000129045
7.49536e-05
-9.05358e-05
-9.00732e-05
-8.50898e-05
2.2773e-05
-1.41224e-06
-6.20121e-05
-2.37872e-05
-6.30659e-06
-7.29115e-05
-8.51695e-06
5.32403e-06
-7.99689e-05
8.54279e-06
5.65501e-05
-7.0052e-06
3.09138e-05
2.69205e-05
2.04035e-05
-2.82326e-06
-1.55306e-05
2.26708e-06
-6.40039e-05
-1.88765e-05
4.31745e-06
8.31362e-06
5.84943e-05
7.82957e-05
9.8927e-05
4.14217e-05
-4.03771e-06
8.55936e-06
9.30956e-06
-8.31662e-05
-0.000106331
-3.39439e-05
-3.15313e-05
5.34095e-05
2.08488e-05
4.18867e-05
1.76764e-05
-5.07722e-06
9.6861e-06
-2.80215e-05
-3.87804e-05
-5.34494e-05
-8.00097e-05
-3.206e-05
-3.81204e-05
2.27925e-05
6.86987e-05
2.47252e-05
-4.13815e-07
-2.54378e-05
-3.18487e-05
-3.89188e-05
-3.42844e-05
-4.84051e-05
-1.58379e-05
-1.484e-05
-1.65936e-05
2.13041e-05
4.27857e-05
-1.18953e-05
8.28469e-05
-2.73521e-05
-4.40066e-05
-2.05663e-05
-3.9347e-05
-5.19294e-05
2.46745e-05
2.17069e-05
3.50302e-05
1.65719e-05
4.71592e-05
1.49264e-05
-3.62572e-05
-3.55629e-05
9.29611e-06
3.98542e-06
3.20995e-05
5.07179e-05
4.88511e-05
-3.93738e-05
3.34251e-05
4.53749e-06
0.000134719
0.000176632
0.000259267
0.000408158
0.000712227
0.00138569
0.00264103
0.00465326
0.00838812
0.0153778
0.0274588
0.0492478
0.0874016
0.154765
0.272137
0.477119
0.830858
1.4418
2.48496
4.27047
7.29662
12.4023
20.9701
35.3413
59.2207
98.6492
163.731
270.677
444.881
726.965
1184.97
1922.33
3101.4
4977.35
7972.59
12704
20148.5
31805.8
50123.5
78601.4
122841
191201
297381
460552
713540
1.09984e+06
1.71018e+06
2.62018e+06
4.16197e+06
6.18307e+06
-4.04437e-05
1.23101e-05
4.40963e-05
2.4827e-05
-1.60145e-06
-1.23299e-05
-3.22438e-05
1.90306e-05
-2.44841e-05
-1.35641e-05
3.69342e-06
-4.05899e-05
-2.78955e-05
-1.14826e-05
-4.71597e-05
3.17604e-05
7.58957e-05
2.71395e-06
-5.33975e-06
3.31355e-05
8.17243e-06
-6.39139e-05
1.81732e-05
7.18051e-05
5.58197e-05
-6.59615e-05
-4.8858e-05
8.51862e-06
-1.1573e-05
-5.04085e-05
-1.9532e-05
-7.28169e-05
-3.28378e-05
7.36298e-05
9.49711e-05
1.22257e-05
3.05366e-05
5.85359e-05
-2.17051e-05
-3.99968e-05
-3.40066e-05
4.94207e-06
1.66794e-05
5.62568e-05
5.20704e-05
4.51243e-05
1.98757e-05
-9.13828e-05
-1.45401e-05
-7.79397e-05
-8.89274e-05
-7.48899e-05
-7.31858e-05
-1.12811e-05
7.44809e-05
0.000157302
9.69495e-05
9.1263e-05
0.000122077
3.89936e-06
-0.000104252
-8.63512e-06
-5.51212e-05
-7.45977e-05
3.52109e-05
-2.98631e-05
-5.50033e-05
-1.94862e-05
1.87423e-06
1.04756e-05
6.68391e-07
2.34611e-05
-1.97275e-06
5.57405e-05
0.000140911
8.99709e-05
0.000155922
6.48096e-05
1.11764e-05
2.02542e-05
1.3945e-05
-4.97133e-05
-7.42866e-05
8.27394e-06
-8.34814e-06
-7.05344e-05
-4.5321e-05
-5.01045e-05
2.37505e-05
3.31272e-05
-9.82756e-05
-5.65893e-05
9.38597e-06
3.15526e-05
1.86706e-05
7.82056e-05
7.71835e-05
-1.10757e-05
-9.99251e-05
-6.44507e-05
4.94186e-05
-2.01923e-05
-0.000125105
8.61482e-05
7.79575e-05
9.66773e-06
-4.00626e-05
-9.26213e-05
-6.78455e-05
5.69147e-05
0.000100587
0.000116658
6.87396e-05
3.74463e-05
-4.54168e-05
-7.53884e-05
-2.91199e-05
-3.94004e-05
-3.03481e-05
-9.5252e-05
-6.63473e-05
3.62863e-05
-1.9994e-05
2.79617e-05
-5.36074e-06
-3.96582e-05
-4.04807e-06
8.67178e-06
0.000101709
0.000125883
-7.62021e-07
-2.79539e-05
1.01103e-05
-6.36186e-06
-7.01884e-05
4.84789e-05
3.4202e-05
-7.86909e-05
-1.12511e-05
-2.93172e-05
-7.76314e-05
4.50189e-05
8.25496e-06
-0.000104599
-2.90247e-05
-2.41758e-05
-2.79202e-06
6.23149e-05
8.67783e-05
5.34332e-05
4.0651e-05
-3.6896e-05
-6.47306e-05
5.83874e-05
-2.46703e-05
-4.75718e-05
-2.91484e-07
5.69542e-05
6.06008e-05
6.89283e-05
4.09181e-05
2.34811e-05
1.97862e-05
-1.35727e-05
-3.30569e-05
2.66654e-05
5.00864e-05
1.54571e-06
1.66058e-05
9.76014e-05
-2.43132e-06
1.84719e-05
3.46149e-05
1.41413e-06
5.09171e-05
1.17961e-05
-6.8619e-05
-4.48533e-05
1.17844e-05
4.7843e-05
5.24768e-06
4.96258e-05
5.48087e-05
-4.09319e-05
1.99559e-05
-6.6522e-06
-1.5244e-05
-4.46803e-06
-3.57893e-05
1.94389e-05
8.9005e-05
4.55736e-05
8.60428e-06
5.30621e-05
-1.01828e-05
2.97363e-06
-4.02266e-05
-5.969e-05
-1.70818e-05
2.25629e-05
-2.25335e-06
-8.18169e-05
4.66087e-05
-4.35195e-05
-2.90315e-05
1.71611e-05
3.32746e-05
8.65501e-05
7.23465e-06
6.77739e-06
-8.38642e-05
4.04581e-05
2.01965e-05
-4.08066e-05
-7.58298e-05
-7.7568e-05
8.73406e-05
5.96412e-05
-1.48825e-05
-4.83305e-06
4.90282e-05
-4.28791e-05
8.3999e-06
1.81718e-05
4.72576e-05
3.27884e-05
6.00837e-05
-6.56512e-05
-3.33533e-05
-3.43732e-06
-5.27263e-05
4.29276e-05
7.18295e-05
5.57066e-05
-7.24295e-07
4.24453e-05
2.96746e-05
-3.16484e-05
-8.57272e-05
-7.33887e-05
-7.16576e-05
4.8839e-06
6.85884e-05
-6.31084e-05
-8.58213e-05
-5.39802e-05
-2.17599e-05
5.84846e-05
6.8426e-05
7.37502e-05
0.000157413
0.000111761
0.000173205
0.000218714
0.000477281
0.00086532
0.00155879
0.0028829
0.0051924
0.00928613
0.0167502
0.0301122
0.0535173
0.0951015
0.167604
0.294848
0.514544
0.895842
1.54878
2.66934
4.57098
7.80029
13.2324
22.357
37.567
62.8673
104.668
173.447
286.095
469.802
767.981
1249.09
2023.79
3263.84
5242.43
8378.15
13347.5
21167.1
33452.1
52620.1
82576.1
129023
201180
312258
484981
748229
1.16404e+06
1.77704e+06
2.82347e+06
4.14686e+06
1.43954e-05
2.65348e-05
1.95337e-05
-6.03158e-05
-7.16366e-05
4.81175e-05
4.36543e-05
9.60666e-06
-4.76879e-05
-9.48091e-06
4.48971e-05
3.82294e-05
-1.04499e-05
3.67159e-05
4.24831e-05
-7.98055e-06
3.7081e-05
1.16087e-05
-2.09526e-05
-5.42437e-05
1.24337e-05
-4.55163e-07
-6.00932e-05
1.46544e-05
7.36942e-05
1.95137e-05
6.42238e-05
-4.62613e-05
-7.34533e-05
3.58391e-05
1.28473e-05
3.46682e-06
-3.25248e-05
-2.24274e-05
4.01519e-05
1.53247e-05
-4.412e-05
-8.26302e-05
-7.34421e-05
4.81461e-06
3.34124e-05
7.24875e-05
2.44082e-05
6.98702e-05
4.0292e-05
-1.82566e-05
-2.49357e-05
-2.29967e-05
-5.84582e-05
-2.57035e-05
1.76277e-05
7.23107e-05
-3.77878e-05
-3.9105e-05
-8.20992e-06
2.08994e-05
3.47421e-05
4.51487e-05
5.37898e-05
3.18467e-05
6.48028e-05
-3.976e-05
-0.000118871
-6.64074e-05
-7.9006e-05
-0.000123899
-0.000109299
-3.38834e-05
9.5397e-05
0.000113394
0.000119685
0.000148728
0.000157124
1.9821e-05
-4.94206e-05
-7.11695e-05
-6.28428e-06
-8.00017e-05
-9.36108e-05
2.4091e-05
8.34987e-05
5.35444e-05
3.27192e-05
-1.59901e-05
-7.00073e-06
-1.11546e-05
-3.09262e-05
-2.49717e-05
6.12508e-05
8.5806e-05
3.82369e-05
2.76493e-05
5.96225e-05
2.76328e-05
1.73155e-05
3.50657e-05
-1.03678e-05
1.14967e-05
-1.57491e-05
5.52274e-05
-9.68856e-06
-4.11872e-05
1.90247e-06
1.42615e-05
2.09905e-05
2.25519e-06
5.39017e-06
-2.93774e-05
-1.46845e-06
5.7862e-05
2.5454e-05
-8.48968e-05
-0.000102765
-4.90981e-05
-5.73466e-05
-7.26935e-05
1.68893e-06
2.3094e-05
1.94755e-05
-5.25029e-07
1.30655e-05
1.93429e-05
3.9773e-05
2.61866e-05
-2.15876e-05
-2.73743e-05
5.63484e-05
1.17519e-05
-1.45971e-05
-5.91092e-05
-1.84537e-05
-3.40076e-05
-5.50438e-05
1.59727e-06
5.13835e-05
0.000142458
-4.61331e-05
-0.000102185
1.1564e-05
6.97039e-05
-1.77886e-05
5.21461e-05
0.00011899
2.02963e-07
-2.58895e-05
-4.92804e-05
-3.02348e-05
6.53498e-05
1.93726e-05
2.61248e-05
3.46484e-07
4.57171e-05
3.2322e-05
-1.38789e-05
1.08704e-05
-8.24005e-05
9.05031e-07
2.94939e-05
1.3826e-05
-2.19366e-05
-9.01686e-05
-3.83176e-05
-5.551e-05
-4.85853e-06
3.01174e-05
-5.73319e-05
-8.54219e-05
2.03134e-05
5.99837e-05
5.62558e-05
-1.99757e-06
-1.60378e-05
1.56242e-06
7.0431e-05
4.39962e-05
-1.70119e-05
5.17424e-05
3.63326e-05
3.65346e-05
-1.50303e-05
-5.35108e-05
1.92496e-05
9.05676e-05
6.26283e-05
-3.71519e-05
-1.83009e-05
-5.26284e-05
-7.0931e-05
1.19024e-05
-2.37927e-05
-8.76408e-05
9.56942e-06
8.19066e-05
0.000108943
4.73322e-05
9.01791e-05
3.27121e-05
-2.25277e-05
2.76285e-05
-7.67676e-05
-3.54551e-05
-5.41291e-05
-3.85984e-05
-5.63487e-05
-2.71641e-05
-3.93673e-05
-5.39947e-05
-8.42681e-05
-8.67437e-05
-6.65111e-05
8.30984e-06
7.40754e-05
-1.98266e-05
6.9601e-06
-1.83918e-05
-8.76631e-06
-1.60137e-06
5.41423e-05
6.70821e-05
3.11288e-05
2.61337e-05
4.65454e-05
-6.3719e-06
-2.15536e-05
-6.01577e-05
-3.06482e-05
3.5935e-05
8.2572e-05
2.6525e-05
-5.18649e-05
-7.43926e-05
-8.4101e-05
-5.82573e-05
-1.77132e-06
4.03717e-05
1.78233e-05
5.00728e-05
1.34706e-05
2.73098e-05
-1.48543e-05
-3.12761e-05
0.000102974
1.65764e-06
3.92672e-05
9.02742e-05
-1.8054e-06
2.08849e-05
2.30597e-05
-3.37949e-05
9.66163e-06
-8.4947e-05
-8.80114e-05
8.93214e-05
0.000182373
0.000280927
0.000467347
0.000899211
0.00162683
0.00293247
0.00516188
0.00934419
0.0168269
0.0301664
0.0538144
0.0950021
0.167867
0.294151
0.514205
0.892035
1.54397
2.65332
4.54699
7.74204
13.1396
22.1672
37.2602
62.2867
103.718
171.83
283.464
465.462
761.033
1238.86
2007.58
3240.68
5207.96
8338.37
13290.5
21116.4
33404.7
52690.8
82751.3
129714
202361
315795
489026
764068
1.16742e+06
1.86325e+06
2.71723e+06
7.53558e-07
-1.79261e-05
-2.09213e-06
4.3841e-05
-1.37052e-05
-1.53705e-06
1.84953e-05
-3.67407e-05
7.09158e-05
-1.50899e-05
-4.96916e-05
-7.07373e-06
-5.76861e-05
5.90543e-05
3.85016e-05
-3.86006e-05
1.46867e-06
6.00802e-05
-4.31194e-05
-8.8093e-06
3.51342e-05
9.32107e-06
0.00014271
-3.11655e-05
-3.56384e-05
-6.77829e-05
-0.000100937
7.15792e-06
4.73124e-05
3.85164e-06
-4.42192e-05
1.89047e-05
1.02821e-05
3.65669e-05
-2.22358e-06
-2.41034e-05
9.1229e-06
-1.00313e-05
-7.06394e-05
-8.88348e-05
9.30915e-06
4.51057e-05
-6.75881e-05
-3.19944e-05
1.71582e-05
7.29638e-05
0.000107041
0.000181709
4.2097e-05
2.03968e-05
1.07674e-05
3.10335e-06
2.99796e-06
-1.85262e-05
-1.34505e-05
9.24993e-06
-4.74326e-05
-8.8722e-05
-2.81646e-05
-6.23431e-05
-1.99086e-05
1.67737e-05
-7.21061e-06
4.40075e-06
1.34062e-05
0.000102029
0.000108626
4.40349e-05
2.11215e-05
-2.63495e-06
-2.68677e-05
2.22277e-06
-5.63911e-06
-3.82276e-05
-4.6174e-05
-2.20066e-06
-9.2882e-05
-5.47873e-05
4.33941e-05
1.80304e-05
7.12029e-05
6.3843e-05
3.66211e-05
5.98657e-05
4.32352e-05
6.54428e-05
-7.6984e-05
-4.12002e-05
3.80044e-06
4.87692e-05
3.98194e-05
6.89729e-05
0.000137835
1.691e-05
2.60324e-05
1.74226e-06
-8.27447e-05
-6.44005e-05
-3.71923e-05
4.39486e-05
5.11436e-05
-9.39944e-06
-8.75118e-05
-7.51453e-05
2.39609e-06
7.17009e-05
-1.0491e-05
-7.07188e-05
-3.38066e-05
-6.86976e-05
-5.06718e-05
-8.71513e-05
-5.41677e-05
2.51485e-05
-9.30627e-06
-2.84049e-05
1.60128e-05
2.51168e-05
3.25619e-05
7.17854e-05
-3.21524e-06
2.8837e-08
0.000123899
8.89615e-05
-0.000136302
-6.70005e-05
6.15661e-05
4.14708e-05
-8.12182e-05
-3.03856e-05
-2.8125e-05
-0.00010064
-4.14166e-05
2.1916e-05
4.68247e-05
5.11893e-05
6.84711e-05
7.533e-05
-1.55403e-05
-4.19795e-05
-1.13145e-05
-3.66564e-05
-3.10513e-05
-4.64766e-05
3.68757e-05
7.37303e-05
4.90167e-05
7.28952e-05
5.93771e-05
0.000109148
0.000138089
3.66079e-05
-2.64691e-05
1.66981e-05
6.50205e-05
6.3183e-06
-3.50211e-05
-0.000135753
-9.5932e-05
-0.000101085
-0.000104117
-0.000119079
-9.57133e-06
2.09522e-05
5.08717e-05
7.42334e-05
-3.53351e-05
-5.63379e-05
1.69812e-05
-2.25922e-05
4.70615e-05
-5.40205e-06
-2.04488e-05
9.70401e-05
5.31696e-05
5.11176e-05
5.95168e-05
1.02938e-05
9.19852e-05
7.57228e-05
-7.67081e-05
-2.79517e-05
1.28968e-05
-6.61066e-05
-8.0876e-05
-8.10863e-06
3.23279e-05
4.05806e-05
-1.70833e-05
-2.86915e-05
2.71253e-06
1.10914e-05
-3.38222e-05
5.00582e-05
-5.04375e-06
2.09831e-05
9.59468e-05
3.01016e-05
-5.58684e-05
-4.01272e-05
2.41587e-05
0.000126234
-3.45169e-05
-0.000118169
-9.25111e-05
9.54945e-06
-8.63776e-05
-4.90007e-05
-4.8535e-05
-7.59867e-06
2.5211e-05
3.12659e-05
5.8447e-05
3.57523e-07
2.89867e-05
7.71735e-05
4.47661e-05
6.27497e-05
2.87241e-06
-2.81004e-05
2.45402e-05
2.85641e-05
-6.87487e-05
-8.83315e-05
-9.63088e-05
-4.74193e-05
-2.46952e-05
1.43656e-05
-8.87081e-06
7.91592e-05
-1.72444e-05
9.84991e-06
2.38425e-05
-7.34558e-05
2.32098e-05
-4.39376e-05
-8.75829e-05
-0.00010928
-9.19306e-06
3.79525e-05
-5.82068e-05
2.69149e-06
1.23808e-06
-2.29842e-05
4.00756e-06
3.9123e-05
3.16682e-05
5.86979e-05
0.000112676
0.000102006
6.94128e-05
1.47458e-05
2.65202e-05
8.0506e-07
-4.30076e-05
0.000153207
0.000434292
0.000879326
0.00149573
0.00279099
0.00502074
0.00887891
0.0158048
0.0283435
0.0503102
0.089255
0.157064
0.275865
0.480618
0.836
1.44296
2.48575
4.25174
7.25452
12.2975
20.7864
34.9239
58.4862
97.4089
161.664
266.939
439.116
719.022
1172.74
1904.58
3080.79
4964.27
7966.9
12740.9
20294.1
32228.8
50971.9
80442.9
126348
198521
309297
486545
746164
1.20004e+06
1.74403e+06
4.45957e-06
3.07175e-05
-2.13932e-05
-1.53346e-05
-4.22147e-05
-1.88751e-06
-3.21e-05
-6.94654e-05
3.18813e-05
5.818e-05
5.26132e-05
3.07787e-05
1.73762e-05
2.38832e-05
2.85672e-05
3.62796e-05
-4.69844e-05
6.62809e-05
2.84222e-05
-7.0163e-05
6.37077e-07
-1.22612e-05
-0.000111408
-7.09998e-05
-4.33509e-05
1.16136e-05
3.48785e-05
0.000122458
4.37944e-05
-1.66813e-05
2.32428e-05
7.55029e-06
-0.000156106
-7.70196e-05
-6.58023e-05
-2.47573e-05
-7.63836e-06
1.21577e-05
1.54431e-05
0.000104882
1.88558e-05
-4.43201e-05
3.91962e-05
-2.23635e-05
-2.32208e-05
1.07773e-05
5.46447e-05
3.10874e-05
-5.66557e-05
-1.03264e-05
3.61404e-05
6.27807e-05
2.28925e-05
4.08289e-05
1.43986e-05
-8.30186e-07
6.62559e-05
-4.21544e-05
-0.000137598
-2.29738e-05
-1.1754e-05
7.62594e-07
5.79215e-05
9.30782e-05
0.000112939
4.1232e-05
-2.64827e-05
-1.03106e-05
-2.42615e-05
-4.79587e-05
-5.41213e-05
1.63153e-06
8.72868e-06
6.42865e-05
6.31347e-05
4.82066e-06
2.96094e-05
5.80173e-05
-4.98134e-06
-0.000104592
-7.7112e-05
6.09312e-05
-5.80971e-05
-3.67413e-05
4.20808e-05
-8.80739e-05
-7.08431e-05
2.90775e-05
7.36118e-06
-1.58884e-05
1.55912e-05
9.93505e-05
0.000132242
6.02843e-08
-0.000134831
-0.000101016
-4.86201e-05
-0.000113746
-0.000104651
-8.2394e-06
-4.49283e-05
-8.18131e-05
-7.43664e-06
-7.16395e-05
-3.36374e-06
0.000150735
0.000105867
3.26825e-05
-9.38888e-05
-3.5484e-05
5.70219e-05
2.44356e-05
-5.72869e-05
-3.76431e-07
-3.87876e-05
-4.74616e-06
1.11967e-05
1.85925e-06
6.17824e-06
4.94632e-05
-7.13759e-05
-1.85513e-05
-7.05172e-07
-7.55511e-05
-1.87618e-05
6.66238e-05
3.31945e-05
5.79395e-05
0.000107438
1.98871e-05
-6.39771e-05
2.17764e-05
3.4637e-05
-2.33838e-05
7.36181e-05
6.08726e-05
1.36241e-05
1.59307e-05
6.57759e-05
1.26242e-05
7.06517e-06
7.80956e-05
2.08736e-05
-5.61929e-05
-6.29753e-06
-2.28017e-05
3.31163e-05
-9.08341e-06
3.7639e-05
2.4362e-05
2.01004e-05
2.80822e-05
-3.86116e-05
-8.07414e-06
-3.99534e-05
-5.90692e-05
-8.73226e-05
5.49743e-05
1.8355e-05
-1.35201e-05
5.96795e-05
0.000133328
-5.36165e-05
-4.68198e-05
-3.00893e-05
2.93934e-05
5.16356e-05
-3.51061e-05
6.9187e-05
2.87864e-05
-3.4328e-05
-2.40131e-05
-4.58003e-05
-1.8237e-05
2.10417e-05
3.19436e-05
-2.26591e-05
3.07089e-05
3.65372e-05
4.50027e-05
-2.32953e-06
3.37512e-05
3.73519e-05
-9.59092e-05
-6.55526e-05
3.43666e-05
4.29165e-05
1.89776e-05
6.85478e-05
4.78715e-05
1.34992e-05
0.000116305
5.65242e-05
-3.19638e-05
-2.04952e-05
3.87502e-06
-5.23949e-05
-2.7431e-05
7.77694e-06
-2.5588e-05
1.87047e-05
-3.77535e-05
-7.91149e-05
-3.34049e-05
-2.31466e-05
3.59994e-05
2.25748e-05
-6.11273e-05
-2.90635e-06
3.8994e-05
4.62911e-05
0.000143457
0.000129228
9.42691e-05
7.97083e-05
-1.04838e-07
-3.27772e-05
-9.71553e-05
-7.17732e-05
-6.1297e-06
1.69126e-05
-1.53868e-05
-1.16816e-05
-6.55556e-05
-7.55922e-05
1.48778e-05
7.96278e-05
-2.58398e-05
-8.08428e-05
-4.99143e-05
3.69479e-06
7.82012e-05
5.36049e-06
4.72391e-05
-4.13327e-05
-6.74313e-05
-3.692e-05
-3.11127e-06
-2.2542e-05
-5.22273e-05
5.75151e-05
3.40582e-05
-4.68567e-06
1.94764e-05
5.68931e-05
2.72691e-05
-1.40498e-05
-2.14714e-05
2.03833e-05
3.97068e-05
-9.83814e-06
9.1304e-06
3.42028e-05
0.000141846
6.35676e-05
6.10684e-05
0.00019048
0.000421298
0.000767249
0.00128089
0.00234493
0.00439504
0.00782614
0.0140035
0.0249962
0.0446902
0.0789683
0.139559
0.244262
0.427452
0.741817
1.28591
2.21159
3.79785
6.475
11.0176
18.6229
31.4025
52.6318
87.9672
146.219
242.298
399.488
656.482
1073.9
1750.64
2842.01
4597.37
7409.52
11898.2
19045.3
30369.1
48317
76504.8
121190
190236
301762
465358
755688
1.09729e+06
5.53602e-06
2.4446e-05
-2.13825e-05
-3.05106e-05
-5.87249e-05
-3.9594e-07
1.78971e-05
4.27698e-05
1.63219e-05
1.18282e-05
-1.37498e-05
1.956e-05
6.44275e-05
1.30498e-05
5.81898e-06
-1.48344e-05
9.11565e-05
-6.74093e-06
-4.66109e-05
-3.57866e-05
-3.74759e-05
-2.31426e-05
5.34518e-05
3.97386e-05
-1.2805e-05
4.3164e-05
1.62772e-05
-7.04517e-05
-0.000100868
-3.96468e-05
-2.47929e-05
2.47814e-05
9.48503e-05
-1.91633e-05
-5.55834e-05
-2.42788e-05
6.7311e-05
3.2597e-05
-2.32647e-05
-9.13237e-05
4.65372e-06
-2.44848e-05
-2.95327e-05
-5.85589e-05
-6.63677e-05
-1.02195e-05
4.39677e-05
3.46448e-05
5.9176e-05
2.66413e-05
9.33091e-05
2.89899e-05
-3.52432e-05
5.68093e-06
1.14701e-05
6.69512e-05