/*--------------------------------*- C++ -*----------------------------------*\
| =========                 |                                                 |
| \\      /  F ield         | OpenFOAM: The Open Source CFD Toolbox           |
|  \\    /   O peration     | Version:  2412                                  |
|   \\  /    A nd           | Website:  www.openfoam.com                      |
|    \\/     M anipulation  |                                                 |
\*---------------------------------------------------------------------------*/
FoamFile
{
    version     2.0;
    format      ascii;
    arch        "LSB;label=32;scalar=64";
    class       volScalarField;
    location    "0.0005";
    object      ddt0(rho);
}
// * * * * * * * * * * * * * * * * * * * * * * * * * * * * * * * * * * * * * //

dimensions      [1 -3 -1 0 0 0 0];

internalField   nonuniform List<scalar> 
180000
(
-5.24306e-12
3.1096e-11
1.71589e-10
-3.06304e-11
-1.58863e-11
-2.09312e-11
-8.60953e-11
-6.02563e-11
-4.02655e-11
-8.10008e-11
-1.34789e-10
-1.63661e-10
-1.27073e-10
-8.15368e-12
1.79605e-10
9.49726e-11
3.58189e-11
2.03802e-11
-1.14682e-10
-6.53572e-11
1.07423e-10
4.17255e-11
8.95867e-11
1.14446e-10
9.49869e-11
2.97701e-11
5.68577e-11
-1.06581e-10
-1.94136e-11
-2.65956e-11
-1.23279e-10
-1.49653e-10
-1.77179e-11
-3.67764e-11
2.4623e-10
1.81248e-10
1.19082e-10
1.09785e-10
-2.53269e-12
-2.58257e-11
9.33447e-11
-8.90125e-12
1.09799e-10
8.71206e-11
-6.32503e-11
-4.15559e-11
-1.02671e-11
-1.1554e-10
-9.58051e-11
-1.40524e-10
-1.5565e-10
2.3181e-11
6.8071e-11
9.69622e-11
4.51435e-11
-7.53158e-11
-2.15678e-10
-1.4438e-10
-5.46451e-11
4.75341e-11
-7.03182e-11
-7.39781e-11
-2.65966e-11
-5.27828e-11
-1.38383e-10
-7.48946e-11
1.05914e-10
1.07754e-10
7.27425e-11
3.28184e-11
1.35176e-11
1.17719e-10
5.70832e-11
1.16207e-10
4.18691e-11
4.43275e-11
1.59029e-10
7.64273e-11
7.08057e-11
-6.30175e-12
-5.41246e-11
2.65436e-11
-1.4962e-10
-2.42904e-10
-1.13978e-11
-3.71294e-11
-8.39984e-11
1.06196e-10
2.12971e-10
2.50592e-10
9.98035e-11
1.42822e-10
9.61457e-11
-7.47883e-11
-2.14151e-12
7.06207e-11
-4.7448e-11
8.889e-12
-1.26374e-10
5.60514e-11
1.0778e-10
2.06779e-10
2.21406e-10
2.63827e-10
1.44399e-10
4.24186e-11
3.95218e-11
1.45629e-10
6.37716e-11
1.03798e-10
8.30035e-11
8.40384e-11
-7.71029e-11
-8.4518e-11
-8.06294e-11
-1.84047e-11
3.46233e-11
-2.78234e-11
2.60672e-11
6.43788e-11
1.43486e-10
6.67377e-11
5.10287e-11
-1.1057e-11
-4.74141e-11
-6.6997e-11
-1.00006e-10
-9.62391e-11
-2.13744e-10
-1.97959e-10
-9.07857e-11
1.61345e-13
-1.16256e-10
3.97336e-11
9.72582e-11
1.90359e-10
7.30818e-11
6.4353e-12
2.76249e-11
1.9269e-10
1.4527e-10
2.91633e-10
1.73675e-10
1.56487e-10
2.84106e-10
1.35841e-10
1.40253e-10
2.16647e-10
1.17937e-10
5.22733e-11
1.30971e-10
1.19619e-10
1.4891e-10
1.04878e-10
9.44336e-11
1.05317e-10
1.12283e-10
1.40955e-10
3.04788e-10
1.20984e-10
5.92939e-11
2.73279e-10
2.90705e-10
3.88354e-10
3.41628e-10
3.97175e-10
2.00607e-10
1.84687e-10
1.92419e-10
1.97872e-10
9.67814e-11
2.16236e-10
7.69345e-11
-5.25245e-11
-1.92898e-11
-6.20554e-11
1.39975e-11
-1.54193e-10
-1.61507e-10
-7.06415e-11
-3.76602e-11
-1.95789e-12
-5.4909e-11
-3.93224e-11
-5.45517e-11
-1.08723e-10
-2.59517e-11
-3.39848e-11
-8.23578e-13
-1.34634e-10
2.3455e-11
3.35133e-11
6.36184e-11
-3.84415e-11
-4.36106e-11
-7.80068e-12
1.65772e-10
1.8997e-10
1.63532e-10
5.45778e-11
1.36868e-10
1.52615e-10
1.27468e-10
1.89147e-10
2.53282e-10
2.2665e-10
1.21403e-10
4.41549e-11
6.47755e-11
2.04416e-11
8.11467e-11
2.24139e-11
1.06855e-10
2.43637e-10
3.85847e-10
3.46709e-10
2.80084e-10
3.36657e-10
1.39582e-10
2.70183e-10
7.6089e-11
2.19216e-10
3.97766e-11
-2.00958e-11
7.08714e-11
2.53659e-11
4.40234e-11
-2.94608e-11
-7.93739e-11
-6.2516e-11
1.60478e-12
8.4736e-11
-5.84807e-12
6.24213e-11
2.10141e-10
7.69718e-11
-2.24052e-11
2.224e-10
9.56338e-11
6.45707e-11
1.6122e-10
1.76035e-10
2.67297e-10
6.1526e-10
9.0076e-10
1.38459e-09
1.97074e-09
2.97962e-09
4.60953e-09
7.33141e-09
1.13749e-08
1.78275e-08
2.81018e-08
4.37701e-08
6.82873e-08
1.06746e-07
1.66768e-07
2.60356e-07
4.0631e-07
6.34031e-07
9.89361e-07
1.54386e-06
2.40883e-06
3.75921e-06
5.86839e-06
9.16348e-06
1.43144e-05
2.23696e-05
3.49728e-05
5.47019e-05
8.55993e-05
0.000134009
0.000209887
0.000328867
0.000515502
0.000808382
0.00126818
0.00199036
0.00312523
0.00490967
0.00771718
0.0121373
0.0191013
0.0300813
0.0474059
0.0747628
0.117991
0.186349
0.294494
0.46568
0.73658
1.16536
1.84235
2.91071
4.58023
7.18593
11.1267
17.1459
25.4779
37.6474
-6.18891e-11
1.78591e-11
4.25072e-11
9.38944e-11
-1.69765e-10
-1.44362e-10
-8.63243e-12
-5.00348e-11
2.20185e-10
7.97217e-11
-8.05836e-12
-1.84019e-12
-1.55706e-10
2.89602e-11
-1.1458e-10
-2.324e-10
-1.92659e-11
-1.11326e-10
-7.73421e-11
-3.59136e-12
-1.83691e-11
-7.49263e-11
1.3492e-11
-5.96723e-11
1.29759e-10
8.20034e-11
2.64368e-11
-1.4836e-10
1.73493e-11
1.40452e-10
2.79284e-11
1.20689e-10
3.85131e-11
1.2422e-10
1.17921e-10
3.78009e-11
1.02047e-11
1.06052e-11
-4.07522e-11
-1.41871e-11
3.79012e-11
4.18696e-11
1.3282e-10
-1.44607e-11
4.99989e-11
4.00674e-11
-3.69067e-11
1.88665e-11
-7.31233e-11
-5.89353e-11
8.62343e-11
5.43977e-11
1.30788e-10
5.19045e-11
-2.57108e-11
-1.00168e-10
-2.56926e-11
-4.35793e-11
-8.59396e-11
3.07724e-11
8.86305e-11
-3.09985e-11
-2.86398e-11
-1.46751e-10
-1.53402e-10
4.36781e-11
-1.74949e-10
-8.92497e-11
5.2276e-12
7.73331e-11
6.47761e-11
-1.0833e-10
-6.35426e-11
-9.68772e-11
-6.6227e-11
-8.20878e-11
-6.34169e-12
2.35424e-11
5.36724e-11
3.01879e-11
2.24229e-10
1.5002e-10
7.4416e-11
2.02044e-10
3.71886e-11
1.24846e-10
7.512e-11
-1.54239e-11
5.31926e-11
4.98784e-11
-5.51658e-11
2.06994e-11
3.91226e-11
-2.78679e-11
-3.27127e-11
8.28006e-11
9.55574e-11
7.40571e-11
6.18809e-11
-1.80643e-10
-3.73755e-11
-1.68023e-10
-6.89093e-11
-1.29125e-10
-1.08192e-10
8.14635e-11
1.01402e-10
1.45693e-10
1.84532e-10
8.55619e-11
1.27386e-10
1.72595e-10
2.85752e-10
1.16686e-11
-1.1451e-10
-9.33138e-11
4.41441e-11
2.74861e-11
6.7824e-11
1.01613e-10
6.73817e-12
4.06447e-11
9.15365e-12
1.85889e-10
3.93589e-11
1.20204e-10
1.33817e-10
-3.85335e-11
-8.39303e-11
4.74992e-11
9.21476e-13
-6.01139e-11
-1.89687e-10
-2.09063e-10
-1.05502e-10
-4.27184e-11
-1.05664e-10
-1.04808e-10
-9.23042e-11
-9.4609e-11
2.57751e-12
1.83496e-10
1.42324e-10
1.02361e-10
2.31417e-10
1.52695e-10
1.30007e-10
2.35632e-10
1.88073e-10
1.15739e-10
8.5474e-11
9.40478e-11
-9.58358e-12
2.2025e-10
1.91373e-10
1.38621e-10
7.67179e-11
7.01631e-11
1.42429e-10
1.38905e-11
-7.73414e-11
1.92863e-10
4.52936e-11
1.66521e-10
1.51627e-10
1.35632e-10
2.6428e-10
2.81684e-10
1.72669e-10
1.69309e-10
1.40836e-10
1.55996e-10
2.13227e-10
-2.36213e-11
1.49694e-10
2.34176e-10
1.09423e-10
2.56105e-10
2.42413e-10
1.50981e-10
1.49544e-10
6.60922e-11
9.55015e-11
6.94826e-13
1.71092e-10
2.29482e-10
9.27886e-11
1.49668e-10
9.01944e-11
4.04876e-11
-7.39208e-11
-5.79884e-11
9.03721e-11
9.01065e-11
1.04721e-10
6.25924e-11
2.14939e-10
8.59241e-11
1.38779e-10
7.77828e-11
6.45482e-11
1.15068e-10
1.09743e-10
1.41468e-10
-1.09848e-11
-2.16479e-11
4.3928e-11
-6.1723e-11
-5.75929e-11
-7.51e-11
-1.16985e-10
4.56937e-11
1.01347e-12
8.17751e-11
2.32408e-11
3.54546e-11
1.3995e-10
2.08342e-10
1.53651e-10
1.33164e-10
2.24376e-10
2.90341e-10
2.10516e-10
7.6491e-11
1.23003e-10
2.49401e-10
2.07533e-10
1.49344e-10
3.19469e-11
6.85449e-11
6.83111e-11
-6.98052e-11
-4.96653e-11
8.55885e-11
-3.4192e-12
-5.49086e-11
1.54592e-10
1.96733e-10
2.29475e-10
2.46584e-10
2.11183e-10
2.26704e-10
2.73221e-10
4.28465e-10
6.22116e-10
9.01737e-10
1.69444e-09
2.73679e-09
4.41143e-09
6.81865e-09
1.08202e-08
1.72373e-08
2.70239e-08
4.18564e-08
6.54903e-08
1.02571e-07
1.60099e-07
2.49921e-07
3.90049e-07
6.08407e-07
9.49118e-07
1.48007e-06
2.30819e-06
3.60053e-06
5.61693e-06
8.76509e-06
1.3682e-05
2.13644e-05
3.33736e-05
5.21544e-05
8.15368e-05
0.000127524
0.000199523
0.000312287
0.000488945
0.000765788
0.00119976
0.00188027
0.00294777
0.00462307
0.00725342
0.0113855
0.0178799
0.0280935
0.0441647
0.0694675
0.109324
0.172135
0.271147
0.427264
0.673348
1.06116
1.67125
2.63002
4.12751
6.45883
10.0172
15.4621
23.3758
35.2009
-3.7443e-13
1.0094e-10
2.47705e-11
-6.7847e-11
1.15276e-11
-1.74932e-12
-6.72704e-11
-9.785e-11
5.16604e-11
1.22466e-10
2.72979e-11
5.39866e-11
6.50916e-11
8.26107e-11
1.12505e-10
1.93051e-10
1.07877e-10
3.54597e-11
-8.21321e-11
5.6495e-11
-3.53933e-11
-1.50416e-10
-1.10316e-10
-2.0927e-10
-2.03963e-10
-1.97871e-10
-2.48579e-10
-2.55174e-10
-2.80898e-10
-5.57978e-11
-1.48079e-11
1.71485e-10
1.76721e-10
1.70613e-10
7.81857e-11
1.99404e-10
-6.32866e-11
-8.29148e-11
3.01936e-11
-2.78876e-11
-1.24074e-11
-4.92114e-11
-3.92697e-12
6.84423e-11
-1.44075e-10
-1.05382e-10
-1.34003e-10
-4.10861e-11
-2.14792e-11
-4.88051e-11
-8.19297e-11
-2.65458e-11
-1.07778e-10
-2.51558e-11
-6.68463e-11
-1.64229e-10
-4.48226e-11
-1.51627e-10
6.59473e-11
2.67216e-11
7.41687e-11
2.53125e-12
-3.31891e-11
-4.11048e-12
-1.68019e-10
2.83188e-11
1.9599e-10
9.40096e-11
1.04162e-11
-2.39432e-11
1.02955e-10
1.15858e-10
1.4013e-10
7.91969e-11
7.06127e-11
-5.81851e-11
-1.16347e-10
-5.48377e-11
-5.27058e-11
-1.57883e-11
2.06099e-11
8.28046e-11
-6.93852e-11
-2.24426e-10
-1.54686e-10
-1.7262e-10
-1.27224e-10
1.46818e-12
-5.92826e-11
-1.70211e-11
-5.68642e-11
3.23756e-11
1.82482e-11
8.18087e-12
-2.80548e-11
3.64061e-11
1.09011e-11
-5.23209e-11
-1.17556e-11
-3.24588e-11
4.44618e-11
7.42729e-11
1.04348e-10
1.13879e-10
1.11978e-10
-7.95277e-11
-9.98486e-11
-5.70331e-11
-1.4953e-10
7.82801e-11
1.15912e-10
2.90149e-11
-1.95443e-11
-2.09193e-11
2.01168e-11
-2.02029e-10
-2.10313e-10
-1.10482e-10
-2.72403e-10
-5.18623e-11
-1.99712e-10
-4.21495e-11
-1.15663e-10
-1.14055e-10
-1.1327e-12
1.30052e-10
3.21596e-10
7.19472e-11
-5.04535e-11
2.83196e-11
4.592e-11
2.9318e-11
-2.18142e-10
-9.75631e-11
-1.56837e-10
6.19724e-12
5.30619e-11
-1.46004e-10
-1.05985e-10
-1.026e-10
-1.70409e-11
4.12865e-11
-2.11358e-11
-3.60191e-11
-3.96512e-11
1.66666e-11
8.49752e-11
2.58038e-11
-1.22302e-11
-3.033e-13
-3.47827e-11
6.37304e-11
1.69137e-10
9.67098e-11
7.99959e-11
-5.21228e-11
1.08903e-10
-6.62426e-11
-1.29858e-11
1.02753e-10
1.22516e-10
9.87002e-11
5.61885e-11
1.50177e-10
1.73265e-10
1.34847e-10
2.23752e-10
3.39054e-10
2.82615e-10
3.68546e-11
-4.525e-11
7.85167e-11
-9.52323e-11
-8.99214e-11
2.42531e-12
8.68748e-11
-4.4599e-11
1.58716e-11
-8.56754e-11
-1.00895e-10
8.59687e-11
8.27268e-11
7.76008e-11
1.96459e-10
1.06638e-10
1.6142e-10
1.56295e-10
2.14089e-10
1.89591e-10
1.09504e-10
1.95435e-10
1.36516e-10
3.44499e-11
7.48844e-11
4.35668e-11
9.70657e-11
-9.29738e-11
-9.87826e-11
-3.67097e-11
1.41547e-10
1.46028e-10
1.77441e-10
1.82121e-10
1.15873e-10
1.35296e-10
1.0057e-10
1.53953e-10
3.59977e-11
1.3121e-10
5.76626e-11
5.0028e-11
1.01293e-10
1.68651e-10
1.423e-10
1.67735e-10
1.37976e-10
1.49576e-11
-7.69373e-11
5.00416e-11
4.46742e-11
5.62814e-11
4.59296e-11
1.50727e-10
6.97099e-11
1.20736e-10
1.77531e-10
1.01249e-10
1.31991e-10
1.22979e-10
1.90184e-10
3.27008e-10
3.22585e-10
1.77854e-10
1.49462e-10
2.16859e-10
1.77956e-10
1.90823e-10
1.16247e-10
-8.78759e-11
2.54527e-12
1.18116e-10
1.65457e-10
1.81481e-10
2.70432e-10
5.81347e-10
1.08774e-09
1.46565e-09
2.53697e-09
4.04068e-09
6.34406e-09
1.01645e-08
1.57568e-08
2.47779e-08
3.86657e-08
6.04079e-08
9.46448e-08
1.47819e-07
2.30601e-07
3.59933e-07
5.61171e-07
8.74698e-07
1.36343e-06
2.1243e-06
3.31022e-06
5.15884e-06
8.04125e-06
1.25367e-05
1.95503e-05
3.04974e-05
4.75899e-05
7.42872e-05
0.000116001
0.000181194
0.000283114
0.00044248
0.000691731
0.00108163
0.00169168
0.00264638
0.00414087
0.00648101
0.0101466
0.0158907
0.0248953
0.039017
0.0611733
0.0959473
0.150544
0.236277
0.370928
0.582333
0.914223
1.4344
2.24955
3.51979
5.49884
8.52341
13.2005
20.0836
30.8183
8.1084e-11
4.1472e-11
5.28658e-11
2.01978e-10
-3.878e-12
-1.51684e-10
-1.40704e-10
-8.77177e-11
-9.15182e-11
-1.04364e-10
5.77117e-12
3.74676e-11
-1.66119e-11
-5.72317e-11
-9.80461e-12
5.29032e-11
9.21988e-11
1.04735e-10
6.00841e-11
-1.24777e-10
-8.55669e-11
-2.00446e-10
-1.17816e-10
2.14842e-11
-1.03945e-10
-1.22378e-10
-5.05904e-11
-3.42094e-11
6.09997e-11
1.90637e-10
4.79362e-11
-6.61368e-12
3.4133e-11
6.23944e-11
1.64449e-10
4.90985e-11
4.06798e-11
2.36293e-11
-3.85324e-11
-8.16692e-11
1.56361e-11
6.95701e-11
1.3847e-11
5.10938e-11
-5.79091e-11
-1.06598e-10
7.22734e-11
7.89823e-11
-2.43858e-10
-1.55501e-10
-1.18334e-10
-1.26948e-10
-5.65531e-11
-1.61026e-10
-6.54388e-11
-4.74416e-11
-9.57232e-11
6.69162e-11
2.64385e-13
5.90381e-11
8.04399e-11
1.77705e-10
8.18087e-11
-4.60751e-11
-1.4472e-11
-2.65205e-11
1.87127e-11
1.62366e-10
-1.68182e-10
2.4516e-11
-1.50734e-10
-1.55506e-10
-1.03863e-10
-6.76138e-11
-6.48223e-11
1.40297e-11
-8.22754e-11
8.13552e-11
1.04224e-10
8.06023e-11
1.15997e-10
7.73452e-11
1.21441e-11
1.47045e-10
1.09554e-10
9.62441e-11
2.03196e-10
2.70873e-11
1.36195e-10
2.14642e-11
-3.25997e-11
2.71379e-11
6.22374e-11
1.91764e-10
3.9807e-11
6.37437e-11
8.25566e-11
7.33428e-11
1.72119e-10
1.712e-10
2.40048e-10
1.3052e-10
1.61648e-10
-2.12682e-12
1.23604e-10
-5.20973e-11
-1.06068e-10
-2.93822e-10
-2.8033e-10
-3.62066e-10
-2.65653e-10
-2.53707e-10
-2.05543e-10
-1.34798e-10
-1.51889e-10
-1.76452e-11
-1.23546e-10
-5.33474e-11
-6.27209e-11
-3.30828e-11
-7.35571e-11
-1.4899e-10
-1.26178e-10
-1.8656e-10
8.00047e-11
2.58235e-11
7.62349e-11
-1.58661e-10
-1.54665e-11
-1.40527e-11
2.6641e-11
1.27036e-10
1.42147e-10
6.88432e-12
4.01823e-11
1.37912e-10
1.32672e-10
1.15689e-10
8.54543e-11
4.08923e-11
8.01519e-11
-1.19903e-11
5.07376e-11
2.34978e-11
-1.90174e-11
1.57913e-10
8.40191e-11
-2.08704e-11
-1.22931e-10
-1.88859e-11
2.59207e-11
1.22983e-11
2.19926e-11
8.76114e-11
4.66746e-11
-7.13377e-11
-3.59759e-11
-1.17009e-10
-6.25022e-11
-8.2888e-11
-4.51256e-11
-4.71884e-11
1.12678e-11
-1.38501e-10
6.93516e-12
-1.22042e-10
-1.80606e-10
-3.14313e-10
-1.16888e-10
-1.76899e-10
-1.50301e-10
1.08047e-10
5.76697e-11
2.17473e-10
8.82192e-11
1.447e-10
1.89763e-10
1.86143e-10
2.10185e-10
1.59274e-10
2.13177e-10
8.0796e-11
9.29966e-11
6.4968e-11
-3.07705e-11
-3.38801e-11
8.28144e-11
2.02587e-10
2.01519e-10
1.13966e-10
4.41138e-11
5.38152e-11
7.7174e-11
1.59874e-11
-1.41655e-10
-3.2935e-11
1.08836e-11
1.68229e-12
2.86977e-11
1.59609e-11
2.0818e-10
1.82507e-10
1.48489e-10
8.62765e-11
2.00609e-10
-8.47111e-11
-1.9837e-11
1.01054e-10
1.28976e-10
1.31478e-10
-4.39335e-11
1.46563e-10
9.08101e-11
1.98366e-10
1.49803e-10
1.51153e-10
4.11279e-11
4.30047e-11
4.39147e-11
1.36919e-12
-2.02121e-10
-1.57949e-10
9.85538e-11
-9.13696e-12
-1.21902e-11
1.23459e-10
5.67688e-11
2.10288e-10
1.15875e-10
7.44982e-11
1.58533e-10
4.46467e-11
1.49704e-10
-9.98425e-11
6.85592e-11
1.98819e-12
1.27785e-10
1.4524e-10
8.48321e-11
1.45743e-11
9.97336e-11
2.25325e-10
2.02312e-10
4.92357e-10
7.37609e-10
9.27423e-10
1.38168e-09
2.08213e-09
3.56865e-09
5.52186e-09
8.8023e-09
1.39096e-08
2.19968e-08
3.433e-08
5.37872e-08
8.41295e-08
1.31518e-07
2.05187e-07
3.19918e-07
4.98481e-07
7.76872e-07
1.20951e-06
1.88291e-06
2.93081e-06
4.56159e-06
7.10035e-06
1.1054e-05
1.72116e-05
2.68042e-05
4.17541e-05
6.50585e-05
0.000101397
0.00015807
0.00024648
0.000384421
0.000599676
0.000935612
0.00145996
0.00227845
0.00355627
0.00555148
0.00866744
0.0135347
0.0211395
0.0330246
0.0516047
0.0806579
0.1261
0.197182
0.308393
0.482327
0.754388
1.17931
1.84335
2.87588
4.48457
6.94603
10.7796
16.4863
25.6264
9.42946e-11
-2.66812e-11
-1.14499e-10
-4.66408e-11
-1.65455e-11
-1.01283e-10
3.52569e-11
4.94921e-11
-4.24811e-11
-1.07267e-11
-8.04838e-11
3.81652e-11
9.84808e-11
2.17405e-11
9.34535e-11
1.62013e-12
-1.97275e-11
-9.23372e-11
-2.75119e-11
6.24845e-11
1.93099e-11
5.2204e-11
1.27395e-10
7.14547e-11
1.1282e-10
1.77652e-12
8.65743e-11
1.37086e-11
-8.31196e-12
3.27779e-11
1.62805e-10
4.69267e-11
8.32351e-11
1.01108e-10
1.24647e-10
-3.78576e-11
-5.88498e-11
-1.02629e-10
-5.72932e-11
-6.54314e-11
3.94317e-11
-5.16698e-11
-1.22244e-11
-8.6497e-11
-1.44396e-10
-1.45739e-10
-2.26134e-11
5.66837e-13
3.30019e-11
1.38965e-10
-7.35658e-12
4.13858e-11
2.17139e-11
-1.3918e-10
-1.279e-11
-3.01844e-11
-2.55619e-11
5.27306e-12
-4.32951e-11
3.07714e-11
2.58022e-10
1.61344e-10
1.53427e-10
9.43825e-11
-3.65201e-11
-7.58335e-11
-1.02742e-11
3.78679e-11
5.19459e-11
8.26299e-11
1.99048e-11
4.07677e-11
7.52235e-11
1.36559e-10
1.88538e-10
1.0204e-10
1.00604e-10
6.54006e-11
-3.48973e-11
1.15207e-10
4.73112e-11
9.3373e-12
-2.43376e-11
8.60701e-11
3.95925e-11
1.17099e-10
4.22912e-11
5.06693e-12
-8.74602e-11
-5.86548e-12
-2.75355e-11
-6.42835e-11
-1.524e-11
4.04418e-11
2.63982e-11
-4.06228e-11
-8.58362e-11
-1.59648e-10
-1.53681e-10
-1.09636e-10
-4.39037e-11
-9.88516e-11
-7.01509e-11
-1.40516e-10
-1.4666e-10
-7.76264e-11
1.41132e-13
3.28835e-11
6.00216e-11
-9.05145e-11
-4.15513e-12
-8.0477e-11
3.69013e-11
2.50392e-11
-7.45729e-11
-4.31448e-11
7.3205e-12
1.005e-10
-1.78708e-11
5.73542e-11
-6.84806e-12
-1.22147e-11
2.22387e-11
9.14833e-11
4.87e-11
4.6978e-11
-3.4899e-12
5.01729e-11
-1.04388e-11
-1.05205e-10
-7.7268e-11
-3.88835e-11
-1.80579e-10
-3.09392e-11
-8.29576e-11
4.94989e-11
-4.09102e-11
-2.41039e-11
1.20108e-10
1.04265e-10
1.7706e-10
2.69395e-10
2.40193e-10
2.17777e-10
2.54168e-10
6.48784e-11
-4.37963e-11
-4.47052e-11
-2.13312e-10
-2.73639e-10
-1.10234e-10
6.61306e-12
-1.00171e-10
-9.12096e-11
1.01848e-10
-1.30689e-10
-1.23232e-10
-5.88711e-11
1.48526e-10
-3.55632e-11
-3.08382e-11
-5.84724e-11
-8.10394e-11
-5.923e-11
-1.12447e-11
7.73603e-11
-3.36813e-11
7.88053e-11
-8.32133e-11
5.23909e-11
-1.26315e-11
1.10991e-10
1.61088e-10
4.46507e-11
4.42672e-11
8.73918e-11
-1.04925e-10
7.46371e-11
1.27335e-10
8.14281e-11
1.27486e-10
-1.93981e-11
6.17624e-11
1.24219e-10
2.10714e-10
3.28787e-10
3.08994e-10
2.40824e-10
2.31229e-10
1.9191e-10
2.06804e-11
1.1148e-10
4.08879e-11
-1.8726e-10
-3.51119e-11
-1.96316e-12
1.41589e-11
-3.91211e-11
-1.1696e-10
-1.20967e-10
-1.5651e-10
1.39296e-11
-9.8299e-11
-2.34884e-10
-5.05329e-11
-2.68938e-11
-5.9738e-11
-2.08044e-11
1.85279e-10
7.05849e-11
9.22484e-11
-1.01579e-10
4.04743e-11
2.91217e-11
-2.91162e-11
6.70653e-11
3.797e-11
5.33423e-11
-6.17844e-11
6.7809e-11
-6.84345e-11
4.91424e-11
2.37441e-10
1.05543e-10
5.28966e-11
1.09775e-10
5.64478e-11
1.15315e-10
1.84631e-11
1.95817e-11
-9.29538e-13
1.76787e-10
1.25922e-10
6.63295e-11
6.10071e-11
-1.59806e-10
-3.61965e-11
1.48826e-10
6.02069e-11
1.62116e-10
1.97223e-10
2.05528e-10
2.59311e-10
3.50188e-10
5.56842e-10
8.74633e-10
1.36772e-09
2.03217e-09
3.14783e-09
4.93092e-09
7.71854e-09
1.20907e-08
1.87383e-08
2.94408e-08
4.60571e-08
7.21726e-08
1.12938e-07
1.76264e-07
2.74673e-07
4.27878e-07
6.65886e-07
1.03633e-06
1.61174e-06
2.50627e-06
3.89637e-06
6.05741e-06
9.41691e-06
1.46399e-05
2.27622e-05
3.53957e-05
5.50501e-05
8.56331e-05
0.000133231
0.000207323
0.000322672
0.000502275
0.00078194
0.00121745
0.00189568
0.00295196
0.00459709
0.00715954
0.0111512
0.0173699
0.0270598
0.0421612
0.0656999
0.102398
0.159615
0.248844
0.387956
0.604897
0.942785
1.46962
2.28742
3.56129
5.51186
8.56432
13.1444
20.6102
5.04643e-11
-2.39081e-11
2.49704e-11
-3.19046e-11
4.93582e-11
-7.17348e-12
-2.88737e-11
-1.27234e-10
-1.19277e-10
8.98021e-12
9.6949e-11
9.62732e-11
4.1259e-11
1.89909e-10
4.36563e-11
1.48889e-10
8.28674e-11
-6.00098e-11
7.63193e-11
4.52523e-11
2.6539e-11
1.83759e-10
-8.37153e-13
-1.17372e-10
-5.68882e-11
-9.21007e-11
-5.77209e-11
-1.08149e-10
-2.13381e-11
-1.52418e-10
-1.83699e-10
-1.65125e-10
5.2458e-11
-5.47063e-11
4.22867e-11
1.22875e-10
3.82607e-11
6.65178e-11
1.11652e-10
-5.49246e-12
-1.35252e-10
-2.53148e-11
-3.11982e-11
3.01657e-12
-2.78636e-11
-1.31423e-10
-2.85723e-11
1.76684e-10
6.2552e-11
1.92562e-11
3.32037e-11
2.16521e-11
-1.19688e-10
4.99994e-11
9.09499e-11
1.95286e-10
-2.16758e-11
-6.94017e-11
-4.68408e-11
2.91346e-11
-2.04558e-10
-8.4374e-11
-8.81784e-11
4.32137e-11
-1.51618e-10
-7.20195e-11
5.60922e-11
1.51023e-11
-7.92933e-11
1.05644e-10
2.02032e-10
1.1142e-10
-3.44965e-11
-4.26391e-11
-1.05101e-10
-1.06833e-10
-5.57851e-11
2.11891e-11
8.40882e-11
7.88185e-11
5.98088e-12
-9.42063e-11
3.24992e-12
6.53383e-11
-4.04998e-11
5.67659e-11
-7.44841e-11
-5.66933e-11
6.65003e-11
1.05015e-10
8.10669e-11
-8.08641e-11
-5.07125e-11
6.70051e-11
-9.72331e-11
-5.50401e-12
-3.65456e-11
5.31489e-12
-1.26911e-10
7.33896e-11
6.01452e-11
-6.65014e-11
8.90677e-11
7.7907e-11
-7.75798e-11
-1.45116e-10
-1.72368e-10
-1.45373e-10
-7.76324e-11
1.66322e-11
1.14753e-10
2.76902e-11
-7.1464e-11
-1.86532e-10
-1.2012e-10
-4.11243e-11
-1.7363e-11
-1.04885e-10
8.69458e-11
-1.76433e-11
-1.02807e-10
-1.30831e-10
-1.5137e-10
1.08989e-10
-9.18339e-11
9.56752e-11
2.15981e-11
4.69304e-11
6.41556e-11
-1.5783e-10
-1.13946e-10
-1.01759e-10
9.18126e-11
7.04007e-11
-7.76385e-11
4.89317e-11
3.3221e-11
-2.01169e-12
-1.17916e-10
3.02733e-11
5.48173e-11
-3.50483e-11
4.9045e-11
3.09237e-11
2.49353e-11
7.32143e-11
1.48007e-10
7.0854e-11
8.55366e-11
-1.39143e-11
2.2483e-10
2.20805e-10
9.54652e-11
1.57403e-10
1.95941e-10
1.76316e-10
4.0161e-12
3.71301e-11
2.0136e-11
-1.33346e-11
1.97313e-10
2.06748e-10
3.12766e-10
3.23535e-10
2.52119e-10
3.82646e-11
-7.02927e-11
-1.44568e-10
-4.25793e-11
5.08526e-11
-3.83416e-11
-1.43147e-10
-4.02583e-11
-2.67824e-11
2.03163e-11
-1.04785e-11
-3.06809e-11
-4.66547e-11
1.09127e-10
8.04052e-11
1.97633e-11
-8.25793e-11
-2.25423e-11
-2.15653e-11
-4.93818e-11
5.4381e-11
6.65679e-11
1.02705e-10
7.12139e-11
2.09756e-10
1.11769e-10
1.49999e-10
1.10391e-10
1.08417e-10
3.75286e-11
-4.06935e-11
7.00806e-11
1.98759e-10
-4.44631e-11
1.12291e-10
1.79781e-10
9.89512e-11
7.80746e-11
-3.22995e-11
1.13959e-10
-6.94833e-11
3.57783e-12
-1.06056e-10
-2.75879e-11
-3.25833e-11
7.75748e-11
1.06102e-10
4.81621e-11
1.01225e-10
2.22097e-11
2.64258e-11
6.7346e-11
4.50827e-11
4.47884e-11
1.28961e-10
9.20263e-11
6.42677e-11
3.68792e-11
-1.004e-11
-7.29928e-11
1.12531e-11
6.20566e-11
1.12587e-10
1.13954e-10
-4.26244e-11
-3.19946e-11
-7.81475e-12
-6.87331e-11
-1.87258e-11
7.51441e-11
1.27082e-10
1.26818e-10
1.67474e-10
8.61362e-11
-8.43219e-11
6.42016e-11
1.71619e-10
1.65837e-10
3.55733e-10
5.05814e-10
7.17842e-10
1.20785e-09
1.60246e-09
2.58134e-09
3.99267e-09
6.47983e-09
1.00074e-08
1.56956e-08
2.45582e-08
3.84223e-08
6.00588e-08
9.37531e-08
1.46264e-07
2.27927e-07
3.5517e-07
5.52845e-07
8.59778e-07
1.33639e-06
2.07647e-06
3.2254e-06
5.00883e-06
7.77758e-06
1.20762e-05
1.87495e-05
2.91114e-05
4.52026e-05
7.01946e-05
0.000109016
0.000169328
0.000263037
0.000408651
0.000634935
0.000986602
0.00153313
0.00238255
0.00370269
0.00575451
0.00894359
0.0139007
0.0216063
0.033586
0.052212
0.081177
0.126222
0.19629
0.305258
0.474794
0.738279
1.14839
1.78415
2.7742
4.29081
6.67145
10.2625
16.183
-8.90838e-11
4.36021e-11
2.50496e-11
-1.45549e-10
-5.11032e-11
-5.105e-12
1.67126e-10
8.56858e-11
1.10203e-10
-6.69616e-11
1.46461e-11
1.06346e-10
2.11548e-11
4.3373e-11
1.97482e-11
1.95688e-10
1.34485e-10
3.82237e-12
3.1689e-11
-1.64364e-10
-2.01319e-10
-1.50774e-10
-1.23367e-10
-1.37126e-10
-3.40292e-11
-8.9522e-11
-3.2886e-11
-5.64614e-11
-3.25891e-11
-4.00829e-11
-2.11366e-11
8.04394e-12
-3.93809e-11
-5.37344e-11
-1.02802e-10
-7.27435e-11
-1.62829e-10
-1.025e-11
1.04392e-11
-1.37636e-10
-7.31549e-11
-1.13757e-10
5.3245e-11
2.75645e-11
3.77284e-11
4.58506e-12
7.58876e-11
-3.78198e-11
-2.38112e-11
-4.69109e-11
-3.95398e-11
-1.01487e-10
-1.30496e-10
-2.46643e-10
-3.50676e-11
-2.47772e-10
1.09624e-11
6.69617e-12
-9.50872e-11
-4.07793e-13
-8.74333e-12
-5.57698e-11
-1.51557e-10
-3.75343e-11
-3.10778e-11
-3.26271e-12
3.16607e-11
-4.39688e-11
2.14022e-11
-2.52516e-11
-9.25328e-11
1.31022e-10
2.94693e-11
1.02042e-10
3.29247e-11
1.29777e-12
1.05303e-10
1.19931e-10
-9.06317e-11
-8.61985e-12
-2.33924e-11
1.58003e-11
-5.72271e-11
-7.77452e-11
6.23621e-11
-1.69178e-11
6.09e-11
-1.47377e-10
7.87933e-12
5.41279e-12
-1.12121e-11
1.23628e-10
4.20321e-11
9.37922e-11
4.02824e-11
-1.12972e-10
-4.61286e-11
2.49531e-11
4.24559e-11
-3.47824e-11
5.13645e-11
6.24532e-11
8.49233e-11
-5.66179e-12
9.09024e-11
-2.8623e-11
5.57655e-11
3.602e-11
-8.99189e-11
-2.32986e-10
-1.16548e-10
5.25451e-12
-5.46008e-11
4.22581e-11
4.62815e-11
1.47816e-11
2.73317e-11
6.45987e-11
1.47723e-10
4.83058e-11
-1.45694e-11
4.53833e-11
7.88698e-11
1.84995e-10
1.068e-10
7.81518e-11
7.7546e-11
-2.96243e-11
-4.20435e-11
4.94472e-11
8.8845e-12
2.35918e-11
6.51293e-12
1.48848e-10
4.2525e-11
-5.87367e-11
-8.43637e-11
8.34147e-12
8.41658e-11
2.41889e-10
1.68826e-10
2.07689e-10
2.1397e-10
2.67219e-10
3.08564e-10
9.50903e-11
2.08591e-10
1.09527e-10
6.6501e-11
9.88608e-11
1.59353e-10
4.84608e-11
2.29137e-11
4.23019e-11
-2.31377e-11
2.61065e-11
5.49582e-11
4.43185e-11
3.00881e-11
8.27985e-11
5.26737e-11
5.11757e-12
1.58742e-11
8.85756e-11
-3.80968e-11
1.7914e-10
3.56619e-11
3.17412e-11
1.67792e-10
5.38723e-12
-4.92855e-11
9.21326e-11
5.54039e-11
2.87647e-11
8.87773e-11
1.17496e-10
1.24256e-11
-6.93465e-11
-5.89056e-11
-7.75496e-11
-1.56018e-11
1.42746e-10
1.63376e-10
1.3325e-10
2.88996e-10
8.78627e-11
1.57379e-10
1.87768e-11
1.35076e-10
3.07859e-10
1.81171e-10
6.69621e-11
7.84673e-11
1.75919e-10
8.46013e-11
6.0261e-11
9.5858e-12
8.43135e-11
4.97053e-11
-4.56065e-11
1.00944e-11
-1.05183e-10
-5.68317e-11
1.35986e-11
1.09849e-10
1.0367e-10
-6.4765e-11
1.95436e-10
1.7743e-10
4.96328e-11
1.51548e-10
-7.49617e-11
-1.2674e-10
3.7065e-11
5.35672e-12
1.79362e-10
1.33563e-11
2.95939e-11
1.1409e-10
2.51403e-10
1.98697e-10
1.57006e-10
2.79468e-10
1.35685e-10
2.06579e-10
1.10564e-10
1.07462e-10
2.51285e-10
9.37303e-11
6.67763e-11
3.04179e-11
7.63127e-12
5.98813e-11
6.99753e-11
6.57885e-11
-9.89514e-11
4.82539e-11
1.12735e-10
-8.81342e-11
9.33417e-13
4.27723e-11
1.36013e-10
1.40345e-10
1.8949e-10
3.21696e-10
4.50405e-10
8.08564e-10
1.31127e-09
2.16879e-09
3.13589e-09
5.07983e-09
7.98542e-09
1.26009e-08
1.9625e-08
3.07912e-08
4.81256e-08
7.53185e-08
1.17527e-07
1.83361e-07
2.85867e-07
4.44929e-07
6.91905e-07
1.07535e-06
1.67038e-06
2.59344e-06
4.0253e-06
6.2457e-06
9.68885e-06
1.50274e-05
2.3306e-05
3.61431e-05
5.6051e-05
8.69262e-05
0.000134816
0.000209101
0.000324341
0.000503123
0.000780502
0.00121086
0.00187861
0.00291468
0.0045223
0.00701677
0.0108875
0.016894
0.0262155
0.0406823
0.063138
0.0979951
0.152116
0.236132
0.366624
0.569108
0.883861
1.3713
2.13015
3.29282
5.12126
7.88881
12.4844
2.19758e-11
-1.08283e-11
-8.83304e-11
-1.45615e-10
2.26953e-11
1.11508e-10
-2.81679e-11
-4.17061e-11
1.35031e-11
7.2008e-11
1.12871e-10
-8.57596e-11
9.46077e-12
1.15264e-10
1.30468e-10
4.85508e-11
1.83116e-10
1.74681e-10
5.36865e-11
7.8747e-11
1.54598e-10
5.09806e-11
-3.03403e-11
-1.38897e-10
8.34069e-11
3.43731e-11
1.25852e-10
2.63307e-11
1.33472e-10
1.4035e-10
5.94459e-11
9.32859e-11
1.59029e-10
-7.47321e-11
-9.2013e-11
-2.53943e-10
-3.33312e-10
-1.58051e-10
-1.30229e-10
1.60913e-11
-1.52271e-11
-9.82587e-11
-5.91824e-11
-8.08434e-11
-5.2001e-11
7.78325e-11
-8.63656e-11
-1.75127e-10
-6.17519e-11
-1.24548e-10
6.55503e-11
1.50521e-10
1.31942e-10
-2.62897e-11
-2.79808e-11
-4.73804e-11
-1.45583e-10
8.07649e-11
1.26525e-11
-1.01896e-11
1.3446e-10
6.04448e-11
1.0049e-10
2.91817e-11
2.34467e-11
-1.34176e-12
5.29378e-11
8.68352e-11
1.54214e-10
-4.12596e-11
-6.93575e-12
-5.27744e-11
5.52499e-11
5.32569e-11
8.09334e-11
-8.42033e-12
-3.59459e-11
3.07647e-10
8.35974e-11
-8.38491e-11
-7.58514e-11
-2.17315e-11
-1.42525e-10
3.13269e-11
1.25338e-10
1.42767e-10
8.71823e-11
4.29223e-11
1.73049e-10
4.73179e-11
-1.45966e-10
-1.52144e-10
-1.03606e-10
-1.52198e-10
-7.29012e-11
-2.23423e-11
-7.87898e-11
7.18738e-11
1.67106e-11
9.50325e-11
4.68963e-11
1.30401e-10
3.26917e-11
-2.44081e-11
-9.47328e-12
-5.54904e-11
-1.00864e-10
-6.83091e-11
-8.12675e-11
-1.8945e-10
-1.99904e-10
-3.50678e-11
-6.90865e-11
4.38314e-11
-1.77462e-10
-2.84175e-11
5.45979e-11
5.31406e-13
9.90614e-12
-1.24976e-10
-1.11137e-11
7.06426e-11
5.19437e-11
1.971e-10
1.90451e-10
2.08904e-10
2.54767e-10
2.14546e-10
7.17313e-11
5.83871e-11
1.76527e-10
1.27029e-10
1.67371e-10
6.94448e-11
5.95741e-11
1.99472e-11
-1.68065e-11
1.79243e-10
6.41769e-12
-4.26684e-11
-2.20979e-11
-1.17168e-10
-1.2936e-10
-6.17401e-11
9.694e-11
8.27334e-11
1.94391e-10
1.3414e-10
2.61846e-10
1.67452e-10
1.36091e-12
7.92298e-11
1.24344e-10
1.21853e-10
1.35368e-10
1.13101e-10
-7.79949e-11
6.65669e-11
-1.32387e-11
1.10705e-10
1.52786e-10
7.63664e-11
7.76804e-11
8.69936e-11
8.42361e-11
-1.67932e-11
4.38154e-11
-9.68989e-12
-1.25893e-10
-1.79351e-11
-6.96224e-11
9.71823e-11
-9.28603e-11
-1.64524e-10
-9.5293e-11
1.67448e-11
1.84724e-10
1.94901e-10
2.22374e-10
2.53937e-10
1.99899e-10
2.42615e-10
1.84239e-10
2.00829e-10
2.44525e-10
1.39203e-10
-7.89755e-11
5.25294e-11
6.62514e-11
-5.53252e-11
2.95889e-12
6.74441e-11
6.57479e-12
6.88037e-11
6.4109e-11
9.445e-11
1.08727e-10
2.8465e-10
3.21185e-10
2.51904e-10
2.15304e-10
1.56894e-10
1.59304e-10
1.79955e-10
8.46841e-11
1.33834e-10
5.6201e-11
1.78136e-10
1.6918e-10
-6.80549e-12
3.51786e-11
3.49784e-11
4.4145e-11
-6.06863e-11
3.37298e-11
-6.76272e-11
-2.72343e-10
-1.11328e-10
-1.05097e-10
8.45641e-11
-1.75975e-11
1.42606e-10
-1.73543e-11
-1.04269e-10
-1.83413e-10
-1.05197e-11
-7.69662e-11
2.35917e-11
-4.76741e-11
-3.59277e-11
-9.6024e-11
1.03268e-10
1.47151e-10
7.23412e-11
1.95522e-11
-3.43216e-11
3.45531e-11
-9.8195e-11
-3.88805e-11
1.05093e-12
3.96163e-11
8.48732e-12
1.04871e-10
1.27434e-10
1.01699e-10
2.94324e-10
4.27141e-10
8.88171e-10
1.61688e-09
2.42996e-09
3.69963e-09
6.16491e-09
9.75169e-09
1.53728e-08
2.40908e-08
3.74994e-08
5.87468e-08
9.18137e-08
1.43239e-07
2.23223e-07
3.47647e-07
5.41165e-07
8.41407e-07
1.30726e-06
2.02985e-06
3.15021e-06
4.88655e-06
7.57734e-06
1.17465e-05
1.82058e-05
2.82124e-05
4.37148e-05
6.77307e-05
0.000104938
0.000162583
0.000251899
0.00039029
0.000604734
0.000937035
0.00145199
0.00225002
0.00348679
0.00540351
0.00837419
0.0129785
0.0201153
0.0311782
0.0483292
0.0749193
0.116154
0.180088
0.279275
0.433018
0.671789
1.0413
1.6164
2.4976
3.88493
5.98936
9.49944
2.55439e-11
6.22864e-11
-6.25382e-11
1.95946e-11
-7.59911e-11
-4.39338e-11
6.28248e-11
-4.18409e-11
8.71457e-11
3.51637e-11
4.74222e-11
-1.02365e-10
5.18463e-11
1.47421e-10
1.79861e-10
4.6846e-12
1.25607e-11
-2.96896e-11
-5.75628e-12
-9.46638e-11
-1.23796e-10
-1.64719e-10