/*--------------------------------*- C++ -*----------------------------------*\
| =========                 |                                                 |
| \\      /  F ield         | OpenFOAM: The Open Source CFD Toolbox           |
|  \\    /   O peration     | Version:  2412                                  |
|   \\  /    A nd           | Website:  www.openfoam.com                      |
|    \\/     M anipulation  |                                                 |
\*---------------------------------------------------------------------------*/
FoamFile
{
    version     2.0;
    format      ascii;
    arch        "LSB;label=32;scalar=64";
    class       volScalarField;
    location    "0.0005";
    object      ddt0(rho,K);
}
// * * * * * * * * * * * * * * * * * * * * * * * * * * * * * * * * * * * * * //

dimensions      [1 -1 -3 0 0 0 0];

internalField   nonuniform List<scalar> 
180000
(
1.95054e-05
2.73423e-05
2.55682e-05
-2.04427e-05
-2.06484e-05
-2.38458e-05
-3.43866e-05
-3.2145e-05
-3.12861e-05
-2.32182e-05
-5.64829e-05
-4.87453e-05
-2.62143e-05
1.60903e-05
3.39399e-05
7.37914e-06
-1.3216e-05
-1.08028e-05
-4.39272e-05
7.45042e-06
5.35086e-05
2.38951e-05
3.36637e-05
2.11505e-05
2.83043e-05
1.90721e-05
-2.98086e-05
-1.08259e-05
7.22327e-06
-1.76905e-05
-2.30872e-05
-3.3103e-05
-7.74332e-06
2.68912e-05
8.88461e-05
5.8473e-05
3.39645e-05
3.13919e-05
1.15887e-05
-8.34428e-06
5.44446e-05
2.97325e-06
7.91418e-06
1.44297e-05
-3.90495e-05
-1.36284e-05
-1.22011e-05
-7.69729e-05
-4.69395e-05
-4.23447e-05
1.15772e-05
4.03038e-05
4.44863e-05
6.51213e-05
1.23265e-05
-4.01057e-05
-5.49934e-05
-4.69721e-05
-3.01104e-05
-7.56497e-06
-1.16456e-05
-2.3206e-05
-2.45099e-05
-5.19053e-05
-8.64345e-05
-4.66961e-05
2.02536e-05
1.49531e-05
-1.76693e-05
1.62437e-05
-1.70626e-05
3.4732e-05
-2.2793e-05
-2.2519e-05
-4.23941e-05
-2.35411e-05
8.5986e-06
-4.10017e-05
-2.82653e-05
-5.22276e-05
-5.21124e-05
-1.74726e-05
-7.89347e-05
-7.97936e-05
-8.7133e-06
-1.03584e-05
1.08902e-05
3.79792e-05
5.21274e-05
4.55505e-05
-1.23383e-05
2.12706e-05
-1.93209e-05
-6.66399e-05
-2.25123e-05
-1.03126e-05
-3.32602e-05
-1.85449e-05
-3.53872e-05
5.95882e-05
6.25109e-05
3.76712e-05
1.41766e-05
6.27833e-05
4.03842e-05
6.89156e-05
6.16806e-05
6.21645e-05
-1.17078e-05
8.32797e-06
-1.36438e-05
5.67488e-06
-2.38462e-05
2.19067e-05
9.44547e-06
7.59455e-06
-2.01526e-06
9.93924e-07
5.88429e-05
6.07972e-05
4.47438e-05
2.78866e-05
-2.87992e-06
-2.9837e-05
-5.31019e-05
-5.66082e-05
-4.89369e-05
-6.96015e-05
-6.01548e-05
-7.19331e-05
-3.39004e-05
-3.36039e-06
-3.60334e-05
-6.3223e-06
5.56834e-05
4.53925e-05
3.65684e-06
-2.10256e-06
-3.0657e-05
3.31353e-05
3.35754e-05
9.32357e-05
2.31505e-05
3.5495e-05
6.91574e-05
1.83445e-05
-8.62055e-06
-1.15772e-05
2.41446e-06
-2.04428e-05
2.1664e-05
4.70011e-05
8.33366e-05
4.18972e-05
2.69925e-05
5.87845e-05
5.0121e-05
5.96587e-05
0.000122046
5.81331e-05
4.79025e-05
0.000107775
0.000110275
0.000118128
5.32508e-05
7.33186e-05
2.24539e-05
4.27845e-05
4.33142e-05
4.14594e-05
5.46267e-06
3.09745e-05
-1.54673e-05
-3.24965e-05
-5.37484e-05
-5.82537e-05
-3.85515e-05
-5.87863e-05
-3.41319e-05
-1.78491e-05
1.18449e-06
7.15257e-06
-2.39355e-05
-9.0516e-06
-3.1386e-05
-1.96004e-05
1.04344e-06
4.99591e-06
1.09848e-05
-6.83589e-05
5.72922e-06
-1.27157e-05
-1.65065e-05
-1.70968e-05
7.5728e-06
3.72584e-06
4.17984e-05
2.60955e-06
6.20883e-06
8.77985e-06
5.79727e-05
5.62372e-05
6.34862e-05
4.12131e-05
2.31737e-05
-2.77247e-06
1.93716e-05
-1.14038e-06
5.77101e-06
-1.17604e-05
-1.70529e-05
1.7494e-05
6.49943e-05
5.36094e-05
5.79583e-05
5.67707e-05
4.13609e-05
5.01866e-05
1.13445e-05
5.77227e-05
1.16609e-05
6.55436e-05
9.33346e-06
-2.73164e-06
6.59222e-06
-1.0657e-05
1.19506e-05
1.21197e-05
-6.49793e-06
-1.44743e-05
6.29972e-06
8.45251e-06
-4.29814e-06
4.72276e-05
4.22417e-05
9.70428e-06
1.45799e-05
8.86699e-05
6.92783e-05
1.94992e-05
1.93816e-05
6.47563e-06
2.23228e-05
8.24576e-05
3.03464e-05
7.04509e-05
9.61837e-05
9.68348e-05
0.000156127
0.000260619
0.000297924
0.000442733
0.000686252
0.000968654
0.0014284
0.00223685
0.00348323
0.00539666
0.00836603
0.0129702
0.0202122
0.0315234
0.0490037
0.0763353
0.119176
0.185997
0.290628
0.454235
0.710357
1.11143
1.73959
2.72386
4.26628
6.68405
10.4732
16.4151
25.7317
40.3507
63.2916
99.3253
155.934
244.946
384.916
605.157
951.515
1496.13
2350.56
3688.05
5766.19
8969.12
13787.4
20844.8
30274.6
41407.1
46961.9
31794.1
-69216.6
-342989
-1.14926e+06
-2.43233e+06
1.17087e-05
2.83902e-05
1.03468e-05
1.1759e-05
-7.54415e-05
-3.65027e-05
3.8324e-05
1.59516e-05
6.00147e-05
4.5112e-05
1.13193e-06
-1.24711e-05
-6.02001e-05
-8.25919e-06
-4.66553e-05
-6.88545e-05
-7.52628e-06
-4.76076e-07
-1.40517e-05
-4.17775e-05
-1.82206e-05
-2.79492e-05
-1.43042e-05
-3.15852e-05
4.3773e-05
-8.39292e-06
-4.49829e-05
-4.12721e-05
-7.52614e-06
8.42475e-06
-3.89033e-05
7.12195e-07
-1.78178e-05
3.65243e-05
1.71321e-05
-3.67033e-05
-2.16218e-05
-4.06892e-06
-2.19793e-05
-1.32426e-05
6.34453e-06
-5.5626e-06
1.8714e-05
-6.73763e-06
7.13809e-06
-1.9057e-05
-6.98085e-05
-4.13066e-05
-2.84144e-05
1.2595e-05
3.61968e-05
1.95368e-05
2.85096e-05
4.71337e-06
1.59983e-05
3.69072e-05
3.54728e-05
4.79234e-05
2.56241e-05
1.93016e-05
2.39086e-05
5.89757e-06
-3.10735e-05
-4.82649e-05
-4.87885e-05
3.17906e-05
-5.62743e-05
-4.61389e-05
-1.82681e-05
-1.46009e-05
-2.12929e-05
-4.10676e-05
-8.2317e-06
-3.02586e-05
-3.55492e-05
-2.37914e-05
3.64342e-06
2.74338e-05
4.13297e-05
-3.97274e-05
5.15394e-05
2.42538e-05
4.84092e-06
2.91368e-05
1.02876e-05
-1.52616e-06
-1.50248e-06
-1.47522e-05
1.9314e-05
1.3115e-05
-2.17747e-05
-2.3126e-05
-1.28486e-05
1.5327e-05
-1.35425e-05
3.6448e-05
-1.56361e-06
-1.00004e-06
-2.82995e-05
-8.29115e-05
-1.98326e-05
-6.85292e-05
-6.28334e-05
-3.37254e-05
-9.92628e-06
1.73675e-05
5.81983e-05
6.25194e-05
3.51851e-05
3.32131e-05
7.5962e-05
6.14121e-05
6.38625e-05
-2.14935e-05
-6.37135e-06
-9.18511e-07
1.58186e-05
2.53336e-05
2.73747e-05
7.49577e-05
-2.39343e-06
1.49152e-05
7.20435e-07
6.23051e-05
-2.73593e-06
-1.51629e-05
-2.35854e-05
-6.11195e-05
-2.98736e-05
2.48182e-05
-2.17668e-05
-6.46076e-05
-9.58397e-05
-7.39143e-05
-5.95941e-05
-3.50956e-05
-5.79845e-05
-5.02983e-05
-2.78284e-05
-2.08205e-05
1.64162e-05
5.5795e-05
5.28987e-05
1.12223e-05
3.88604e-05
3.13343e-05
3.58585e-05
7.66395e-05
2.54024e-05
5.33003e-05
1.80895e-05
1.1996e-05
6.75e-06
7.35318e-05
2.74839e-05
-4.92191e-06
2.93091e-05
4.30367e-05
-2.63285e-05
-3.92061e-05
-1.74352e-05
4.13761e-05
3.48963e-05
0.000103331
7.84912e-05
7.01835e-05
0.000136887
0.000132298
7.55919e-05
5.29971e-05
4.14974e-05
4.03329e-05
8.50981e-05
4.43742e-05
6.50939e-05
6.90921e-05
2.64794e-05
5.8437e-05
4.83386e-05
4.93638e-05
4.14794e-05
2.60446e-05
1.19811e-05
1.49374e-05
3.92776e-05
5.53086e-05
-1.31447e-05
-2.27224e-05
-3.18508e-05
-9.75258e-06
4.83924e-06
3.92095e-06
3.74214e-05
2.85844e-05
2.8386e-05
2.10073e-05
5.45503e-05
1.02356e-05
2.71274e-05
1.68054e-05
-2.33868e-05
-2.75353e-05
-3.01271e-05
-4.1863e-05
-4.37039e-05
-3.78404e-05
-3.72409e-05
-6.37857e-05
-4.24855e-05
-1.81765e-05
-3.27301e-05
2.12935e-05
5.86556e-06
5.73095e-06
-1.21524e-05
1.9445e-05
5.55932e-05
7.86219e-05
6.05257e-05
5.94403e-05
6.38776e-05
7.78309e-05
1.92541e-05
4.9663e-05
7.25294e-05
5.4608e-05
5.9557e-05
3.45708e-05
4.08733e-06
2.00776e-05
1.45614e-05
-3.28265e-05
5.2285e-06
1.34794e-05
-4.91057e-05
-4.49567e-05
-5.37648e-06
5.04234e-05
4.07908e-05
3.01716e-05
-3.5444e-06
-4.54976e-05
-6.10861e-05
-1.07186e-05
-2.63494e-05
-3.30427e-05
-6.55121e-06
4.96212e-06
8.98251e-05
0.000113083
0.000239909
0.000416748
0.000627782
0.00087611
0.00140438
0.00220784
0.00335899
0.00517688
0.00803406
0.012511
0.0195709
0.0304044
0.0473161
0.073873
0.115194
0.179772
0.280799
0.438758
0.685912
1.07286
1.67866
2.62779
4.11443
6.44437
10.0948
15.8174
24.7868
38.8555
60.9239
95.5727
149.987
235.53
370.038
581.713
914.767
1438.91
2262.68
3555.61
5575.66
8714.9
13525.6
20776.6
31222.1
45465.2
61319.3
72517.5
48534.5
-57191.6
-422783
-1.05366e+06
-1.87668e-05
1.62547e-05
-3.69689e-05
-4.39523e-05
7.37241e-06
-9.96788e-06
-5.75135e-06
-2.15859e-05
1.07417e-05
3.54864e-05
1.61124e-05
3.77576e-05
6.22123e-05
2.32639e-05
3.21227e-05
6.94966e-05
2.65158e-05
1.44845e-05
-1.70943e-05
4.02174e-06
-3.95242e-05
-5.83868e-05
-4.90245e-05
-0.000108534
-6.89675e-05
-7.43621e-05
-0.000104655
-5.30561e-05
-3.84282e-05
6.88363e-05
9.74685e-06
4.6715e-05
3.34215e-05
2.93496e-05
5.51674e-06
3.42059e-05
-3.58105e-05
-3.1916e-05
1.47864e-05
1.54871e-05
-9.67189e-06
-7.05873e-06
9.13924e-06
1.1658e-05
-1.94418e-05
-1.56794e-05
-8.44638e-06
9.39596e-07
3.17621e-06
-1.64766e-05
-1.71936e-05
-3.01248e-05
-4.55847e-05
-8.77106e-06
-3.81924e-05
-4.91356e-05
-1.76893e-05
-4.2106e-05
3.24272e-05
3.42976e-05
2.70513e-05
-2.54443e-07
2.38647e-05
4.34845e-05
1.34553e-05
5.84694e-05
7.88808e-05
4.61521e-05
4.36335e-05
8.36741e-06
7.18825e-05
5.78742e-05
4.34538e-05
1.35009e-06
2.86116e-06
-1.00931e-05
-1.92478e-05
-2.30523e-05
-9.07298e-06
7.71875e-06
3.3984e-06
-1.8398e-05
-4.28571e-05
-0.000108214
-6.39558e-05
-4.18265e-05
-3.45476e-05
8.3115e-06
-2.81784e-05
-3.57098e-05
-3.90639e-05
3.03206e-06
-2.30966e-05
-3.70126e-05
-2.80768e-05
-3.9459e-05
-2.91685e-05
-4.79792e-05
-2.27786e-05
-1.68302e-05
-3.60885e-06
2.91041e-05
3.327e-05
2.53123e-05
5.1617e-05
-1.39727e-05
-3.1152e-05
-1.3427e-05
-3.77576e-05
5.4649e-05
-5.31215e-06
1.66312e-05
-2.00883e-05
1.1193e-05
-1.61764e-05
-0.00010614
-8.70211e-05
-2.37539e-05
-6.14573e-05
3.47126e-07
-3.77702e-05
-8.63819e-06
-3.10596e-06
8.37893e-06
-2.17564e-05
5.47658e-05
7.75387e-05
1.56568e-05
1.01853e-05
4.82809e-05
1.34403e-05
4.78829e-06
-5.19931e-05
-2.87253e-05
-7.22513e-05
-1.40274e-05
-8.15631e-06
-5.40379e-05
-3.57102e-05
-6.08355e-06
-2.0439e-05
-2.17346e-05
-4.03238e-05
-4.64456e-05
-4.3374e-05
-1.88387e-05
5.38445e-06
-1.7164e-05
-2.32949e-06
-1.08424e-05
-4.97992e-05
-1.96741e-05
2.23132e-05
-8.91314e-06
3.4357e-05
-1.90747e-05
1.45542e-05
-4.48199e-05
-2.65224e-05
4.41103e-06
4.2455e-05
2.43872e-05
1.55293e-05
2.90559e-05
5.27985e-05
2.87003e-05
8.72733e-05
0.000105851
3.36217e-05
-4.06811e-05
-5.94438e-05
-3.43447e-05
-8.44767e-05
-5.9706e-05
-4.50991e-05
-1.08798e-05
-1.48956e-05
-7.74294e-06
-7.88562e-06
8.95668e-06
3.22298e-05
1.61723e-05
-2.15841e-05
1.66229e-05
-2.40355e-05
-2.9893e-05
-9.22697e-06
4.28339e-07
4.51367e-07
6.25481e-06
5.29242e-05
3.85508e-05
1.15804e-05
2.53691e-05
5.46879e-06
-6.27035e-06
-5.22772e-05
-4.25128e-05
-2.10667e-05
8.95948e-05
5.44923e-05
5.62958e-05
6.53608e-05
4.06975e-05
3.48995e-05
4.31858e-05
5.60061e-05
1.75157e-05
4.53173e-06
-1.4948e-05
-1.89932e-05
2.98827e-05
4.23579e-05
2.53327e-05
2.52035e-05
1.62438e-05
-2.59535e-05
-2.21258e-05
-6.81601e-07
-2.08004e-05
-3.62672e-05
-6.12377e-05
-1.70299e-05
-1.23248e-05
1.85058e-05
4.8466e-05
1.45491e-05
3.4593e-05
9.88178e-06
7.00437e-05
7.93976e-05
7.77151e-05
-1.36691e-06
2.76051e-05
3.38427e-05
6.04519e-05
4.68036e-05
1.90909e-05
-2.73171e-05
-3.23436e-05
9.11193e-06
-1.55204e-05
-7.2056e-05
-5.96982e-05
-5.57339e-05
5.56994e-06
-2.88245e-05
1.34031e-05
8.91616e-05
7.12181e-05
0.000247126
0.000362563
0.000538725
0.000772047
0.00125061
0.00199726
0.00311798
0.0047843
0.00756332
0.0117532
0.0182665
0.0285301
0.0443541
0.069095
0.107745
0.168079
0.262267
0.409359
0.63938
0.999174
1.56199
2.44298
3.82177
5.98079
9.36055
14.6537
22.9414
35.9252
56.2638
88.1477
138.137
216.584
339.714
533.145
837.003
1314.55
2064.4
3241.22
5082.17
7954.39
12391.6
19194.6
29312.9
44090.4
63441.8
87130.1
98479.9
84612.5
-74076.3
-287076
3.92342e-06
6.11316e-07
-9.81562e-06
1.38682e-05
-3.69188e-05
-9.40516e-05
-3.5154e-05
-4.47828e-05
-5.70153e-05
3.63543e-06
1.90691e-05
2.22587e-05
-7.24772e-06
-3.96724e-05
-1.18673e-06
7.45723e-05
3.48349e-05
2.61419e-05
2.04425e-06
-3.53057e-05
-2.15774e-05
-6.01245e-05
-1.59719e-05
4.5208e-06
-3.57507e-05
-1.76528e-05
3.2854e-05
6.63976e-05
7.50807e-05
6.20833e-05
4.81444e-06
-5.73079e-06
1.47002e-05
3.52875e-05
4.28799e-05
2.62032e-05
1.84995e-05
-7.74818e-07
-1.28884e-05
-3.36453e-06
3.3303e-05
7.76516e-06
-2.73623e-05
-1.76617e-05
-5.58502e-05
-3.42413e-05
-1.98543e-06
1.73123e-05
-5.85102e-05
-2.79697e-05
-3.70509e-05
-1.3254e-05
-1.54141e-05
-5.01883e-05
8.52755e-06
1.7723e-05
1.88173e-05
3.2453e-05
1.2202e-05
1.01609e-05
4.94497e-05
3.81578e-05
3.35798e-05
-1.36705e-05
9.14103e-06
-5.48512e-06
-1.23381e-05
1.03988e-05
-7.85658e-05
-1.06544e-05
-3.77011e-05
-4.39025e-05
-3.94947e-05
2.08303e-05
-5.62867e-06
3.31558e-05
2.89638e-05
6.67981e-05
6.37713e-05
4.3867e-05
3.33605e-05
-7.56392e-06
2.91857e-06
3.20498e-06
-2.432e-06
6.15316e-06
3.4419e-05
1.35326e-05
2.75259e-05
1.19334e-05
-5.43497e-06
1.53276e-05
2.61308e-05
6.59099e-05
1.48311e-05
4.95987e-06
3.96174e-05
4.69169e-05
8.49431e-05
5.03901e-05
4.57229e-05
5.96849e-06
4.21792e-05
-2.7725e-05
-5.35561e-06
-4.1175e-05
-2.1978e-05
-9.1736e-05
-7.76177e-05
-8.04499e-05
-5.92463e-05
-3.07918e-05
-4.75238e-05
-1.97893e-05
-3.37558e-05
-1.01772e-05
-2.5989e-05
-4.56344e-05
-3.91937e-05
-1.16885e-05
-3.47124e-05
-6.5192e-05
-8.48901e-05
-4.80472e-05
-1.0855e-05
-2.77091e-05
3.35175e-05
-3.56027e-05
-2.42589e-05
2.75951e-06
2.30518e-05
3.79854e-05
2.23669e-05
-5.43488e-05
5.56883e-06
5.51727e-05
3.25592e-05
3.65421e-05
6.48963e-06
-2.75429e-05
1.56037e-06
-2.55942e-05
-1.36334e-05
-2.45181e-05
-1.76007e-05
2.7419e-05
2.13723e-05
-1.85642e-06
-4.3207e-05
4.92956e-06
1.99343e-05
5.30615e-06
-9.34408e-06
2.66368e-05
2.96786e-06
-4.72865e-05
-5.6979e-05
-7.14025e-05
-6.8014e-05
-3.37557e-05
-2.1603e-05
-2.17011e-05
-1.66248e-05
-3.90722e-05
5.90065e-06
-4.74637e-05
-9.62493e-05
-0.000127698
-7.53784e-05
-5.72673e-05
-1.67546e-05
7.74015e-05
3.89566e-05
4.22854e-05
1.47671e-05
3.58908e-05
3.93764e-05
2.70108e-05
6.69549e-05
2.82248e-05
7.02954e-05
8.66697e-07
5.02934e-06
7.92156e-06
-8.00844e-06
4.52397e-06
2.14032e-05
2.42353e-06
-2.26336e-05
-3.48691e-05
-7.34789e-05
-3.27898e-05
-2.12675e-05
-6.48434e-05
-6.15155e-05
-7.93227e-06
-2.39562e-05
-1.88026e-05
-3.51796e-05
1.11689e-05
4.06353e-05
3.57597e-05
-1.44603e-06
-1.20361e-05
6.50047e-05
-5.05686e-05
-6.20243e-07
2.61566e-06
3.50769e-05
2.48635e-05
-2.00716e-05
3.31223e-05
4.49879e-05
9.08998e-05
1.18553e-05
5.69698e-06
-1.84099e-05
-2.3948e-05
-4.17927e-05
-5.12682e-05
-9.32453e-05
-6.17475e-05
4.66538e-05
-1.94666e-05
-5.34671e-06
-6.23734e-06
-7.64342e-06
4.78171e-05
3.06783e-05
1.95688e-05
2.39221e-05
-3.52818e-07
-3.97205e-06
-1.99521e-05
-1.26363e-05
-4.54134e-05
5.70461e-06
2.19757e-05
-9.0619e-06
-1.72413e-05
8.82621e-06
4.72248e-05
3.35295e-05
6.56414e-05
4.1433e-05
-6.18691e-06
-2.51077e-05
-4.84752e-05
2.69137e-05
6.59249e-05
0.000140933
0.000247202
0.000469641
0.000681696
0.00107308
0.00176736
0.00281583
0.00439422
0.00684504
0.0106926
0.0167411
0.0259463
0.0403234
0.0627985
0.0976574
0.152101
0.237074
0.369572
0.576341
0.899396
1.4042
2.1931
3.42599
5.35405
8.36838
13.0831
20.4547
31.9857
50.0183
78.2342
122.38
191.499
299.724
469.316
735.068
1151.76
1804.76
2828.18
4428.59
6929.12
10808.9
16814.7
25914.4
39689
59109.9
86786.8
114529
146530
107973
133879
1.76555e-05
-7.30491e-06
-4.13122e-05
-5.4248e-07
4.44579e-05
8.80076e-06
3.34319e-05
2.58542e-05
-6.77213e-06
-6.58544e-06
-8.6709e-06
-2.62332e-06
1.73462e-05
-3.39999e-07
1.59725e-06
-1.45167e-05
-1.7969e-05
1.71477e-05
2.8188e-06
2.64631e-05
5.43937e-05
0.000107371
9.99406e-05
4.61032e-05
5.70469e-05
4.29826e-06
2.20855e-05
-8.73742e-06
-7.41268e-07
1.39341e-05
4.85603e-05
2.49794e-05
2.42901e-05
4.58332e-05
3.30626e-05
6.14451e-06
9.3058e-06
-2.02024e-05
-8.39413e-06
-1.11251e-05
2.4632e-05
-4.6249e-06
-2.30081e-05
-3.40861e-05
-1.34792e-06
4.04428e-06
4.61971e-05
1.70942e-05
3.25939e-05
3.17031e-06
-3.17895e-05
-2.68801e-05
-2.6964e-06
-3.56914e-05
1.53982e-05
2.29596e-05
2.10848e-05
1.73696e-05
2.52314e-05
1.1483e-05
3.29158e-05
3.57063e-05
-1.10501e-05
-2.34229e-05
-3.17715e-05
-3.61227e-05
-3.72732e-05
-1.24712e-05
-1.33413e-05
1.11404e-05
-1.53382e-05
2.04993e-05
1.55617e-05
7.4351e-05
7.28737e-05
4.36073e-05
3.72927e-05
1.74137e-05
9.44615e-06
8.16118e-05
5.06021e-05
4.86559e-05
1.92043e-05
4.52093e-05
-1.10604e-05
4.05289e-05
3.78155e-05
1.41176e-05
1.62966e-05
-1.72627e-06
5.27095e-06
-9.2747e-06
-2.13396e-06
5.59492e-05
1.65951e-05
-3.72271e-05
-5.7254e-05
-9.42445e-05
-3.74266e-05
-2.06094e-05
-1.44038e-06
-4.0571e-05
-4.03937e-05
-4.87203e-05
-2.13726e-05
-1.20907e-05
-1.67823e-05
-1.92749e-06
-1.46862e-05
-3.58601e-05
-4.09669e-06
-1.43493e-05
4.22386e-06
-6.21161e-06
-2.96724e-05
-2.5729e-05
-7.35477e-06
1.42255e-05
-1.54887e-05
-2.56917e-06
-3.93559e-05
-2.16044e-06
3.22292e-06
6.86269e-06
-3.68499e-06
2.00029e-05
1.38595e-06
3.18681e-05
5.10238e-06
-3.50251e-05
-7.03343e-06
2.61973e-06
-6.20032e-05
-9.21554e-06
3.01084e-06
3.48132e-05
-2.45031e-06
-7.06122e-06
4.40888e-05
1.68089e-05
7.02287e-05
7.3413e-05
3.01909e-05
-7.64598e-06
-1.79104e-05
-3.96439e-05
-5.03822e-05
-5.37364e-05
-0.000112254
-0.000117689
-0.000104168
-6.58013e-05
-9.61852e-05
-4.53589e-05
-1.90352e-05
-4.74394e-05
-6.09085e-05
-3.88808e-05
1.7952e-05
-4.6222e-05
-2.97296e-05
-3.83015e-05
-6.34931e-05
-5.41053e-05
-2.03784e-05
3.11682e-06
5.60502e-06
4.90191e-05
4.79327e-06
8.2102e-06
-2.50121e-06
4.12999e-05
3.0412e-05
3.95975e-06
2.03404e-05
7.29705e-07
-4.25392e-05
1.86147e-05
1.59869e-05
6.6172e-06
2.70672e-05
-3.91164e-05
2.41501e-05
4.95851e-05
8.68462e-05
7.23965e-05
9.27096e-05
4.98456e-05
1.34291e-05
1.79576e-07
-4.31743e-05
-2.52145e-06
-3.78635e-05
-4.72886e-05
-2.22616e-05
-3.20879e-05
-1.4442e-05
3.43479e-06
-2.09333e-05
-5.29173e-05
-4.06726e-05
7.17226e-06
-1.52013e-05
-7.16767e-05
-1.40737e-05
3.882e-07
1.97827e-05
1.70755e-05
5.208e-05
2.62745e-05
2.85703e-05
-3.93293e-06
3.80652e-05
3.18586e-05
-6.28632e-07
8.3239e-06
-3.74123e-05
-6.88043e-06
-2.58669e-05
-1.25017e-05
-3.20106e-05
-1.47821e-05
6.27443e-05
3.00334e-06
-4.10517e-05
-3.82575e-05
-5.55146e-05
-6.56941e-05
-5.94811e-05
-7.08657e-05
-2.14173e-06
-1.58483e-05
-3.20484e-05
-3.7222e-05
-4.04645e-05
-6.83286e-05
-1.97145e-05
3.6414e-05
-8.08197e-06
2.08283e-05
8.0346e-06
4.07267e-05
2.47126e-05
-8.71392e-06
1.06846e-05
3.39236e-06
3.55682e-05
4.98047e-05
6.73108e-05
0.000121097
0.000197563
0.000264248
0.000397061
0.000668407
0.000989017
0.00161567
0.00249896
0.00394811
0.00610004
0.00947649
0.0147086
0.0229265
0.0355191
0.0552152
0.0857795
0.133522
0.207797
0.323378
0.503529
0.784375
1.22248
1.90589
2.9722
4.63688
7.23507
11.2919
17.6245
27.5132
42.9496
67.0558
104.692
163.48
255.297
398.787
623.007
973.587
1521.52
2378.26
3715.72
5804.1
9048.01
14090.3
21799.4
33675.4
51006.1
77253.8
108594
155921
172645
304292
1.59745e-05
-1.90429e-05
3.19172e-06
-6.31373e-06
9.62449e-06
-1.00453e-05
-1.15061e-05
5.24011e-06
-2.42772e-05
1.62028e-05
4.56842e-05
-5.68373e-06
-1.03459e-06
5.87703e-05
2.11175e-06
5.34759e-05
2.8935e-07
-3.31683e-05
-4.47216e-05
-3.49794e-05
-3.31177e-05
-4.5e-06
-2.22691e-05
-5.91669e-05
-6.63034e-05
-7.40079e-05
-1.04096e-06
-3.31241e-06
-3.27632e-05
-6.3469e-05
-5.06031e-05
9.45887e-06
3.82717e-05
-3.53494e-05
4.22061e-05
4.99635e-05
3.9202e-06
2.39758e-05
-7.62112e-06
-3.17673e-05
-7.70085e-05
-1.88457e-05
-2.29934e-05
-2.43756e-05
-1.0708e-05
-2.80808e-05
6.92685e-06
7.25873e-05
2.74769e-05
-1.50082e-05
-1.22276e-05
1.00715e-05
-1.26202e-05
1.27752e-05
3.12063e-06
2.22303e-05
-3.31938e-05
-1.03277e-05
1.71011e-06
-9.34584e-06
-8.75814e-05
-7.14024e-05
-3.63006e-05
-8.51969e-06
-5.47032e-05
-1.89002e-05
1.13924e-05
-1.83893e-05
-3.45076e-05
3.07433e-05
3.39731e-05
5.91825e-06
-1.86549e-05
1.1503e-05
-8.9238e-06
-6.57652e-06
2.69043e-05
3.15688e-05
4.78148e-05
3.22535e-05
-5.86087e-06
-5.62399e-06
6.86083e-06
3.60396e-05
4.12067e-05
6.98094e-05
1.90248e-05
1.65836e-05
5.26657e-05
3.49889e-05
1.3709e-06
-5.96031e-05
-1.64707e-05
-4.05408e-07
-5.78605e-06
-1.30184e-05
-3.84373e-05
-3.17754e-05
-5.98896e-05
-1.70259e-05
-1.96867e-05
-5.21807e-05
-3.1685e-05
-6.25987e-05
-6.17174e-05
-6.83509e-05
-6.91135e-05
-6.93299e-05
-5.46152e-05
-4.09223e-05
2.47781e-06
-5.91349e-05
-8.31122e-05
-7.16623e-05
-1.6558e-05
1.16518e-05
1.03579e-05
-3.65536e-06
4.11459e-05
1.59295e-05
-2.55692e-05
-3.09042e-06
-1.99642e-05
4.41315e-05
1.67489e-05
3.76204e-05
-2.20711e-05
5.64561e-06
-3.73145e-05
-9.09627e-05
-4.15488e-05
-2.39879e-05
2.77887e-05
2.83996e-05
-1.79807e-05
4.91147e-08
4.2021e-05
1.0056e-05
-2.83641e-05
1.63929e-05
8.06671e-06
-8.97259e-06
3.21843e-06
3.17247e-05
2.18741e-05
1.30883e-05
2.60016e-05
1.86625e-05
6.03307e-05
1.50918e-05
7.65864e-05
6.63467e-05
3.38486e-05
4.21554e-05
3.83433e-05
2.73653e-05
-2.72679e-05
1.85612e-05
5.58379e-05
4.03544e-05
7.85079e-05
4.6654e-05
5.72694e-05
3.63262e-05
-2.45875e-05
-4.56828e-05
-2.70983e-05
-6.22601e-05
-7.55369e-06
-6.62662e-07
-2.04996e-05
-3.16423e-05
-4.71981e-06
-9.11405e-07
1.57356e-05
1.53716e-05
1.45771e-05
-1.02185e-05
3.53019e-05
4.24887e-07
7.87404e-06
-4.17635e-05
-1.58762e-05
-6.7326e-06
4.17822e-06
1.52469e-05
2.42416e-06
1.8643e-05
2.34268e-05
7.50708e-05
-1.40624e-05
2.09745e-05
9.33046e-06
2.78368e-05
8.2448e-06
-1.01623e-06
3.99359e-05
4.33634e-05
-8.98607e-06
3.9649e-05
5.40807e-05
4.72444e-06
2.7998e-07
-1.08629e-05
2.69749e-05
-9.39825e-06
-1.58e-06
-2.90118e-05
-1.16655e-05
-3.03834e-05
2.93095e-07
3.86231e-05
1.33682e-05
2.53242e-05
3.15368e-06
2.36027e-05
4.5306e-05
1.10736e-05
2.24473e-05
4.29529e-05
-3.67455e-06
-8.08868e-06
-6.62048e-06
-1.54634e-05
-8.21205e-06
3.25161e-06
-1.94736e-07
-1.81592e-05
1.09298e-05
-2.9694e-05
-1.40103e-05
-1.37805e-05
1.15594e-05
1.32908e-05
6.14787e-06
1.50646e-05
-3.72798e-05
-2.21035e-05
-4.46877e-07
-4.45852e-05
2.02165e-05
3.76357e-05
3.02811e-05
6.87137e-06
2.14811e-05
2.72277e-05
5.7387e-05
1.52208e-05
2.85066e-05
9.50393e-05
0.000148623
0.000239113
0.00032431
0.000549538
0.000857798
0.00139602
0.00214726
0.0033237
0.00521776
0.0081443
0.0126757
0.0196728
0.0304832
0.0472246
0.0734099
0.113888
0.176963
0.275054
0.427507
0.664737
1.03406
1.60922
2.50478
3.90014
6.07388
9.46189
14.7406
22.9685
35.7889
55.7722
86.9098
135.446
211.081
328.998
512.792
799.415
1246.22
1943.11
3028.74
4721.36
7349.46
11440
17720.7
27482.3
41983.2
64602.1
93692.7
141522
178723
340076
-4.40806e-05
-1.48276e-05
1.27082e-05
-2.44327e-05
1.73677e-05
2.83932e-05
8.01028e-05
3.17744e-05
2.5233e-06
-3.91828e-05
-1.46617e-05
-3.49227e-08
-3.10555e-05
-2.93152e-05
-5.87613e-06
9.01348e-06
-2.79976e-05
-3.85554e-05
-3.07013e-05
-5.9168e-05
-3.67621e-05
-2.38588e-05
-2.48016e-05
-5.1197e-05
-3.375e-05
-4.58521e-05
-5.122e-06
1.24091e-06
-4.43986e-05
-3.48709e-05
-2.32342e-05
-1.51306e-05
-4.11833e-05
-7.95141e-06
-1.15821e-05
2.70721e-07
-3.74197e-05
-2.32811e-05
-5.14647e-05
-6.31336e-05
-3.00538e-05
-3.53224e-05
1.01912e-05
1.42863e-05
-3.83216e-06
-3.22236e-05
-2.99698e-05
-6.40988e-05
-2.4763e-05
-5.4194e-05
-2.62082e-05
-1.81152e-05
-2.03479e-05
-3.58993e-05
2.72783e-05
-3.342e-05
-3.27229e-06
2.77657e-05
1.7961e-06
1.35551e-05
1.16121e-06
-8.57123e-06
-4.36794e-05
1.2607e-05
4.46316e-05
4.38386e-05
4.71513e-05
1.00559e-05
4.48293e-05
-2.73761e-06
-1.91601e-05
3.27827e-05
2.87475e-07
1.48199e-05
1.44569e-05
1.46433e-05
2.72277e-05
1.45286e-05
-4.8411e-05
-2.68981e-06
-3.44076e-05
2.22785e-05
7.51788e-06
1.26827e-05
2.8732e-05
1.59597e-05
1.73128e-05
-6.47861e-05
2.31156e-06
-8.80683e-06
-5.15701e-05
1.96474e-05
-1.92933e-05
-1.31893e-05
3.15349e-06
-3.51456e-05
-1.39479e-05
1.37483e-05
-2.10435e-05
-4.57972e-06
5.46602e-05
4.0567e-05
4.42921e-05
1.5693e-05
1.96959e-05
-1.29584e-05
4.53465e-06
-3.69037e-05
-1.87382e-05
-5.16014e-05
2.1603e-05
5.89722e-05
2.96237e-05
3.72467e-05
1.20885e-06
-2.10793e-05
-1.16834e-05
3.10855e-05
3.80689e-05
7.58736e-06
-5.71182e-06
1.61164e-05
3.36787e-05
6.00415e-05
-1.17912e-05
-8.03175e-06
-4.25631e-05
-2.84451e-05
-6.52263e-06
7.50274e-06
-6.75328e-06
-5.22883e-06
2.87592e-06
5.80178e-05
2.20773e-05
-1.50757e-05
-1.55152e-06
2.73687e-05
5.65303e-05
0.000101777
6.15482e-05
5.66178e-05
5.67242e-05
7.68571e-05
5.19227e-05
4.02839e-05
4.56692e-05
8.79783e-06
3.15704e-06
2.6109e-05
4.44103e-05
-8.8021e-06
-2.86094e-06
5.96716e-06
-1.81536e-06
6.11938e-06
9.02981e-06
-9.10572e-06
7.35631e-06
9.08547e-06
-1.38009e-05
-2.49416e-05
-3.46856e-05
-1.54908e-05
-3.07503e-05
3.53961e-05
-1.87373e-05
-6.22238e-05
-3.43784e-05
-4.75361e-05
-4.62964e-05
-1.20329e-05
-6.13504e-06
3.8691e-06
2.22615e-05
-4.27819e-06
-2.70442e-05
-6.03247e-05
-3.12482e-05
-1.3593e-05
-2.67978e-05
4.69919e-05
5.28109e-05
3.58493e-05
6.07636e-05
1.11413e-05
5.17045e-05
1.53144e-05
5.8503e-05
7.79869e-05
1.51206e-05
-1.17954e-05
-7.49349e-06
4.55696e-05
4.49145e-05
8.4668e-06
6.88016e-06
2.99735e-06
-1.09873e-05
-3.41696e-05
-6.59374e-05
-4.56488e-05
-3.09319e-05
-3.51712e-05
-1.63658e-05
-2.70337e-05
-3.91187e-05
3.87967e-05
2.9909e-06
-1.27743e-05
4.84033e-06
-8.61231e-05
-4.49259e-05
7.60784e-06
-1.59944e-05
2.65938e-06
-6.29187e-06
-2.03984e-06
3.10832e-05
5.45323e-05
9.25262e-05
5.61252e-05
2.01076e-05
1.40277e-05
5.89022e-05
9.90771e-06
1.13074e-05
5.44179e-05
-2.52716e-05
-6.47652e-06
7.39101e-07
-5.84561e-05
-1.01556e-05
-2.4572e-05
-1.61435e-05
-4.409e-05
-2.84848e-05
-1.25756e-05
-5.14606e-05
-1.48059e-05
-1.1272e-05
-7.98398e-06
-4.66975e-05
-6.17348e-05
-4.52201e-05
-4.40875e-05
-3.3492e-06
8.74846e-06
6.81834e-05
2.55733e-05
0.000111852
0.00019212
0.000342729
0.000442596
0.000724757
0.00115651
0.00178828
0.00275088
0.00436241
0.00681506
0.0105543
0.0162946
0.0253718
0.0393587
0.0610003
0.0946858
0.146889
0.227976
0.353708
0.549149
0.852656
1.32438
2.05753
3.19764
4.9703
7.72786
12.0165
18.6891
29.0677
45.2159
70.3335
109.414
170.201
264.784
411.908
640.855
996.982
1551.26
2413.03
3754.42
5835.14
9073.78
14055.4
21831.7
33495.1
51969.4
76647.6
118797
159469
313349
-4.09734e-05
-2.883e-05
-1.83042e-05
-4.49144e-05
5.17727e-06
6.51012e-05
-1.61689e-05
-3.2978e-05
-1.40815e-05
3.75338e-05
2.36121e-05
1.40385e-07
4.32489e-05
5.25679e-05
5.37547e-05
3.54733e-05
9.22161e-05
6.11488e-05
4.20129e-06
-2.60251e-05
1.56671e-05
-6.00434e-06
-3.09002e-05
-1.24436e-05
8.55043e-05
5.91991e-05
8.09267e-05
3.82704e-05
6.77656e-05
8.95659e-05
8.02665e-05
-6.44005e-07
1.66315e-05
-4.6254e-05
-2.89031e-05
-3.94938e-05
-7.24814e-05
-4.29586e-05
6.2159e-06
2.54562e-05
-8.39506e-06
-5.03096e-05
-1.82389e-05
-3.27731e-07
-1.63417e-05
5.0477e-05
-1.66987e-05
-2.7969e-05
-1.74389e-05
-1.20281e-06
5.75556e-05
3.76112e-05
-2.02535e-05
-9.04544e-06
1.00979e-05
-1.45925e-05
1.8715e-05
8.35724e-05
5.27653e-05
5.1074e-05
5.72671e-05
6.51461e-05
2.55467e-05
-6.66834e-06
8.30435e-06
1.75731e-05
4.68345e-05
1.88751e-05
4.6713e-05
-3.42328e-05
-1.78558e-05
-6.97869e-06
1.14091e-05
9.90046e-06
8.95843e-06
-1.69277e-05
-2.47711e-06
2.76957e-05
-4.51725e-05
-5.42192e-05
-1.86109e-05
-1.39969e-05
-1.40123e-05
6.70012e-06
-1.1686e-07
2.0055e-05
1.80682e-05
1.48424e-05
3.57826e-05
-1.76549e-05
-8.87765e-05
-5.06436e-05
-4.1381e-06
-2.96204e-05
2.99282e-05
8.09827e-07
-1.03585e-05
4.20142e-05
4.64746e-05
7.01277e-05
5.76212e-05
7.14783e-05
2.82952e-05
-1.62372e-06
-2.33586e-05
-2.92184e-05
-3.19669e-05
-7.53237e-07
3.32347e-06
-3.27112e-05
-2.90874e-05
1.17013e-05
-3.80731e-06
-1.05654e-05
-4.96421e-05
5.22898e-06
6.27587e-05
-1.3043e-05
-9.92895e-08
-5.28873e-06
3.2778e-05
3.45179e-05
3.1927e-05
6.4268e-05
7.05981e-05
5.38733e-05
1.25831e-05
3.23568e-05
1.88632e-05
5.16837e-06
5.11817e-05
6.62146e-05
2.08515e-05
5.60269e-05
-7.46564e-06
1.88646e-05
1.07989e-05
6.17028e-05
1.71432e-05
5.34048e-06
-2.94174e-05
-3.89189e-05
-1.71177e-05
1.07815e-05
6.35985e-05
3.90388e-05
6.86852e-05
3.62555e-05
5.96313e-05
1.8732e-05
6.48916e-06
3.34969e-05
6.34105e-05
3.71863e-05
3.59304e-05
3.2029e-05
-4.00318e-05
3.42504e-05
1.35072e-05
4.40984e-05
3.65741e-05
-2.20684e-06
6.80036e-07
-1.9885e-05
-8.1655e-06
-4.14471e-05
-2.74163e-05
-3.57574e-05
-7.72706e-05
1.57046e-05
-1.57805e-05
2.05751e-05
-3.87701e-05
-3.8308e-05
-1.28588e-05
2.5062e-05
8.1723e-05
6.27856e-05
5.48792e-05
6.83907e-05
3.4468e-05
1.55967e-05
2.80437e-05
7.59207e-07
4.49264e-05
3.05494e-06
-5.39709e-05
9.20618e-07
-2.02146e-05
-4.50909e-05
-2.65175e-05
7.66878e-06
-5.9138e-06
2.33996e-05
1.65701e-05
2.3956e-05
1.97745e-05
5.8802e-05
7.72742e-05
5.62548e-05
4.76969e-05
7.34884e-06
4.04215e-05
-1.26396e-05
-5.35082e-05
-1.87804e-05
-5.31773e-05
-5.36319e-05
-8.4784e-05
-6.33553e-05
6.21792e-06
1.87676e-05
-1.51247e-05
-2.93462e-05
-1.63933e-05
-7.81822e-05
-8.33142e-05
-4.81758e-05
-1.45115e-05
6.95164e-06
-4.65217e-05
2.87983e-06
-2.65131e-05
-6.94335e-05
-7.07958e-05
-3.1419e-05
-2.64047e-05
-1.35809e-05
-4.02635e-05
9.93602e-06
2.10649e-05
5.70417e-05
5.85798e-05
-9.21637e-07
-1.66986e-05
-5.36296e-05
-8.79894e-07
-2.46703e-05
-2.44545e-06
-8.0698e-06
-3.47912e-05
-2.0901e-05
-4.05378e-06
-5.37651e-05
-7.72686e-05
-6.54224e-05
-7.33841e-05
7.34169e-06
5.75417e-05
2.64095e-05
5.37917e-05
0.000168075
0.000285736
0.000377709
0.00067507
0.000908865
0.00145374
0.00231673
0.00356259
0.00547626
0.00854132
0.0133074
0.0206274
0.0320051
0.0495347
0.0768499
0.11903
0.18442
0.285794
0.443053
0.686892
1.06519
1.65208
2.56319
3.97723
6.17313
9.58227
14.8776
23.1005
35.874
55.7112
86.5281
134.387
208.738
324.209
503.606
782.205
1215.11
1887.13
2931.71
4550.41
7068.76
10945.1
17008.4
26151.4
40753.5
60679.5
95372.4
132279
264028
1.52641e-05
-8.04777e-06
-3.22537e-05
-3.83909e-07
-4.05857e-05
2.57069e-06
3.61148e-05
3.40139e-05
6.99521e-05
3.80666e-05
3.94689e-05
4.45309e-05
5.57354e-05
4.95646e-05
1.14208e-05
-9.09245e-06
-2.30022e-05
-2.02859e-05
1.57556e-06
-4.242e-05
-4.69607e-05
-6.32864e-05
2.98213e-05
1.2345e-05
5.14386e-05
3.43988e-05
-1.29128e-06
1.85447e-05
-3.95209e-05
-2.50344e-05
-5.6145e-05
-4.12456e-05
-4.16947e-05
-7.15414e-05
-2.0532e-05
1.27362e-05
9.52266e-06
3.3627e-06
1.36892e-05
1.23017e-05
2.50192e-06
5.22849e-05
6.53117e-05
4.65565e-05
1.64737e-05
3.43824e-05
6.7178e-05
6.66412e-05
8.35373e-05
2.91042e-07
-2.04824e-05
9.60886e-06
2.23351e-06
-2.36796e-05
9.32913e-06
-8.47476e-06
1.12812e-05
-4.04648e-05
2.54872e-06
-2.97293e-05
1.12528e-05
2.22039e-05