/*--------------------------------*- C++ -*----------------------------------*\
| =========                 |                                                 |
| \\      /  F ield         | OpenFOAM: The Open Source CFD Toolbox           |
|  \\    /   O peration     | Version:  2412                                  |
|   \\  /    A nd           | Website:  www.openfoam.com                      |
|    \\/     M anipulation  |                                                 |
\*---------------------------------------------------------------------------*/
FoamFile
{
    version     2.0;
    format      ascii;
    arch        "LSB;label=32;scalar=64";
    class       volVectorField;
    location    "0.0005";
    object      U;
}
// * * * * * * * * * * * * * * * * * * * * * * * * * * * * * * * * * * * * * //

dimensions      [0 1 -1 0 0 0 0];

internalField   nonuniform List<vector> 
180000
(
(664 8.65974e-15 0)
(664 1.72982e-14 0)
(664 1.99855e-14 0)
(664 -2.05675e-14 0)
(664 -3.4304e-14 0)
(664 -1.91492e-14 0)
(664 -2.38602e-14 0)
(664 -7.16749e-14 0)
(664 -7.57146e-14 0)
(664 -6.98322e-14 0)
(664 -1.57357e-13 0)
(664 -2.67261e-13 0)
(664 -3.33598e-13 0)
(664 -3.77373e-13 0)
(664 -4.30383e-13 0)
(664 -5.56923e-13 0)
(664 -7.31002e-13 0)
(664 -8.57058e-13 0)
(664 -8.74037e-13 0)
(664 -8.3774e-13 0)
(664 -7.55942e-13 0)
(664 -6.60168e-13 0)
(664 -6.26017e-13 0)
(664 -6.43474e-13 0)
(664 -6.42531e-13 0)
(664 -6.79938e-13 0)
(664 -7.01126e-13 0)
(664 -6.49428e-13 0)
(664 -6.09398e-13 0)
(664 -6.37748e-13 0)
(664 -6.40459e-13 0)
(664 -5.85588e-13 0)
(664 -4.96644e-13 0)
(664 -4.44126e-13 0)
(664 -4.45513e-13 0)
(664 -4.33752e-13 0)
(664 -3.83277e-13 0)
(664 -3.75939e-13 0)
(664 -3.85549e-13 0)
(664 -3.82102e-13 0)
(664 -3.37e-13 0)
(664 -2.43876e-13 0)
(664 -9.38702e-14 0)
(664 1.47186e-13 0)
(664 4.60946e-13 0)
(664 6.89126e-13 0)
(664 6.92663e-13 0)
(664 6.3578e-13 0)
(664 6.48527e-13 0)
(664 7.01936e-13 0)
(664 7.44666e-13 0)
(664 7.84679e-13 0)
(664 7.71379e-13 0)
(664 5.86393e-13 0)
(664 3.79721e-13 0)
(664 2.83703e-13 0)
(664 2.3513e-13 0)
(664 1.53412e-13 0)
(664 4.22723e-15 0)
(664 -2.16505e-13 0)
(664 -4.31849e-13 0)
(664 -5.76859e-13 0)
(664 -6.63782e-13 0)
(664 -8.04936e-13 0)
(664 -8.37266e-13 0)
(664 -7.6953e-13 0)
(664 -7.60494e-13 0)
(664 -7.77886e-13 0)
(664 -7.6221e-13 0)
(664 -6.06117e-13 0)
(664 -3.70623e-13 0)
(664 -2.57077e-13 0)
(664 -2.38979e-13 0)
(664 -2.6604e-13 0)
(664 -3.36865e-13 0)
(664 -3.91443e-13 0)
(664 -4.19512e-13 0)
(664 -5.05581e-13 0)
(664 -6.60767e-13 0)
(664 -8.18845e-13 0)
(664 -8.71572e-13 0)
(664 -7.92037e-13 0)
(664 -6.91056e-13 0)
(664 -6.36292e-13 0)
(664 -6.38269e-13 0)
(664 -7.04409e-13 0)
(664 -7.78842e-13 0)
(664 -7.41784e-13 0)
(664 -5.88829e-13 0)
(664 -4.79666e-13 0)
(664 -4.20251e-13 0)
(664 -3.79951e-13 0)
(664 -2.98064e-13 0)
(664 -2.22145e-13 0)
(664 -1.61641e-13 0)
(664 -1.39435e-13 0)
(664 -1.19603e-13 0)
(664 -4.46787e-14 0)
(664 9.42884e-14 0)
(664 2.42655e-13 0)
(664 3.39795e-13 0)
(664 4.13626e-13 0)
(664 4.61081e-13 0)
(664 4.79729e-13 0)
(664 5.69737e-13 0)
(664 6.23393e-13 0)
(664 5.85868e-13 0)
(664 5.0779e-13 0)
(664 4.86636e-13 0)
(664 5.61486e-13 0)
(664 5.15083e-13 0)
(664 3.1983e-13 0)
(664 1.47077e-13 0)
(664 1.14224e-13 0)
(664 1.81488e-13 0)
(664 1.87053e-13 0)
(664 8.47799e-14 0)
(664 -2.39523e-15 0)
(664 -3.00921e-14 0)
(664 -4.91946e-14 0)
(664 -1.13889e-13 0)
(664 -2.6388e-13 0)
(664 -3.35472e-13 0)
(664 -3.31764e-13 0)
(664 -3.18586e-13 0)
(664 -4.13922e-13 0)
(664 -4.68155e-13 0)
(664 -4.24048e-13 0)
(664 -3.08497e-13 0)
(664 -3.02419e-13 0)
(664 -3.79124e-13 0)
(664 -3.32994e-13 0)
(664 -2.08006e-13 0)
(664 -7.1527e-14 0)
(664 3.67702e-14 0)
(664 1.82374e-13 0)
(664 2.55312e-13 0)
(664 2.30241e-13 0)
(664 1.33354e-13 0)
(664 1.20757e-13 0)
(664 2.15526e-13 0)
(664 3.13121e-13 0)
(664 3.28624e-13 0)
(664 2.30578e-13 0)
(664 1.67151e-13 0)
(664 2.83801e-13 0)
(664 3.7806e-13 0)
(664 3.51479e-13 0)
(664 2.55611e-13 0)
(664 1.75145e-13 0)
(664 1.28026e-13 0)
(664 1.38511e-13 0)
(664 2.05084e-13 0)
(664 2.2131e-13 0)
(664 2.06189e-13 0)
(664 1.85571e-13 0)
(664 1.82781e-13 0)
(664 1.80059e-13 0)
(664 1.66356e-13 0)
(664 1.88882e-13 0)
(664 3.23267e-13 0)
(664 5.19778e-13 0)
(664 6.46963e-13 0)
(664 6.33019e-13 0)
(664 4.40859e-13 0)
(664 1.434e-13 0)
(664 -3.08484e-14 0)
(664 -4.84714e-14 0)
(664 -1.05922e-13 0)
(664 -2.91308e-13 0)
(664 -4.3223e-13 0)
(664 -3.85297e-13 0)
(664 -2.37768e-13 0)
(664 -1.17904e-13 0)
(664 -1.09486e-13 0)
(664 -1.06348e-13 0)
(664 -2.87706e-14 0)
(664 4.3034e-14 0)
(664 1.23452e-13 0)
(664 1.95168e-13 0)
(664 1.99967e-13 0)
(664 1.84345e-13 0)
(664 1.74881e-13 0)
(664 2.30915e-13 0)
(664 2.99939e-13 0)
(664 2.89987e-13 0)
(664 2.91234e-13 0)
(664 3.34099e-13 0)
(664 4.66437e-13 0)
(664 5.08441e-13 0)
(664 4.28652e-13 0)
(664 2.66404e-13 0)
(664 2.16551e-13 0)
(664 1.7916e-13 0)
(664 1.6644e-13 0)
(664 1.438e-13 0)
(664 1.38815e-13 0)
(664 1.07005e-13 0)
(664 7.43681e-14 0)
(664 1.90767e-14 0)
(664 -5.73057e-14 0)
(664 -1.27188e-13 0)
(664 -2.37971e-13 0)
(664 -4.29697e-13 0)
(664 -6.04297e-13 0)
(664 -7.39158e-13 0)
(664 -8.45624e-13 0)
(664 -9.02507e-13 0)
(664 -8.62732e-13 0)
(664 -6.6212e-13 0)
(664 -4.04129e-13 0)
(664 -2.06232e-13 0)
(664 -4.61988e-14 0)
(664 1.65419e-13 0)
(664 3.71664e-13 0)
(664 5.5745e-13 0)
(664 6.88866e-13 0)
(664 6.83407e-13 0)
(664 5.91022e-13 0)
(664 4.13865e-13 0)
(664 1.80623e-13 0)
(664 -2.38349e-14 0)
(664 -1.71405e-13 0)
(664 -2.78644e-13 0)
(664 -2.95719e-13 0)
(664 -1.95363e-13 0)
(664 -8.22345e-14 0)
(664 -9.24281e-14 0)
(664 -1.10355e-13 0)
(664 -8.74863e-14 0)
(664 -9.21307e-16 0)
(664 3.88087e-14 0)
(664 -8.55954e-15 0)
(664 -6.60822e-14 0)
(664 -8.38171e-14 0)
(664 -9.07249e-14 0)
(664 -8.88826e-14 0)
(664 1.1275e-14 0)
(664 9.52549e-14 0)
(664 2.0196e-13 0)
(664 3.29663e-13 0)
(664 4.2452e-13 0)
(664 4.9165e-13 0)
(664 4.97705e-13 0)
(664 5.01085e-13 0)
(664 5.37057e-13 0)
(664 5.9103e-13 0)
(664 5.28243e-13 0)
(664 5.82513e-13 0)
(664 1.00187e-12 0)
(664 2.0137e-12 0)
(664 4.02705e-12 0)
(664 8.02533e-12 0)
(664 1.57163e-11 0)
(664 3.01016e-11 0)
(664 5.71879e-11 0)
(664 1.08366e-10 0)
(664 2.04826e-10 0)
(664 3.86196e-10 0)
(664 7.25559e-10 0)
(664 1.35839e-09 0)
(664 2.53464e-09 0)
(664 4.71495e-09 0)
(664 8.73655e-09 0)
(664 1.61371e-08 0)
(664 2.9719e-08 0)
(664 5.455e-08 0)
(664 9.97641e-08 0)
(664 1.81999e-07 0)
(664 3.31102e-07 0)
(664 6.00369e-07 0)
(664 1.08556e-06 0)
(664 1.95901e-06 0)
(664 3.52561e-06 0)
(664 6.3275e-06 0)
(664 1.13347e-05 0)
(664 2.02694e-05 0)
(663.999 3.61604e-05 0)
(663.999 6.43899e-05 0)
(663.998 0.00011452 0)
(663.997 0.000203385 0)
(663.995 0.000360618 0)
(663.991 0.000638788 0)
(663.985 0.00113075 0)
(663.974 0.00199986 0)
(663.955 0.00353445 0)
(663.924 0.00624516 0)
(663.87 0.0110333 0)
(663.778 0.0194905 0)
(663.623 0.0344341 0)
(663.36 0.0608613 0)
(662.913 0.107622 0)
(662.157 0.19045 0)
(660.876 0.337281 0)
(658.71 0.59815 0)
(655.045 1.06173 0)
(648.861 1.88944 0)
(638.424 3.36305 0)
(621.074 6.01672 0)
(592.953 10.7047 0)
(664 -2.7967e-15 0)
(664 -1.3053e-14 0)
(664 4.36374e-15 0)
(664 1.31315e-14 0)
(664 2.53796e-14 0)
(664 4.26237e-14 0)
(664 3.62172e-14 0)
(664 -2.29723e-14 0)
(664 -6.46921e-14 0)
(664 -2.06544e-14 0)
(664 -1.5524e-14 0)
(664 -3.52472e-14 0)
(664 -4.39655e-14 0)
(664 -8.02579e-14 0)
(664 -1.87554e-13 0)
(664 -3.83962e-13 0)
(664 -6.69853e-13 0)
(664 -9.15103e-13 0)
(664 -9.58225e-13 0)
(664 -8.98321e-13 0)
(664 -7.9015e-13 0)
(664 -7.27953e-13 0)
(664 -7.16482e-13 0)
(664 -7.80014e-13 0)
(664 -8.08002e-13 0)
(664 -7.9267e-13 0)
(664 -8.47778e-13 0)
(664 -9.22982e-13 0)
(664 -9.43508e-13 0)
(664 -9.53036e-13 0)
(664 -9.17318e-13 0)
(664 -8.0653e-13 0)
(664 -6.33953e-13 0)
(664 -5.17999e-13 0)
(664 -4.95858e-13 0)
(664 -4.56435e-13 0)
(664 -3.76641e-13 0)
(664 -3.51245e-13 0)
(664 -3.72282e-13 0)
(664 -3.13491e-13 0)
(664 -1.12578e-13 0)
(664 1.68469e-13 0)
(664 4.20868e-13 0)
(664 6.47669e-13 0)
(664 7.96771e-13 0)
(664 7.07828e-13 0)
(664 3.7042e-13 0)
(664 6.83538e-14 0)
(664 -1.11609e-13 0)
(664 -1.85734e-13 0)
(664 -1.99362e-13 0)
(664 -5.30319e-14 0)
(664 1.91674e-13 0)
(664 3.87754e-13 0)
(664 4.27631e-13 0)
(664 3.77946e-13 0)
(664 2.60322e-13 0)
(664 1.27787e-13 0)
(664 3.3876e-15 0)
(664 -1.61828e-13 0)
(664 -3.23339e-13 0)
(664 -4.12818e-13 0)
(664 -4.54923e-13 0)
(664 -6.61466e-13 0)
(664 -9.22142e-13 0)
(664 -1.1242e-12 0)
(664 -1.24066e-12 0)
(664 -1.23641e-12 0)
(664 -1.13789e-12 0)
(664 -1.00158e-12 0)
(664 -8.19289e-13 0)
(664 -6.44739e-13 0)
(664 -4.95412e-13 0)
(664 -3.32924e-13 0)
(664 -1.54364e-13 0)
(664 -9.47109e-14 0)
(664 -1.1151e-13 0)
(664 -1.70093e-13 0)
(664 -2.58105e-13 0)
(664 -3.17972e-13 0)
(664 -3.62522e-13 0)
(664 -3.77659e-13 0)
(664 -3.92569e-13 0)
(664 -3.47298e-13 0)
(664 -2.75143e-13 0)
(664 -1.71458e-13 0)
(664 -7.67811e-14 0)
(664 -9.62211e-15 0)
(664 7.32744e-14 0)
(664 1.12338e-13 0)
(664 4.79447e-14 0)
(664 -8.96096e-14 0)
(664 -2.31779e-13 0)
(664 -2.8039e-13 0)
(664 -2.35375e-13 0)
(664 -2.98835e-13 0)
(664 -4.65273e-13 0)
(664 -5.24254e-13 0)
(664 -4.31632e-13 0)
(664 -3.49626e-13 0)
(664 -3.09036e-13 0)
(664 -3.66714e-13 0)
(664 -5.24182e-13 0)
(664 -6.73388e-13 0)
(664 -6.71761e-13 0)
(664 -5.99071e-13 0)
(664 -5.36941e-13 0)
(664 -5.03687e-13 0)
(664 -3.75903e-13 0)
(664 -1.32842e-13 0)
(664 2.26531e-14 0)
(664 -2.48146e-14 0)
(664 -1.24911e-13 0)
(664 -1.79561e-13 0)
(664 -1.71163e-13 0)
(664 -1.81167e-13 0)
(664 -1.9259e-13 0)
(664 -2.08714e-13 0)
(664 -2.33557e-13 0)
(664 -2.47429e-13 0)
(664 -2.51591e-13 0)
(664 -2.47788e-13 0)
(664 -1.91451e-13 0)
(664 -4.84268e-14 0)
(664 1.61111e-13 0)
(664 3.18245e-13 0)
(664 3.57114e-13 0)
(664 3.62473e-13 0)
(664 4.17233e-13 0)
(664 4.45819e-13 0)
(664 4.81069e-13 0)
(664 4.53665e-13 0)
(664 4.12453e-13 0)
(664 3.92609e-13 0)
(664 3.70371e-13 0)
(664 2.78528e-13 0)
(664 2.10316e-13 0)
(664 2.27817e-13 0)
(664 3.67378e-13 0)
(664 5.92162e-13 0)
(664 7.45769e-13 0)
(664 7.65096e-13 0)
(664 5.8573e-13 0)
(664 3.56375e-13 0)
(664 2.24459e-13 0)
(664 2.32204e-13 0)
(664 2.78537e-13 0)
(664 2.10172e-13 0)
(664 6.04583e-14 0)
(664 -1.48761e-14 0)
(664 -4.72767e-14 0)
(664 -8.02755e-14 0)
(664 -1.10281e-13 0)
(664 -1.41778e-13 0)
(664 -1.49611e-13 0)
(664 -9.31059e-14 0)
(664 -1.33355e-13 0)
(664 -1.95692e-13 0)
(664 -1.66247e-13 0)
(664 -8.34657e-14 0)
(664 -4.02355e-14 0)
(664 -2.92521e-14 0)
(664 5.72015e-14 0)
(664 1.17057e-13 0)
(664 9.91228e-14 0)
(664 3.25603e-14 0)
(664 5.60921e-14 0)
(664 1.30818e-13 0)
(664 1.1111e-13 0)
(664 -5.14895e-14 0)
(664 -1.7855e-13 0)
(664 -1.66984e-13 0)
(664 -1.00621e-13 0)
(664 -2.66218e-14 0)
(664 4.9141e-14 0)
(664 1.21072e-13 0)
(664 2.3127e-13 0)
(664 3.4713e-13 0)
(664 4.51349e-13 0)
(664 4.31938e-13 0)
(664 2.79112e-13 0)
(664 9.27117e-14 0)
(664 -1.46759e-14 0)
(664 -2.26962e-14 0)
(664 1.76024e-16 0)
(664 4.62751e-14 0)
(664 9.61903e-14 0)
(664 6.46289e-14 0)
(664 3.01219e-14 0)
(664 1.92944e-16 0)
(664 -9.3829e-14 0)
(664 -1.86712e-13 0)
(664 -1.8897e-13 0)
(664 -1.04428e-13 0)
(664 -2.41391e-15 0)
(664 1.03809e-13 0)
(664 1.85269e-13 0)
(664 2.29278e-13 0)
(664 2.51025e-13 0)
(664 2.86383e-13 0)
(664 2.91176e-13 0)
(664 2.31376e-13 0)
(664 1.72642e-13 0)
(664 5.08808e-14 0)
(664 -1.43809e-13 0)
(664 -3.28356e-13 0)
(664 -5.11148e-13 0)
(664 -5.4784e-13 0)
(664 -4.97747e-13 0)
(664 -4.23554e-13 0)
(664 -2.64212e-13 0)
(664 -1.95545e-13 0)
(664 -1.69274e-13 0)
(664 -7.01421e-14 0)
(664 4.51566e-14 0)
(664 1.75063e-13 0)
(664 3.2753e-13 0)
(664 4.51737e-13 0)
(664 5.00482e-13 0)
(664 5.00626e-13 0)
(664 4.94495e-13 0)
(664 5.31384e-13 0)
(664 6.3289e-13 0)
(664 6.6342e-13 0)
(664 5.34034e-13 0)
(664 3.72874e-13 0)
(664 2.45944e-13 0)
(664 1.27038e-13 0)
(664 6.36903e-14 0)
(664 7.34833e-14 0)
(664 1.75399e-13 0)
(664 2.96561e-13 0)
(664 3.73841e-13 0)
(664 4.55544e-13 0)
(664 5.43374e-13 0)
(664 4.61496e-13 0)
(664 2.68183e-13 0)
(664 1.96124e-13 0)
(664 2.04825e-13 0)
(664 2.55306e-13 0)
(664 3.41558e-13 0)
(664 4.34455e-13 0)
(664 5.12518e-13 0)
(664 4.66434e-13 0)
(664 3.54952e-13 0)
(664 2.67777e-13 0)
(664 2.95048e-13 0)
(664 5.80738e-13 0)
(664 1.29556e-12 0)
(664 2.67204e-12 0)
(664 5.28071e-12 0)
(664 1.02968e-11 0)
(664 1.98279e-11 0)
(664 3.80322e-11 0)
(664 7.27125e-11 0)
(664 1.38543e-10 0)
(664 2.63142e-10 0)
(664 4.97593e-10 0)
(664 9.37603e-10 0)
(664 1.75945e-09 0)
(664 3.28936e-09 0)
(664 6.12536e-09 0)
(664 1.13678e-08 0)
(664 2.10131e-08 0)
(664 3.87093e-08 0)
(664 7.10606e-08 0)
(664 1.30012e-07 0)
(664 2.36993e-07 0)
(664 4.30702e-07 0)
(664 7.80253e-07 0)
(664 1.40892e-06 0)
(664 2.53606e-06 0)
(664 4.55292e-06 0)
(664 8.14955e-06 0)
(664 1.45454e-05 0)
(664 2.5894e-05 0)
(664 4.599e-05 0)
(664 8.14689e-05 0)
(663.999 0.000143983 0)
(663.999 0.000253954 0)
(663.998 0.000447027 0)
(663.996 0.000785266 0)
(663.993 0.00137709 0)
(663.988 0.00241127 0)
(663.98 0.00421579 0)
(663.966 0.00736043 0)
(663.943 0.0128366 0)
(663.903 0.0223646 0)
(663.837 0.03893 0)
(663.727 0.0677143 0)
(663.544 0.117719 0)
(663.24 0.204556 0)
(662.735 0.355352 0)
(661.903 0.617149 0)
(660.534 1.07186 0)
(658.295 1.86098 0)
(654.646 3.23195 0)
(648.773 5.60375 0)
(639.395 9.71392 0)
(625.445 16.6883 0)
(664 -1.75952e-14 0)
(664 -3.36495e-14 0)
(664 -5.87062e-14 0)
(664 -6.27438e-14 0)
(664 -5.59664e-14 0)
(664 -2.84686e-14 0)
(664 2.56866e-14 0)
(664 9.75061e-14 0)
(664 1.15079e-13 0)
(664 1.00622e-13 0)
(664 1.38652e-13 0)
(664 2.03865e-13 0)
(664 2.69964e-13 0)
(664 2.79417e-13 0)
(664 2.54504e-13 0)
(664 2.21588e-13 0)
(664 1.44529e-13 0)
(664 4.25134e-14 0)
(664 -6.1422e-14 0)
(664 -1.52907e-13 0)
(664 -3.15248e-13 0)
(664 -4.97492e-13 0)
(664 -6.42448e-13 0)
(664 -7.11804e-13 0)
(664 -7.06803e-13 0)
(664 -6.47026e-13 0)
(664 -6.03734e-13 0)
(664 -6.16124e-13 0)
(664 -6.17082e-13 0)
(664 -6.10743e-13 0)
(664 -6.38463e-13 0)
(664 -7.2257e-13 0)
(664 -8.51156e-13 0)
(664 -8.73047e-13 0)
(664 -8.48235e-13 0)
(664 -7.8722e-13 0)
(664 -7.10591e-13 0)
(664 -6.09143e-13 0)
(664 -4.9034e-13 0)
(664 -4.41662e-13 0)
(664 -4.16514e-13 0)
(664 -3.55679e-13 0)
(664 -3.17671e-13 0)
(664 -3.42099e-13 0)
(664 -3.2054e-13 0)
(664 -2.47241e-13 0)
(664 -1.38295e-13 0)
(664 -4.16934e-14 0)
(664 -1.55702e-14 0)
(664 -1.04752e-13 0)
(664 -2.69753e-13 0)
(664 -3.86128e-13 0)
(664 -3.57618e-13 0)
(664 -1.77343e-13 0)
(664 -3.24401e-14 0)
(664 -1.26028e-15 0)
(664 1.0101e-13 0)
(664 2.09786e-13 0)
(664 3.3124e-13 0)
(664 4.91962e-13 0)
(664 6.63975e-13 0)
(664 7.97386e-13 0)
(664 7.89649e-13 0)
(664 6.85388e-13 0)
(664 4.80551e-13 0)
(664 2.16406e-13 0)
(664 1.57166e-14 0)
(664 -1.53222e-13 0)
(664 -3.72807e-13 0)
(664 -6.49291e-13 0)
(664 -8.35403e-13 0)
(664 -8.17498e-13 0)
(664 -7.15637e-13 0)
(664 -6.727e-13 0)
(664 -5.97498e-13 0)
(664 -5.17205e-13 0)
(664 -4.8535e-13 0)
(664 -4.32109e-13 0)
(664 -3.24143e-13 0)
(664 -2.18093e-13 0)
(664 -1.30046e-13 0)
(664 -1.3483e-13 0)
(664 -1.39154e-13 0)
(664 -9.43609e-14 0)
(664 -4.26927e-14 0)
(664 8.53365e-14 0)
(664 2.16744e-13 0)
(664 3.00969e-13 0)
(664 2.63378e-13 0)
(664 2.09703e-13 0)
(664 1.63061e-13 0)
(664 1.47913e-13 0)
(664 8.85602e-14 0)
(664 5.03205e-14 0)
(664 3.65564e-15 0)
(664 -1.65273e-13 0)
(664 -3.99311e-13 0)
(664 -6.04672e-13 0)
(664 -7.61138e-13 0)
(664 -8.4826e-13 0)
(664 -8.5054e-13 0)
(664 -8.72436e-13 0)
(664 -9.61495e-13 0)
(664 -1.06166e-12 0)
(664 -1.08877e-12 0)
(664 -1.01257e-12 0)
(664 -9.46842e-13 0)
(664 -8.42402e-13 0)
(664 -7.5486e-13 0)
(664 -6.8436e-13 0)
(664 -5.96889e-13 0)
(664 -4.49259e-13 0)
(664 -2.33532e-13 0)
(664 -4.78188e-14 0)
(664 -7.92291e-15 0)
(664 8.18105e-14 0)
(664 1.95995e-13 0)
(664 2.19336e-13 0)
(664 1.30903e-13 0)
(664 -2.44684e-14 0)
(664 -1.62112e-13 0)
(664 -2.52314e-13 0)
(664 -3.06529e-13 0)
(664 -3.51338e-13 0)
(664 -3.80151e-13 0)
(664 -3.41187e-13 0)
(664 -2.34014e-13 0)
(664 -9.66102e-14 0)
(664 4.1269e-14 0)
(664 1.89039e-13 0)
(664 2.52878e-13 0)
(664 2.37056e-13 0)
(664 2.25543e-13 0)
(664 2.22221e-13 0)
(664 2.31247e-13 0)
(664 3.07328e-13 0)
(664 3.47568e-13 0)
(664 3.79031e-13 0)
(664 4.34632e-13 0)
(664 4.14456e-13 0)
(664 3.07865e-13 0)
(664 1.39379e-13 0)
(664 5.56365e-14 0)
(664 9.57742e-14 0)
(664 1.63108e-13 0)
(664 1.88603e-13 0)
(664 2.6327e-13 0)
(664 3.3384e-13 0)
(664 3.48055e-13 0)
(664 3.78804e-13 0)
(664 4.71291e-13 0)
(664 5.37684e-13 0)
(664 4.54625e-13 0)
(664 3.98759e-13 0)
(664 3.62473e-13 0)
(664 2.55579e-13 0)
(664 1.7849e-13 0)
(664 1.11775e-13 0)
(664 3.92329e-14 0)
(664 -1.41359e-14 0)
(664 -1.04426e-13 0)
(664 -3.2584e-13 0)
(664 -5.26655e-13 0)
(664 -5.98659e-13 0)
(664 -5.50292e-13 0)
(664 -4.51753e-13 0)
(664 -3.9955e-13 0)
(664 -3.13012e-13 0)
(664 -1.6478e-13 0)
(664 2.10173e-14 0)
(664 1.27627e-13 0)
(664 7.36812e-14 0)
(664 2.33656e-14 0)
(664 7.9054e-15 0)
(664 -1.77498e-14 0)
(664 -5.13124e-14 0)
(664 -6.10344e-14 0)
(664 1.26618e-14 0)
(664 1.23516e-13 0)
(664 2.16855e-13 0)
(664 2.22064e-13 0)
(664 2.14531e-13 0)
(664 2.22963e-13 0)
(664 2.13954e-13 0)
(664 2.52069e-13 0)
(664 3.41525e-13 0)
(664 3.98251e-13 0)
(664 3.74047e-13 0)
(664 2.84742e-13 0)
(664 1.908e-13 0)
(664 1.12068e-13 0)
(664 5.6403e-14 0)
(664 -4.31491e-15 0)
(664 -8.18402e-14 0)
(664 -1.29888e-13 0)
(664 -1.45752e-13 0)
(664 -1.19552e-13 0)
(664 -7.91011e-14 0)
(664 -5.02162e-14 0)
(664 -7.86207e-15 0)
(664 8.81802e-15 0)
(664 -4.69594e-14 0)
(664 -6.66641e-14 0)
(664 1.97957e-14 0)
(664 1.06415e-13 0)
(664 1.11194e-13 0)
(664 1.07604e-13 0)
(664 6.84874e-14 0)
(664 1.90672e-14 0)
(664 -2.56113e-14 0)
(664 -5.42552e-14 0)
(664 -4.31191e-15 0)
(664 1.7862e-14 0)
(664 -9.62535e-14 0)
(664 -2.30218e-13 0)
(664 -3.21427e-13 0)
(664 -3.58503e-13 0)
(664 -3.61361e-13 0)
(664 -3.39391e-13 0)
(664 -1.93746e-13 0)
(664 1.18994e-14 0)
(664 1.03315e-13 0)
(664 2.11752e-13 0)
(664 3.26301e-13 0)
(664 3.43972e-13 0)
(664 2.8067e-13 0)
(664 2.43346e-13 0)
(664 2.7845e-13 0)
(664 2.62164e-13 0)
(664 2.1318e-13 0)
(664 1.48801e-13 0)
(664 9.96789e-14 0)
(664 1.30954e-13 0)
(664 1.87249e-13 0)
(664 2.59855e-13 0)
(664 3.47053e-13 0)
(664 3.75241e-13 0)
(664 2.53747e-13 0)
(664 1.5217e-13 0)
(664 5.88789e-14 0)
(664 -1.68087e-14 0)
(664 -4.87467e-14 0)
(664 -3.31852e-14 0)
(664 8.05221e-15 0)
(664 -2.11155e-14 0)
(664 -5.76771e-14 0)
(664 4.99406e-14 0)
(664 4.9499e-13 0)
(664 1.40504e-12 0)
(664 3.01895e-12 0)
(664 6.09827e-12 0)
(664 1.19624e-11 0)
(664 2.30524e-11 0)
(664 4.40796e-11 0)
(664 8.41549e-11 0)
(664 1.60135e-10 0)
(664 3.03633e-10 0)
(664 5.73133e-10 0)
(664 1.07791e-09 0)
(664 2.01848e-09 0)
(664 3.76549e-09 0)
(664 6.99413e-09 0)
(664 1.29432e-08 0)
(664 2.38544e-08 0)
(664 4.38036e-08 0)
(664 8.01175e-08 0)
(664 1.46022e-07 0)
(664 2.65119e-07 0)
(664 4.79673e-07 0)
(664 8.64676e-07 0)
(664 1.55346e-06 0)
(664 2.78092e-06 0)
(664 4.96185e-06 0)
(664 8.82327e-06 0)
(664 1.56398e-05 0)
(664 2.76313e-05 0)
(664 4.86677e-05 0)
(664 8.54544e-05 0)
(663.999 0.000149603 0)
(663.999 0.000261125 0)
(663.998 0.000454503 0)
(663.997 0.00078886 0)
(663.995 0.00136548 0)
(663.992 0.00235721 0)
(663.986 0.00405879 0)
(663.977 0.00697075 0)
(663.962 0.0119421 0)
(663.936 0.0204085 0)
(663.893 0.0347934 0)
(663.822 0.0591744 0)
(663.704 0.1004 0)
(663.512 0.169933 0)
(663.197 0.286915 0)
(662.683 0.483191 0)
(661.849 0.811512 0)
(660.502 1.35891 0)
(658.337 2.26746 0)
(654.898 3.76817 0)
(649.453 6.22271 0)
(641.388 10.1986 0)
(664 -8.4507e-15 0)
(664 -3.41587e-15 0)
(664 8.19253e-16 0)
(664 -3.23104e-14 0)
(664 -6.45537e-14 0)
(664 -7.56079e-14 0)
(664 -7.16671e-14 0)
(664 -6.51106e-14 0)
(664 -7.46049e-14 0)
(664 -1.22066e-13 0)
(664 -2.34813e-13 0)
(664 -2.89158e-13 0)
(664 -2.92976e-13 0)
(664 -2.61281e-13 0)
(664 -1.48456e-13 0)
(664 -2.13539e-14 0)
(664 1.09344e-13 0)
(664 2.46204e-13 0)
(664 2.71005e-13 0)
(664 2.24195e-13 0)
(664 1.708e-13 0)
(664 8.54267e-14 0)
(664 -2.41844e-14 0)
(664 -1.83343e-13 0)
(664 -3.95229e-13 0)
(664 -5.97394e-13 0)
(664 -5.71038e-13 0)
(664 -3.90069e-13 0)
(664 -1.87863e-13 0)
(664 -5.41716e-14 0)
(664 -2.29591e-14 0)
(664 -1.1777e-13 0)
(664 -3.26213e-13 0)
(664 -5.70279e-13 0)
(664 -7.39909e-13 0)
(664 -8.50117e-13 0)
(664 -9.2946e-13 0)
(664 -9.72235e-13 0)
(664 -1.02637e-12 0)
(664 -1.12947e-12 0)
(664 -1.28778e-12 0)
(664 -1.44149e-12 0)
(664 -1.52257e-12 0)
(664 -1.44985e-12 0)
(664 -1.21468e-12 0)
(664 -8.20373e-13 0)
(664 -3.49048e-13 0)
(664 7.18801e-14 0)
(664 4.23525e-13 0)
(664 6.03747e-13 0)
(664 6.06144e-13 0)
(664 4.05973e-13 0)
(664 1.47673e-13 0)
(664 -8.06159e-14 0)
(664 -2.31625e-13 0)
(664 -2.81106e-13 0)
(664 -2.15559e-13 0)
(664 -1.24709e-13 0)
(664 -3.45729e-14 0)
(664 1.00152e-13 0)
(664 1.15821e-13 0)
(664 2.69792e-14 0)
(664 -1.85224e-14 0)
(664 1.19141e-13 0)
(664 3.22752e-13 0)
(664 4.93882e-13 0)
(664 5.67941e-13 0)
(664 4.81749e-13 0)
(664 3.2399e-13 0)
(664 1.49805e-13 0)
(664 1.08092e-14 0)
(664 -7.4506e-14 0)
(664 -1.35969e-13 0)
(664 -2.47403e-13 0)
(664 -4.54324e-13 0)
(664 -5.85519e-13 0)
(664 -5.73718e-13 0)
(664 -4.95723e-13 0)
(664 -3.55153e-13 0)
(664 -2.91717e-13 0)
(664 -2.84915e-13 0)
(664 -1.84391e-13 0)
(664 -3.4189e-14 0)
(664 2.52336e-15 0)
(664 -9.6763e-14 0)
(664 -3.16091e-13 0)
(664 -4.82986e-13 0)
(664 -5.13461e-13 0)
(664 -4.32527e-13 0)
(664 -3.87451e-13 0)
(664 -4.01909e-13 0)
(664 -4.04777e-13 0)
(664 -3.23724e-13 0)
(664 -2.13581e-13 0)
(664 -2.04157e-13 0)
(664 -2.62936e-13 0)
(664 -2.73922e-13 0)
(664 -3.17206e-13 0)
(664 -4.16054e-13 0)
(664 -4.34042e-13 0)
(664 -4.12986e-13 0)
(664 -2.71755e-13 0)
(664 -6.6247e-14 0)
(664 8.82692e-14 0)
(664 7.85254e-14 0)
(664 1.44228e-14 0)
(664 -6.44821e-14 0)
(664 -8.48043e-14 0)
(664 -1.3343e-13 0)
(664 -1.75953e-13 0)
(664 -1.20548e-13 0)
(664 1.58839e-14 0)
(664 7.9245e-14 0)
(664 6.72174e-15 0)
(664 -1.14331e-13 0)
(664 -1.93495e-13 0)
(664 -2.45352e-13 0)
(664 -2.70802e-13 0)
(664 -2.58533e-13 0)
(664 -2.26186e-13 0)
(664 -2.21419e-13 0)
(664 -2.54709e-13 0)
(664 -2.83101e-13 0)
(664 -4.0704e-13 0)
(664 -6.06623e-13 0)
(664 -6.85709e-13 0)
(664 -5.18946e-13 0)
(664 -1.81513e-13 0)
(664 5.40254e-14 0)
(664 1.50054e-13 0)
(664 1.31245e-13 0)
(664 1.73022e-13 0)
(664 2.1075e-13 0)
(664 2.19655e-13 0)
(664 1.69712e-13 0)
(664 1.34942e-13 0)
(664 1.13879e-13 0)
(664 -5.61207e-14 0)
(664 -3.59374e-13 0)
(664 -5.67323e-13 0)
(664 -6.04693e-13 0)
(664 -6.31162e-13 0)
(664 -5.49903e-13 0)
(664 -3.83921e-13 0)
(664 -2.43817e-13 0)
(664 -1.82671e-13 0)
(664 -1.41121e-13 0)
(664 -8.30874e-14 0)
(664 5.43834e-14 0)
(664 2.4674e-13 0)
(664 4.52429e-13 0)
(664 6.37283e-13 0)
(664 6.86136e-13 0)
(664 5.84709e-13 0)
(664 5.17066e-13 0)
(664 4.75825e-13 0)
(664 3.50602e-13 0)
(664 2.06949e-13 0)
(664 4.01706e-14 0)
(664 -8.02871e-14 0)
(664 -1.18765e-13 0)
(664 -7.65073e-15 0)
(664 6.0219e-15 0)
(664 -2.85494e-14 0)
(664 2.47763e-14 0)
(664 7.45517e-14 0)
(664 5.16927e-14 0)
(664 -2.30603e-14 0)
(664 -9.79214e-14 0)
(664 -1.36383e-13 0)
(664 -1.21437e-13 0)
(664 -1.05757e-13 0)
(664 -8.78052e-14 0)
(664 -4.65134e-14 0)
(664 -1.16223e-14 0)
(664 -1.84229e-14 0)
(664 3.20454e-15 0)
(664 6.1865e-15 0)
(664 -1.05821e-14 0)
(664 -7.52933e-15 0)
(664 -9.6684e-15 0)
(664 -1.93546e-14 0)
(664 1.45861e-14 0)
(664 7.20336e-14 0)
(664 9.75833e-14 0)
(664 1.06006e-13 0)
(664 1.33348e-13 0)
(664 2.00161e-13 0)
(664 2.2871e-13 0)
(664 2.20098e-13 0)
(664 1.89916e-13 0)
(664 1.63621e-13 0)
(664 7.25729e-14 0)
(664 -4.55264e-14 0)
(664 -1.19149e-13 0)
(664 -1.81198e-13 0)
(664 -2.65279e-13 0)
(664 -2.90156e-13 0)
(664 -2.7475e-13 0)
(664 -2.51158e-13 0)
(664 -2.46043e-13 0)
(664 -2.93334e-13 0)
(664 -4.2047e-13 0)
(664 -5.49484e-13 0)
(664 -5.63602e-13 0)
(664 -4.39163e-13 0)
(664 -2.68869e-13 0)
(664 -1.15417e-13 0)
(664 3.88992e-14 0)
(664 1.44953e-13 0)
(664 2.4119e-13 0)
(664 3.57488e-13 0)
(664 3.97489e-13 0)
(664 3.4529e-13 0)
(664 2.81714e-13 0)
(664 2.64322e-13 0)
(664 2.3482e-13 0)
(664 1.52491e-13 0)
(664 9.32659e-14 0)
(664 6.94226e-14 0)
(664 5.5436e-14 0)
(664 -3.17064e-14 0)
(664 -1.93545e-13 0)
(664 -2.86803e-13 0)
(664 -3.04662e-13 0)
(664 -2.70701e-13 0)
(664 -1.9997e-13 0)
(664 -6.45016e-14 0)
(664 1.08557e-13 0)
(664 1.96778e-13 0)
(664 2.5194e-13 0)
(664 2.74445e-13 0)
(664 3.18079e-13 0)
(664 2.79756e-13 0)
(664 9.33006e-14 0)
(664 -1.51488e-14 0)
(664 7.47865e-14 0)
(664 2.10861e-13 0)
(664 3.08071e-13 0)
(664 3.36666e-13 0)
(664 3.16928e-13 0)
(664 2.96254e-13 0)
(664 2.25575e-13 0)
(664 2.67559e-13 0)
(664 4.31555e-13 0)
(664 7.00473e-13 0)
(664 9.61394e-13 0)
(664 1.28374e-12 0)
(664 1.87274e-12 0)
(664 3.05514e-12 0)
(664 5.46929e-12 0)
(664 1.03129e-11 0)
(664 1.98002e-11 0)
(664 3.7994e-11 0)
(664 7.26942e-11 0)
(664 1.38202e-10 0)
(664 2.61674e-10 0)
(664 4.93303e-10 0)
(664 9.26566e-10 0)
(664 1.7324e-09 0)
(664 3.22671e-09 0)
(664 5.98316e-09 0)
(664 1.10524e-08 0)
(664 2.03288e-08 0)
(664 3.72515e-08 0)
(664 6.79768e-08 0)
(664 1.23585e-07 0)
(664 2.23771e-07 0)
(664 4.03691e-07 0)
(664 7.25394e-07 0)
(664 1.29876e-06 0)
(664 2.31638e-06 0)
(664 4.11668e-06 0)
(664 7.28882e-06 0)
(664 1.28603e-05 0)
(664 2.26082e-05 0)
(664 3.9609e-05 0)
(664 6.91491e-05 0)
(664 0.000120317 0)
(663.999 0.000208629 0)
(663.999 0.00036058 0)
(663.998 0.000621124 0)
(663.997 0.00106651 0)
(663.995 0.00182531 0)
(663.992 0.00311417 0)
(663.986 0.0052962 0)
(663.976 0.00897925 0)
(663.961 0.0151758 0)
(663.935 0.0255693 0)
(663.893 0.0429459 0)
(663.823 0.0719064 0)
(663.71 0.120011 0)
(663.525 0.199646 0)
(663.225 0.331005 0)
(662.742 0.546827 0)
(661.964 0.89998 0)
(660.718 1.47465 0)
(658.742 2.40515 0)
(655.602 3.89588 0)
(650.91 6.26955 0)
(664 4.12625e-14 0)
(664 6.47089e-14 0)
(664 4.29501e-14 0)
(664 3.97659e-14 0)
(664 -5.54537e-15 0)
(664 -5.89138e-14 0)
(664 -5.60896e-14 0)
(664 -1.56136e-14 0)
(664 -1.4332e-14 0)
(664 -3.68401e-14 0)
(664 -7.69816e-14 0)
(664 -1.12852e-13 0)
(664 -9.35118e-14 0)
(664 -4.58949e-14 0)
(664 -2.05148e-14 0)
(664 -3.80692e-14 0)
(664 -8.4724e-14 0)
(664 -1.85214e-13 0)
(664 -2.55362e-13 0)
(664 -3.01068e-13 0)
(664 -2.88723e-13 0)
(664 -2.84015e-13 0)
(664 -3.06502e-13 0)
(664 -4.03226e-13 0)
(664 -5.05647e-13 0)
(664 -5.26585e-13 0)
(664 -5.13849e-13 0)
(664 -4.01447e-13 0)
(664 -2.14633e-13 0)
(664 4.15146e-15 0)
(664 2.29949e-13 0)
(664 4.61991e-13 0)
(664 6.13289e-13 0)
(664 6.21434e-13 0)
(664 6.13146e-13 0)
(664 5.48979e-13 0)
(664 3.69294e-13 0)
(664 1.02712e-13 0)
(664 -1.62692e-13 0)
(664 -3.70377e-13 0)
(664 -5.3971e-13 0)
(664 -6.52968e-13 0)
(664 -7.03369e-13 0)
(664 -7.79355e-13 0)
(664 -9.09552e-13 0)
(664 -1.00621e-12 0)
(664 -1.08266e-12 0)
(664 -1.1154e-12 0)
(664 -1.05687e-12 0)
(664 -8.49822e-13 0)
(664 -5.87471e-13 0)
(664 -3.89257e-13 0)
(664 -3.06436e-13 0)
(664 -3.0095e-13 0)
(664 -2.79651e-13 0)
(664 -2.44591e-13 0)
(664 -3.09569e-13 0)
(664 -3.6567e-13 0)
(664 -4.04822e-13 0)
(664 -4.77719e-13 0)
(664 -5.45332e-13 0)
(664 -6.40865e-13 0)
(664 -6.38068e-13 0)
(664 -5.64305e-13 0)
(664 -4.4767e-13 0)
(664 -2.3128e-13 0)
(664 1.32577e-14 0)
(664 2.58342e-13 0)
(664 5.02329e-13 0)
(664 7.60791e-13 0)
(664 9.70249e-13 0)
(664 9.86887e-13 0)
(664 9.43804e-13 0)
(664 9.88331e-13 0)
(664 1.03918e-12 0)
(664 1.02658e-12 0)
(664 1.04682e-12 0)
(664 1.01273e-12 0)
(664 7.7591e-13 0)
(664 5.20701e-13 0)
(664 3.7518e-13 0)
(664 3.04076e-13 0)
(664 2.98244e-13 0)
(664 3.33116e-13 0)
(664 2.35738e-13 0)
(664 4.5251e-14 0)
(664 -6.57122e-14 0)
(664 -1.14514e-13 0)
(664 -1.16384e-13 0)
(664 -1.01091e-13 0)
(664 -1.53645e-13 0)
(664 -3.18986e-13 0)
(664 -4.99919e-13 0)
(664 -6.00733e-13 0)
(664 -6.04376e-13 0)
(664 -4.67035e-13 0)
(664 -2.19221e-13 0)
(664 -3.08517e-14 0)
(664 -2.54568e-14 0)
(664 -1.35388e-13 0)
(664 -2.49087e-13 0)
(664 -3.48973e-13 0)
(664 -4.66538e-13 0)
(664 -5.53224e-13 0)
(664 -5.94605e-13 0)
(664 -5.97651e-13 0)
(664 -5.6762e-13 0)
(664 -5.80459e-13 0)
(664 -5.81369e-13 0)
(664 -5.82123e-13 0)
(664 -5.32517e-13 0)
(664 -5.30041e-13 0)
(664 -6.60708e-13 0)
(664 -7.61192e-13 0)
(664 -7.02333e-13 0)
(664 -6.40097e-13 0)
(664 -5.84164e-13 0)
(664 -5.51567e-13 0)
(664 -5.53955e-13 0)
(664 -5.5343e-13 0)
(664 -4.85502e-13 0)
(664 -4.24423e-13 0)
(664 -4.67372e-13 0)
(664 -4.92361e-13 0)
(664 -4.08737e-13 0)
(664 -2.7216e-13 0)
(664 -1.59288e-13 0)
(664 -7.95914e-14 0)
(664 -2.26898e-14 0)
(664 2.97921e-14 0)
(664 1.60088e-13 0)
(664 2.66645e-13 0)
(664 2.77254e-13 0)
(664 1.24051e-13 0)
(664 -9.96342e-14 0)
(664 -2.86171e-13 0)
(664 -3.23e-13 0)
(664 -1.51013e-13 0)
(664 7.7885e-14 0)
(664 3.20907e-13 0)
(664 5.26761e-13 0)
(664 6.10188e-13 0)
(664 5.90346e-13 0)
(664 5.57475e-13 0)
(664 4.06946e-13 0)
(664 1.93957e-13 0)
(664 -4.62316e-14 0)
(664 -2.27668e-13 0)
(664 -2.82107e-13 0)
(664 -2.78674e-13 0)
(664 -2.8142e-13 0)
(664 -3.21396e-13 0)
(664 -3.27438e-13 0)
(664 -3.17662e-13 0)
(664 -2.85545e-13 0)
(664 -1.89849e-13 0)
(664 -1.13175e-13 0)
(664 -5.32509e-14 0)
(664 8.06391e-15 0)
(664 -1.27082e-14 0)
(664 -4.71111e-14 0)
(664 -3.38391e-14 0)
(664 -5.25026e-14 0)
(664 -7.9595e-14 0)
(664 -1.52892e-14 0)
(664 1.58347e-13 0)
(664 2.78349e-13 0)
(664 2.17641e-13 0)
(664 1.27699e-13 0)
(664 1.07332e-13 0)
(664 1.80142e-13 0)
(664 3.29185e-13 0)
(664 3.44055e-13 0)
(664 2.54174e-13 0)
(664 1.67909e-13 0)
(664 1.37149e-13 0)
(664 1.33024e-13 0)
(664 9.68763e-14 0)
(664 -3.79302e-14 0)
(664 -2.15517e-13 0)
(664 -2.60749e-13 0)
(664 -2.16074e-13 0)
(664 -1.58421e-13 0)
(664 -1.2714e-13 0)
(664 -1.26282e-13 0)
(664 -1.89988e-13 0)
(664 -2.20385e-13 0)
(664 -1.84725e-13 0)
(664 -1.68907e-13 0)
(664 -1.55441e-13 0)
(664 -1.13289e-13 0)
(664 -8.42824e-14 0)
(664 -4.00481e-14 0)
(664 8.26205e-14 0)
(664 2.16437e-13 0)
(664 3.46152e-13 0)
(664 3.78419e-13 0)
(664 3.24688e-13 0)
(664 2.45258e-13 0)
(664 1.71821e-13 0)
(664 1.08853e-13 0)
(664 6.07607e-14 0)
(664 8.04944e-15 0)
(664 -1.24723e-13 0)
(664 -2.30576e-13 0)
(664 -2.29931e-13 0)
(664 -9.35133e-14 0)
(664 5.04479e-14 0)
(664 1.5087e-13 0)
(664 1.92103e-13 0)
(664 1.74615e-13 0)
(664 1.66858e-13 0)
(664 1.71435e-13 0)
(664 1.51375e-13 0)
(664 1.20625e-13 0)
(664 5.39662e-14 0)
(664 7.68646e-15 0)
(664 5.15581e-14 0)
(664 1.28181e-13 0)
(664 1.88663e-13 0)