/*--------------------------------*- C++ -*----------------------------------*\
| =========                 |                                                 |
| \\      /  F ield         | OpenFOAM: The Open Source CFD Toolbox           |
|  \\    /   O peration     | Version:  2412                                  |
|   \\  /    A nd           | Website:  www.openfoam.com                      |
|    \\/     M anipulation  |                                                 |
\*---------------------------------------------------------------------------*/
FoamFile
{
    version     2.0;
    format      ascii;
    arch        "LSB;label=32;scalar=64";
    class       volVectorField;
    location    "0.0005";
    object      U;
}
// * * * * * * * * * * * * * * * * * * * * * * * * * * * * * * * * * * * * * //

dimensions      [0 1 -1 0 0 0 0];

internalField   nonuniform List<vector> 
180000
(
(664 9.97481e-15 0)
(664 1.32343e-14 0)
(664 3.60495e-14 0)
(664 2.83536e-14 0)
(664 1.49246e-14 0)
(664 8.01699e-15 0)
(664 -1.00455e-14 0)
(664 -6.98468e-14 0)
(664 -1.44034e-13 0)
(664 -1.88974e-13 0)
(664 -2.14429e-13 0)
(664 -2.32837e-13 0)
(664 -2.21881e-13 0)
(664 -2.04982e-13 0)
(664 -2.15135e-13 0)
(664 -2.2466e-13 0)
(664 -2.27677e-13 0)
(664 -2.25438e-13 0)
(664 -2.15363e-13 0)
(664 -1.94576e-13 0)
(664 -1.60302e-13 0)
(664 -1.30063e-13 0)
(664 -1.12028e-13 0)
(664 -1.03178e-13 0)
(664 -9.22342e-14 0)
(664 -6.51406e-14 0)
(664 -2.74238e-14 0)
(664 -2.91888e-14 0)
(664 -3.35794e-14 0)
(664 -2.36016e-14 0)
(664 -3.24621e-14 0)
(664 -5.56162e-14 0)
(664 -9.1419e-14 0)
(664 -1.40534e-13 0)
(664 -1.6641e-13 0)
(664 -1.95013e-13 0)
(664 -1.84071e-13 0)
(664 -1.7168e-13 0)
(664 -1.78203e-13 0)
(664 -1.79148e-13 0)
(664 -1.52618e-13 0)
(664 -1.22e-13 0)
(664 -1.2348e-13 0)
(664 -1.42656e-13 0)
(664 -1.36059e-13 0)
(664 -1.4947e-13 0)
(664 -1.56135e-13 0)
(664 -1.30055e-13 0)
(664 -8.75023e-14 0)
(664 -4.27227e-14 0)
(664 -2.36865e-14 0)
(664 -3.48679e-15 0)
(664 2.77739e-14 0)
(664 3.78335e-14 0)
(664 7.21931e-14 0)
(664 8.41847e-14 0)
(664 6.95061e-14 0)
(664 5.27506e-14 0)
(664 3.69613e-14 0)
(664 7.80273e-15 0)
(664 -2.30041e-14 0)
(664 -2.85153e-14 0)
(664 -2.02859e-14 0)
(664 -1.4468e-14 0)
(664 -4.21459e-14 0)
(664 -1.03436e-13 0)
(664 -1.57921e-13 0)
(664 -2.06658e-13 0)
(664 -2.7023e-13 0)
(664 -3.38589e-13 0)
(664 -3.93523e-13 0)
(664 -4.50083e-13 0)
(664 -4.81774e-13 0)
(664 -4.99218e-13 0)
(664 -5.30913e-13 0)
(664 -5.57672e-13 0)
(664 -5.52294e-13 0)
(664 -5.42344e-13 0)
(664 -5.22347e-13 0)
(664 -5.07178e-13 0)
(664 -5.02216e-13 0)
(664 -4.84272e-13 0)
(664 -4.94105e-13 0)
(664 -5.37579e-13 0)
(664 -5.64225e-13 0)
(664 -5.62029e-13 0)
(664 -5.62264e-13 0)
(664 -5.90089e-13 0)
(664 -6.16087e-13 0)
(664 -6.25443e-13 0)
(664 -6.21941e-13 0)
(664 -6.35327e-13 0)
(664 -6.52261e-13 0)
(664 -6.70619e-13 0)
(664 -6.87866e-13 0)
(664 -6.82266e-13 0)
(664 -6.49731e-13 0)
(664 -6.24769e-13 0)
(664 -6.27207e-13 0)
(664 -6.26823e-13 0)
(664 -6.15565e-13 0)
(664 -6.10379e-13 0)
(664 -6.06666e-13 0)
(664 -6.00834e-13 0)
(664 -6.02682e-13 0)
(664 -6.19002e-13 0)
(664 -6.42435e-13 0)
(664 -6.50978e-13 0)
(664 -6.59718e-13 0)
(664 -6.41799e-13 0)
(664 -6.01685e-13 0)
(664 -5.59926e-13 0)
(664 -5.3062e-13 0)
(664 -5.24108e-13 0)
(664 -5.21275e-13 0)
(664 -5.23389e-13 0)
(664 -5.18898e-13 0)
(664 -5.09808e-13 0)
(664 -4.8367e-13 0)
(664 -4.721e-13 0)
(664 -4.80843e-13 0)
(664 -5.00988e-13 0)
(664 -5.36554e-13 0)
(664 -5.71152e-13 0)
(664 -6.09094e-13 0)
(664 -6.21643e-13 0)
(664 -6.03503e-13 0)
(664 -5.98225e-13 0)
(664 -6.126e-13 0)
(664 -6.1939e-13 0)
(664 -6.02337e-13 0)
(664 -6.05464e-13 0)
(664 -6.04612e-13 0)
(664 -5.9267e-13 0)
(664 -5.83762e-13 0)
(664 -5.92021e-13 0)
(664 -5.93036e-13 0)
(664 -6.18663e-13 0)
(664 -6.40735e-13 0)
(664 -6.5809e-13 0)
(664 -6.7609e-13 0)
(664 -6.743e-13 0)
(664 -6.7192e-13 0)
(664 -6.73458e-13 0)
(664 -6.83147e-13 0)
(664 -7.15699e-13 0)
(664 -7.55383e-13 0)
(664 -7.64242e-13 0)
(664 -7.52261e-13 0)
(664 -7.46663e-13 0)
(664 -7.52821e-13 0)
(664 -7.45714e-13 0)
(664 -7.61901e-13 0)
(664 -7.69885e-13 0)
(664 -7.42163e-13 0)
(664 -7.22392e-13 0)
(664 -7.26215e-13 0)
(664 -7.42128e-13 0)
(664 -7.50412e-13 0)
(664 -7.66905e-13 0)
(664 -7.80206e-13 0)
(664 -7.70532e-13 0)
(664 -7.59276e-13 0)
(664 -7.23767e-13 0)
(664 -6.80077e-13 0)
(664 -6.58733e-13 0)
(664 -6.36254e-13 0)
(664 -6.01419e-13 0)
(664 -5.96382e-13 0)
(664 -6.03862e-13 0)
(664 -6.12583e-13 0)
(664 -6.09212e-13 0)
(664 -6.29208e-13 0)
(664 -6.63118e-13 0)
(664 -6.75276e-13 0)
(664 -6.56238e-13 0)
(664 -6.54984e-13 0)
(664 -6.69835e-13 0)
(664 -6.94013e-13 0)
(664 -7.15162e-13 0)
(664 -7.08611e-13 0)
(664 -6.69756e-13 0)
(664 -6.56456e-13 0)
(664 -6.47875e-13 0)
(664 -5.99114e-13 0)
(664 -5.47527e-13 0)
(664 -5.17656e-13 0)
(664 -5.00193e-13 0)
(664 -4.73789e-13 0)
(664 -4.42757e-13 0)
(664 -4.08327e-13 0)
(664 -3.99982e-13 0)
(664 -3.97044e-13 0)
(664 -4.0292e-13 0)
(664 -4.07945e-13 0)
(664 -4.10475e-13 0)
(664 -4.02696e-13 0)
(664 -3.86093e-13 0)
(664 -3.8471e-13 0)
(664 -3.90737e-13 0)
(664 -3.75816e-13 0)
(664 -3.46825e-13 0)
(664 -3.31e-13 0)
(664 -3.36361e-13 0)
(664 -3.40197e-13 0)
(664 -3.23198e-13 0)
(664 -3.10051e-13 0)
(664 -2.99942e-13 0)
(664 -2.73373e-13 0)
(664 -2.32683e-13 0)
(664 -2.14413e-13 0)
(664 -1.82126e-13 0)
(664 -1.48558e-13 0)
(664 -1.39143e-13 0)
(664 -1.3881e-13 0)
(664 -1.46527e-13 0)
(664 -1.4568e-13 0)
(664 -1.80769e-13 0)
(664 -2.49725e-13 0)
(664 -3.03535e-13 0)
(664 -3.69285e-13 0)
(664 -4.57833e-13 0)
(664 -5.22546e-13 0)
(664 -5.73359e-13 0)
(664 -5.91259e-13 0)
(664 -5.91332e-13 0)
(664 -6.06798e-13 0)
(664 -6.30161e-13 0)
(664 -6.19882e-13 0)
(664 -6.13681e-13 0)
(664 -5.94663e-13 0)
(664 -5.39311e-13 0)
(664 -5.02201e-13 0)
(664 -4.94354e-13 0)
(664 -4.70449e-13 0)
(664 -4.22958e-13 0)
(664 -3.89625e-13 0)
(664 -3.6074e-13 0)
(664 -3.23585e-13 0)
(664 -2.86045e-13 0)
(664 -2.44466e-13 0)
(664 -2.15261e-13 0)
(664 -1.99533e-13 0)
(664 -1.42967e-13 0)
(664 -3.78351e-14 0)
(664 1.35232e-13 0)
(664 4.57555e-13 0)
(664 1.03217e-12 0)
(664 2.02206e-12 0)
(664 3.71782e-12 0)
(664 6.66017e-12 0)
(664 1.18102e-11 0)
(664 2.08345e-11 0)
(664 3.65979e-11 0)
(664 6.41283e-11 0)
(664 1.12205e-10 0)
(664 1.96267e-10 0)
(664 3.43221e-10 0)
(664 6.00019e-10 0)
(664 1.04881e-09 0)
(664 1.83331e-09 0)
(664 3.20474e-09 0)
(664 5.6031e-09 0)
(664 9.79835e-09 0)
(664 1.71407e-08 0)
(664 2.99963e-08 0)
(664 5.25198e-08 0)
(664 9.20036e-08 0)
(664 1.61275e-07 0)
(664 2.82891e-07 0)
(664 4.96606e-07 0)
(664 8.7248e-07 0)
(664 1.53426e-06 0)
(664 2.70055e-06 0)
(664 4.75842e-06 0)
(664 8.39337e-06 0)
(664 1.48225e-05 0)
(663.999 2.62072e-05 0)
(663.999 4.63963e-05 0)
(663.998 8.22452e-05 0)
(663.997 0.000145998 0)
(663.995 0.000259533 0)
(663.992 0.00046205 0)
(663.986 0.000823829 0)
(663.977 0.00147122 0)
(663.96 0.00263147 0)
(663.931 0.0047145 0)
(663.882 0.0084602 0)
(663.798 0.0152089 0)
(663.653 0.0273864 0)
(663.404 0.0494014 0)
(662.976 0.0892434 0)
(662.237 0.161544 0)
(660.963 0.292917 0)
(658.767 0.532583 0)
(654.989 0.968276 0)
(648.508 1.76391 0)
(637.29 3.20954 0)
(618.196 5.88831 0)
(587.396 10.7118 0)
(664 -2.21775e-14 0)
(664 -3.43754e-14 0)
(664 -3.26504e-14 0)
(664 -6.18196e-14 0)
(664 -9.02718e-14 0)
(664 -1.06506e-13 0)
(664 -1.18415e-13 0)
(664 -1.49334e-13 0)
(664 -1.90779e-13 0)
(664 -2.16779e-13 0)
(664 -2.32899e-13 0)
(664 -2.39232e-13 0)
(664 -2.28254e-13 0)
(664 -2.31935e-13 0)
(664 -2.29335e-13 0)
(664 -2.4024e-13 0)
(664 -2.62512e-13 0)
(664 -2.82351e-13 0)
(664 -2.87556e-13 0)
(664 -2.88071e-13 0)
(664 -2.8644e-13 0)
(664 -2.9319e-13 0)
(664 -2.98176e-13 0)
(664 -2.81493e-13 0)
(664 -2.75901e-13 0)
(664 -2.755e-13 0)
(664 -2.61122e-13 0)
(664 -2.52399e-13 0)
(664 -2.44353e-13 0)
(664 -2.32432e-13 0)
(664 -2.54674e-13 0)
(664 -2.80605e-13 0)
(664 -2.79615e-13 0)
(664 -2.64299e-13 0)
(664 -2.75594e-13 0)
(664 -2.51773e-13 0)
(664 -2.32182e-13 0)
(664 -2.25937e-13 0)
(664 -2.15127e-13 0)
(664 -2.25496e-13 0)
(664 -2.19937e-13 0)
(664 -2.22423e-13 0)
(664 -2.5427e-13 0)
(664 -3.01801e-13 0)
(664 -3.46715e-13 0)
(664 -3.86829e-13 0)
(664 -4.18295e-13 0)
(664 -4.29464e-13 0)
(664 -4.25315e-13 0)
(664 -4.2858e-13 0)
(664 -4.44188e-13 0)
(664 -4.39881e-13 0)
(664 -4.27429e-13 0)
(664 -3.99696e-13 0)
(664 -3.70393e-13 0)
(664 -3.34332e-13 0)
(664 -3.10387e-13 0)
(664 -3.10663e-13 0)
(664 -3.26749e-13 0)
(664 -3.78322e-13 0)
(664 -4.34482e-13 0)
(664 -4.94143e-13 0)
(664 -5.41549e-13 0)
(664 -5.87983e-13 0)
(664 -6.46805e-13 0)
(664 -7.06767e-13 0)
(664 -7.71308e-13 0)
(664 -8.45767e-13 0)
(664 -8.99439e-13 0)
(664 -9.29449e-13 0)
(664 -9.70045e-13 0)
(664 -9.97472e-13 0)
(664 -1.00221e-12 0)
(664 -9.9516e-13 0)
(664 -9.63903e-13 0)
(664 -9.41025e-13 0)
(664 -9.15343e-13 0)
(664 -8.57779e-13 0)
(664 -7.85964e-13 0)
(664 -7.41357e-13 0)
(664 -7.08771e-13 0)
(664 -6.84418e-13 0)
(664 -6.63978e-13 0)
(664 -6.69064e-13 0)
(664 -6.85237e-13 0)
(664 -6.92384e-13 0)
(664 -6.97338e-13 0)
(664 -7.09764e-13 0)
(664 -7.3477e-13 0)
(664 -7.63358e-13 0)
(664 -7.89971e-13 0)
(664 -8.19102e-13 0)
(664 -8.59106e-13 0)
(664 -8.78507e-13 0)
(664 -8.96163e-13 0)
(664 -8.79733e-13 0)
(664 -8.37976e-13 0)
(664 -8.03279e-13 0)
(664 -8.15327e-13 0)
(664 -8.22917e-13 0)
(664 -8.11509e-13 0)
(664 -7.87418e-13 0)
(664 -7.59403e-13 0)
(664 -7.35607e-13 0)
(664 -7.18015e-13 0)
(664 -6.89079e-13 0)
(664 -6.6977e-13 0)
(664 -6.68339e-13 0)
(664 -6.32996e-13 0)
(664 -5.95518e-13 0)
(664 -5.69929e-13 0)
(664 -5.46986e-13 0)
(664 -5.44827e-13 0)
(664 -5.5897e-13 0)
(664 -5.67484e-13 0)
(664 -5.53663e-13 0)
(664 -5.33821e-13 0)
(664 -5.21766e-13 0)
(664 -5.06471e-13 0)
(664 -4.97979e-13 0)
(664 -5.07303e-13 0)
(664 -5.44022e-13 0)
(664 -5.59289e-13 0)
(664 -5.79025e-13 0)
(664 -6.277e-13 0)
(664 -6.73192e-13 0)
(664 -6.88044e-13 0)
(664 -7.07707e-13 0)
(664 -7.41354e-13 0)
(664 -7.50904e-13 0)
(664 -7.5804e-13 0)
(664 -7.70929e-13 0)
(664 -7.68372e-13 0)
(664 -7.59918e-13 0)
(664 -7.62563e-13 0)
(664 -7.49786e-13 0)
(664 -7.28497e-13 0)
(664 -7.08599e-13 0)
(664 -7.01328e-13 0)
(664 -6.92071e-13 0)
(664 -6.74751e-13 0)
(664 -6.59578e-13 0)
(664 -6.43158e-13 0)
(664 -6.11231e-13 0)
(664 -5.82502e-13 0)
(664 -5.5777e-13 0)
(664 -5.40161e-13 0)
(664 -5.46622e-13 0)
(664 -5.51126e-13 0)
(664 -5.54478e-13 0)
(664 -5.57478e-13 0)
(664 -5.76442e-13 0)
(664 -5.94916e-13 0)
(664 -6.01793e-13 0)
(664 -6.29611e-13 0)
(664 -6.55221e-13 0)
(664 -6.81606e-13 0)
(664 -7.23996e-13 0)
(664 -7.64839e-13 0)
(664 -7.87485e-13 0)
(664 -8.04751e-13 0)
(664 -8.07968e-13 0)
(664 -8.17194e-13 0)
(664 -8.37866e-13 0)
(664 -8.70631e-13 0)
(664 -9.01057e-13 0)
(664 -9.02139e-13 0)
(664 -8.77054e-13 0)
(664 -8.42697e-13 0)
(664 -8.10828e-13 0)
(664 -7.95051e-13 0)
(664 -7.71874e-13 0)
(664 -7.29774e-13 0)
(664 -6.83176e-13 0)
(664 -6.17445e-13 0)
(664 -5.61822e-13 0)
(664 -5.17169e-13 0)
(664 -4.81018e-13 0)
(664 -4.71982e-13 0)
(664 -4.67441e-13 0)
(664 -4.22092e-13 0)
(664 -3.75653e-13 0)
(664 -3.76769e-13 0)
(664 -3.70814e-13 0)
(664 -3.5376e-13 0)
(664 -3.49126e-13 0)
(664 -3.53272e-13 0)
(664 -3.7239e-13 0)
(664 -3.72335e-13 0)
(664 -3.47462e-13 0)
(664 -3.1555e-13 0)
(664 -3.10901e-13 0)
(664 -3.06157e-13 0)
(664 -3.00292e-13 0)
(664 -3.07591e-13 0)
(664 -3.24151e-13 0)
(664 -3.37362e-13 0)
(664 -3.44726e-13 0)
(664 -3.6554e-13 0)
(664 -3.71405e-13 0)
(664 -3.604e-13 0)
(664 -3.48137e-13 0)
(664 -3.5714e-13 0)
(664 -3.54366e-13 0)
(664 -3.49503e-13 0)
(664 -3.32217e-13 0)
(664 -3.23915e-13 0)
(664 -3.33756e-13 0)
(664 -3.44172e-13 0)
(664 -3.54349e-13 0)
(664 -3.71179e-13 0)
(664 -4.06454e-13 0)
(664 -4.4544e-13 0)
(664 -4.78843e-13 0)
(664 -5.17165e-13 0)
(664 -5.5026e-13 0)
(664 -5.6756e-13 0)
(664 -5.60021e-13 0)
(664 -5.54329e-13 0)
(664 -5.5192e-13 0)
(664 -5.52708e-13 0)
(664 -5.58032e-13 0)
(664 -5.72326e-13 0)
(664 -5.85149e-13 0)
(664 -5.7642e-13 0)
(664 -5.6941e-13 0)
(664 -5.72499e-13 0)
(664 -5.69866e-13 0)
(664 -5.67678e-13 0)
(664 -5.59146e-13 0)
(664 -5.3357e-13 0)
(664 -4.96995e-13 0)
(664 -4.63187e-13 0)
(664 -4.31416e-13 0)
(664 -4.22728e-13 0)
(664 -4.27628e-13 0)
(664 -4.35242e-13 0)
(664 -4.36034e-13 0)
(664 -4.23868e-13 0)
(664 -4.0784e-13 0)
(664 -4.15265e-13 0)
(664 -4.16713e-13 0)
(664 -3.77713e-13 0)
(664 -2.65694e-13 0)
(664 -2.30035e-14 0)
(664 4.25407e-13 0)
(664 1.26408e-12 0)
(664 2.74831e-12 0)
(664 5.33526e-12 0)
(664 9.91213e-12 0)
(664 1.78905e-11 0)
(664 3.17888e-11 0)
(664 5.60656e-11 0)
(664 9.84508e-11 0)
(664 1.72334e-10 0)
(664 3.01024e-10 0)
(664 5.25299e-10 0)
(664 9.1604e-10 0)
(664 1.59658e-09 0)
(664 2.78139e-09 0)
(664 4.8442e-09 0)
(664 8.43498e-09 0)
(664 1.46863e-08 0)
(664 2.55684e-08 0)
(664 4.45164e-08 0)
(664 7.751e-08 0)
(664 1.34981e-07 0)
(664 2.35104e-07 0)
(664 4.0961e-07 0)
(664 7.13838e-07 0)
(664 1.24451e-06 0)
(664 2.17049e-06 0)
(664 3.78729e-06 0)
(664 6.61148e-06 0)
(664 1.15483e-05 0)
(664 2.01825e-05 0)
(664 3.52953e-05 0)
(664 6.17633e-05 0)
(663.999 0.000108159 0)
(663.999 0.000189539 0)
(663.998 0.000332416 0)
(663.996 0.000583445 0)
(663.993 0.00102493 0)
(663.989 0.00180199 0)
(663.981 0.00317113 0)
(663.968 0.00558548 0)
(663.946 0.00984762 0)
(663.909 0.0173782 0)
(663.846 0.0307 0)
(663.739 0.0542868 0)
(663.56 0.0960981 0)
(663.258 0.170252 0)
(662.75 0.301972 0)
(661.897 0.53611 0)
(660.468 0.953274 0)
(658.089 1.69434 0)
(654.144 3.01186 0)
(647.643 5.34072 0)
(636.957 9.49485 0)
(620.736 16.7193 0)
(664 -8.39745e-15 0)
(664 -3.25161e-14 0)
(664 -5.99633e-14 0)
(664 -7.09074e-14 0)
(664 -9.29891e-14 0)
(664 -1.07112e-13 0)
(664 -1.28357e-13 0)
(664 -1.32741e-13 0)
(664 -1.28478e-13 0)
(664 -1.3588e-13 0)
(664 -1.50315e-13 0)
(664 -1.75616e-13 0)
(664 -2.06822e-13 0)
(664 -2.32676e-13 0)
(664 -2.33639e-13 0)
(664 -2.291e-13 0)
(664 -2.1285e-13 0)
(664 -1.81871e-13 0)
(664 -1.47813e-13 0)
(664 -1.23759e-13 0)
(664 -1.07189e-13 0)
(664 -9.55177e-14 0)
(664 -7.63354e-14 0)
(664 -5.69619e-14 0)
(664 -3.43376e-14 0)
(664 -2.68113e-14 0)
(664 -2.87217e-14 0)
(664 -3.03621e-14 0)
(664 -2.98927e-14 0)
(664 -4.71238e-14 0)
(664 -6.37033e-14 0)
(664 -6.92446e-14 0)
(664 -6.38069e-14 0)
(664 -7.23242e-14 0)
(664 -8.50969e-14 0)
(664 -9.15431e-14 0)
(664 -1.0176e-13 0)
(664 -9.07104e-14 0)
(664 -8.76875e-14 0)
(664 -9.30224e-14 0)
(664 -1.06135e-13 0)
(664 -1.28611e-13 0)
(664 -1.26566e-13 0)
(664 -1.39407e-13 0)
(664 -1.88876e-13 0)
(664 -2.29513e-13 0)
(664 -2.42831e-13 0)
(664 -2.43607e-13 0)
(664 -2.43014e-13 0)
(664 -2.48606e-13 0)
(664 -2.59043e-13 0)
(664 -2.74686e-13 0)
(664 -2.76134e-13 0)
(664 -2.83896e-13 0)
(664 -2.97298e-13 0)
(664 -3.22356e-13 0)
(664 -3.42678e-13 0)
(664 -3.63315e-13 0)
(664 -4.06888e-13 0)
(664 -4.55398e-13 0)
(664 -5.11924e-13 0)
(664 -5.62733e-13 0)
(664 -5.79613e-13 0)
(664 -5.96406e-13 0)
(664 -5.95359e-13 0)
(664 -5.74963e-13 0)
(664 -5.6893e-13 0)
(664 -5.43885e-13 0)
(664 -5.10228e-13 0)
(664 -4.64535e-13 0)
(664 -4.19247e-13 0)
(664 -4.02985e-13 0)
(664 -3.73845e-13 0)
(664 -3.53322e-13 0)
(664 -3.53352e-13 0)
(664 -3.57153e-13 0)
(664 -3.65611e-13 0)
(664 -3.7542e-13 0)
(664 -4.14915e-13 0)
(664 -4.45159e-13 0)
(664 -4.83413e-13 0)
(664 -5.27128e-13 0)
(664 -5.58144e-13 0)
(664 -5.74041e-13 0)
(664 -5.9114e-13 0)
(664 -6.13605e-13 0)
(664 -6.35774e-13 0)
(664 -6.45531e-13 0)
(664 -6.46765e-13 0)
(664 -6.54511e-13 0)
(664 -6.59728e-13 0)
(664 -6.66563e-13 0)
(664 -6.74119e-13 0)
(664 -6.75103e-13 0)
(664 -6.56393e-13 0)
(664 -6.43492e-13 0)
(664 -6.25125e-13 0)
(664 -6.10803e-13 0)
(664 -6.19938e-13 0)
(664 -6.55017e-13 0)
(664 -6.68867e-13 0)
(664 -6.78098e-13 0)
(664 -6.89768e-13 0)
(664 -7.10707e-13 0)
(664 -7.09983e-13 0)
(664 -6.87935e-13 0)
(664 -6.87464e-13 0)
(664 -7.29399e-13 0)
(664 -7.64937e-13 0)
(664 -8.11586e-13 0)
(664 -8.62127e-13 0)
(664 -9.0199e-13 0)
(664 -9.26303e-13 0)
(664 -9.38802e-13 0)
(664 -9.40069e-13 0)
(664 -9.29395e-13 0)
(664 -9.19333e-13 0)
(664 -9.26348e-13 0)
(664 -9.40625e-13 0)
(664 -9.31117e-13 0)
(664 -9.26368e-13 0)
(664 -9.27617e-13 0)
(664 -9.0536e-13 0)
(664 -8.79474e-13 0)
(664 -8.83209e-13 0)
(664 -9.23639e-13 0)
(664 -9.82925e-13 0)
(664 -1.02895e-12 0)
(664 -1.05486e-12 0)
(664 -1.08207e-12 0)
(664 -1.11635e-12 0)
(664 -1.13574e-12 0)
(664 -1.12278e-12 0)
(664 -1.09595e-12 0)
(664 -1.06785e-12 0)
(664 -1.03783e-12 0)
(664 -9.92948e-13 0)
(664 -9.55745e-13 0)
(664 -9.32287e-13 0)
(664 -8.98349e-13 0)
(664 -8.53489e-13 0)
(664 -8.55612e-13 0)
(664 -8.71291e-13 0)
(664 -8.60402e-13 0)
(664 -8.46171e-13 0)
(664 -8.34622e-13 0)
(664 -8.34065e-13 0)
(664 -8.46666e-13 0)
(664 -8.44605e-13 0)
(664 -8.25678e-13 0)
(664 -8.16384e-13 0)
(664 -8.21831e-13 0)
(664 -8.24297e-13 0)
(664 -8.32357e-13 0)
(664 -8.48249e-13 0)
(664 -8.55262e-13 0)
(664 -8.37946e-13 0)
(664 -8.06624e-13 0)
(664 -7.58248e-13 0)
(664 -7.2272e-13 0)
(664 -7.08833e-13 0)
(664 -7.09015e-13 0)
(664 -7.11357e-13 0)
(664 -7.48318e-13 0)
(664 -8.19282e-13 0)
(664 -8.63267e-13 0)
(664 -9.04577e-13 0)
(664 -9.38352e-13 0)
(664 -9.41478e-13 0)
(664 -9.54745e-13 0)
(664 -9.62397e-13 0)
(664 -9.49162e-13 0)
(664 -9.13871e-13 0)
(664 -8.63848e-13 0)
(664 -8.11181e-13 0)
(664 -7.61528e-13 0)
(664 -7.24514e-13 0)
(664 -6.72781e-13 0)
(664 -5.92941e-13 0)
(664 -5.24895e-13 0)
(664 -4.80734e-13 0)
(664 -4.48407e-13 0)
(664 -4.0499e-13 0)
(664 -3.65574e-13 0)
(664 -3.34911e-13 0)
(664 -3.21595e-13 0)
(664 -2.95413e-13 0)
(664 -2.54904e-13 0)
(664 -2.46192e-13 0)
(664 -2.56133e-13 0)
(664 -2.49399e-13 0)
(664 -2.09463e-13 0)
(664 -1.64869e-13 0)
(664 -1.37825e-13 0)
(664 -1.0077e-13 0)
(664 -8.64817e-14 0)
(664 -5.96986e-14 0)
(664 -2.89013e-14 0)
(664 4.44597e-15 0)
(664 4.33685e-14 0)
(664 6.31831e-14 0)
(664 7.31088e-14 0)
(664 7.81087e-14 0)
(664 7.62269e-14 0)
(664 5.75548e-14 0)
(664 -4.08765e-15 0)
(664 -6.26401e-14 0)
(664 -9.38711e-14 0)
(664 -1.38243e-13 0)
(664 -1.96474e-13 0)
(664 -2.36888e-13 0)
(664 -2.88557e-13 0)
(664 -3.58409e-13 0)
(664 -4.16573e-13 0)
(664 -4.63329e-13 0)
(664 -5.07785e-13 0)
(664 -5.32284e-13 0)
(664 -5.45319e-13 0)
(664 -5.02844e-13 0)
(664 -4.24042e-13 0)
(664 -3.36805e-13 0)
(664 -2.47386e-13 0)
(664 -1.93645e-13 0)
(664 -1.73995e-13 0)
(664 -1.75464e-13 0)
(664 -1.7292e-13 0)
(664 -1.60119e-13 0)
(664 -1.61542e-13 0)
(664 -1.73979e-13 0)
(664 -1.6817e-13 0)
(664 -1.60144e-13 0)
(664 -1.63776e-13 0)
(664 -1.6281e-13 0)
(664 -1.54806e-13 0)
(664 -1.75187e-13 0)
(664 -2.02483e-13 0)
(664 -2.3734e-13 0)
(664 -2.81648e-13 0)
(664 -3.05387e-13 0)
(664 -3.15816e-13 0)
(664 -3.3087e-13 0)
(664 -3.09817e-13 0)
(664 -1.93122e-13 0)
(664 1.67262e-14 0)
(664 3.8632e-13 0)
(664 1.05581e-12 0)
(664 2.24814e-12 0)
(664 4.34377e-12 0)
(664 7.95924e-12 0)
(664 1.42458e-11 0)
(664 2.52304e-11 0)
(664 4.433e-11 0)
(664 7.75709e-11 0)
(664 1.35376e-10 0)
(664 2.35879e-10 0)
(664 4.10437e-10 0)
(664 7.1333e-10 0)
(664 1.23854e-09 0)
(664 2.14896e-09 0)
(664 3.72598e-09 0)
(664 6.45685e-09 0)
(664 1.11832e-08 0)
(664 1.93615e-08 0)
(664 3.35067e-08 0)
(664 5.79689e-08 0)
(664 1.00257e-07 0)
(664 1.73357e-07 0)
(664 2.99681e-07 0)
(664 5.17977e-07 0)
(664 8.95113e-07 0)
(664 1.54669e-06 0)
(664 2.67216e-06 0)
(664 4.61633e-06 0)
(664 7.97406e-06 0)
(664 1.37736e-05 0)
(664 2.37886e-05 0)
(664 4.10846e-05 0)
(664 7.09486e-05 0)
(663.999 0.000122516 0)
(663.999 0.000211539 0)
(663.998 0.000365224 0)
(663.997 0.000630463 0)
(663.995 0.00108821 0)
(663.992 0.00187789 0)
(663.986 0.00324002 0)
(663.977 0.00558848 0)
(663.961 0.00963639 0)
(663.935 0.0166092 0)
(663.891 0.0286151 0)
(663.818 0.0492711 0)
(663.697 0.0847849 0)
(663.495 0.145769 0)
(663.16 0.250373 0)
(662.605 0.42955 0)
(661.689 0.736026 0)
(660.188 1.25868 0)
(657.734 2.14556 0)
(653.753 3.64252 0)
(647.293 6.15499 0)
(637.529 10.3421 0)
(664 -1.69296e-15 0)
(664 1.02402e-14 0)
(664 3.30282e-14 0)
(664 4.63152e-14 0)
(664 4.4649e-14 0)
(664 5.07073e-14 0)
(664 4.13845e-14 0)
(664 2.85306e-14 0)
(664 3.73944e-14 0)
(664 1.87233e-14 0)
(664 -1.16118e-14 0)
(664 -6.23507e-14 0)
(664 -1.22733e-13 0)
(664 -1.58945e-13 0)
(664 -2.03573e-13 0)
(664 -2.45661e-13 0)
(664 -2.95905e-13 0)
(664 -3.39375e-13 0)
(664 -3.46688e-13 0)
(664 -3.39588e-13 0)
(664 -3.62335e-13 0)
(664 -3.66432e-13 0)
(664 -3.52862e-13 0)
(664 -3.66353e-13 0)
(664 -3.59469e-13 0)
(664 -3.33899e-13 0)
(664 -3.19313e-13 0)
(664 -2.82679e-13 0)
(664 -2.51916e-13 0)
(664 -2.24582e-13 0)
(664 -1.74488e-13 0)
(664 -1.24267e-13 0)
(664 -1.13702e-13 0)
(664 -1.41903e-13 0)
(664 -1.74406e-13 0)
(664 -2.18319e-13 0)
(664 -2.7191e-13 0)
(664 -3.19785e-13 0)
(664 -3.37683e-13 0)
(664 -3.27535e-13 0)
(664 -3.124e-13 0)
(664 -2.97056e-13 0)
(664 -3.04324e-13 0)
(664 -3.04546e-13 0)
(664 -2.85437e-13 0)
(664 -2.66035e-13 0)
(664 -2.5747e-13 0)
(664 -2.40142e-13 0)
(664 -2.31929e-13 0)
(664 -2.28553e-13 0)
(664 -2.3581e-13 0)
(664 -2.73317e-13 0)
(664 -3.27473e-13 0)
(664 -3.98034e-13 0)
(664 -4.69605e-13 0)
(664 -5.45077e-13 0)
(664 -6.09773e-13 0)
(664 -6.5547e-13 0)
(664 -6.77176e-13 0)
(664 -6.88492e-13 0)
(664 -6.74191e-13 0)
(664 -6.51112e-13 0)
(664 -6.47826e-13 0)
(664 -6.50928e-13 0)
(664 -6.42301e-13 0)
(664 -6.15819e-13 0)
(664 -5.68198e-13 0)
(664 -5.46785e-13 0)
(664 -5.28408e-13 0)
(664 -5.18826e-13 0)
(664 -5.08643e-13 0)
(664 -4.75099e-13 0)
(664 -4.62127e-13 0)
(664 -4.7534e-13 0)
(664 -5.10726e-13 0)
(664 -5.40882e-13 0)
(664 -5.4855e-13 0)
(664 -5.7678e-13 0)
(664 -6.12049e-13 0)
(664 -6.39272e-13 0)
(664 -6.42487e-13 0)
(664 -6.44853e-13 0)
(664 -6.73568e-13 0)
(664 -7.09273e-13 0)
(664 -7.05752e-13 0)
(664 -7.14371e-13 0)
(664 -7.32036e-13 0)
(664 -7.561e-13 0)
(664 -7.61079e-13 0)
(664 -7.27858e-13 0)
(664 -7.21722e-13 0)
(664 -7.09859e-13 0)
(664 -6.99333e-13 0)
(664 -6.81447e-13 0)
(664 -6.63249e-13 0)
(664 -6.51145e-13 0)
(664 -6.63865e-13 0)
(664 -6.83979e-13 0)
(664 -6.84308e-13 0)
(664 -6.55978e-13 0)
(664 -6.39741e-13 0)
(664 -6.44108e-13 0)
(664 -6.73016e-13 0)
(664 -6.9823e-13 0)
(664 -6.87517e-13 0)
(664 -6.85326e-13 0)
(664 -7.09579e-13 0)
(664 -7.20454e-13 0)
(664 -7.21109e-13 0)
(664 -7.30024e-13 0)
(664 -7.4292e-13 0)
(664 -7.40394e-13 0)
(664 -7.39517e-13 0)
(664 -7.41691e-13 0)
(664 -7.44152e-13 0)
(664 -7.56028e-13 0)
(664 -7.75819e-13 0)
(664 -7.95019e-13 0)
(664 -8.1235e-13 0)
(664 -8.14987e-13 0)
(664 -8.05372e-13 0)
(664 -8.07476e-13 0)
(664 -8.09405e-13 0)
(664 -8.01177e-13 0)
(664 -7.85463e-13 0)
(664 -7.61704e-13 0)
(664 -7.38764e-13 0)
(664 -7.0607e-13 0)
(664 -6.81535e-13 0)
(664 -6.63737e-13 0)
(664 -6.25318e-13 0)
(664 -5.90445e-13 0)
(664 -5.67424e-13 0)
(664 -5.42232e-13 0)
(664 -5.19331e-13 0)
(664 -5.09849e-13 0)
(664 -5.168e-13 0)
(664 -5.5918e-13 0)
(664 -6.07494e-13 0)
(664 -6.49264e-13 0)
(664 -7.04133e-13 0)
(664 -7.17232e-13 0)
(664 -7.39872e-13 0)
(664 -7.81872e-13 0)
(664 -8.12159e-13 0)
(664 -8.44506e-13 0)
(664 -8.67821e-13 0)
(664 -8.85497e-13 0)
(664 -8.92041e-13 0)
(664 -8.84053e-13 0)
(664 -8.70632e-13 0)
(664 -8.84093e-13 0)
(664 -8.96769e-13 0)
(664 -9.25434e-13 0)
(664 -9.38087e-13 0)
(664 -9.17238e-13 0)
(664 -8.87242e-13 0)
(664 -8.52431e-13 0)
(664 -8.31345e-13 0)
(664 -8.16091e-13 0)
(664 -8.01871e-13 0)
(664 -7.81775e-13 0)
(664 -7.48399e-13 0)
(664 -7.04028e-13 0)
(664 -6.31057e-13 0)
(664 -5.65324e-13 0)
(664 -5.20027e-13 0)
(664 -4.82519e-13 0)
(664 -4.56825e-13 0)
(664 -4.37053e-13 0)
(664 -4.04758e-13 0)
(664 -3.72978e-13 0)
(664 -3.32909e-13 0)
(664 -2.99476e-13 0)
(664 -3.04404e-13 0)
(664 -2.96766e-13 0)
(664 -2.83671e-13 0)
(664 -2.82321e-13 0)
(664 -2.60917e-13 0)
(664 -2.37553e-13 0)
(664 -2.38874e-13 0)
(664 -2.62891e-13 0)
(664 -2.76299e-13 0)
(664 -2.80655e-13 0)
(664 -2.87073e-13 0)
(664 -2.82815e-13 0)
(664 -2.7378e-13 0)
(664 -2.6814e-13 0)
(664 -2.82404e-13 0)
(664 -3.23109e-13 0)
(664 -3.63882e-13 0)
(664 -3.90062e-13 0)
(664 -4.106e-13 0)
(664 -3.9956e-13 0)
(664 -3.90301e-13 0)
(664 -3.34929e-13 0)
(664 -2.78822e-13 0)
(664 -2.57934e-13 0)
(664 -2.20703e-13 0)
(664 -1.93186e-13 0)
(664 -1.92544e-13 0)
(664 -1.98355e-13 0)
(664 -1.7485e-13 0)
(664 -1.92516e-13 0)
(664 -2.30026e-13 0)
(664 -2.74533e-13 0)
(664 -3.09566e-13 0)
(664 -3.16012e-13 0)
(664 -3.23331e-13 0)
(664 -3.36147e-13 0)
(664 -3.36769e-13 0)
(664 -3.25087e-13 0)
(664 -3.07772e-13 0)
(664 -2.92855e-13 0)
(664 -2.57159e-13 0)
(664 -2.30835e-13 0)
(664 -2.31949e-13 0)
(664 -2.34265e-13 0)
(664 -2.3104e-13 0)
(664 -2.17579e-13 0)
(664 -1.95895e-13 0)
(664 -1.81274e-13 0)
(664 -1.7304e-13 0)
(664 -1.65069e-13 0)
(664 -1.66595e-13 0)
(664 -1.81808e-13 0)
(664 -2.00355e-13 0)
(664 -2.3444e-13 0)
(664 -2.61505e-13 0)
(664 -2.65823e-13 0)
(664 -3.00915e-13 0)
(664 -3.74042e-13 0)
(664 -4.4679e-13 0)
(664 -5.2556e-13 0)
(664 -5.57026e-13 0)
(664 -5.69243e-13 0)
(664 -5.8684e-13 0)
(664 -5.98609e-13 0)
(664 -6.02303e-13 0)
(664 -5.82623e-13 0)
(664 -5.09275e-13 0)
(664 -4.0623e-13 0)
(664 -2.63462e-13 0)
(664 -8.64284e-15 0)
(664 4.19501e-13 0)
(664 1.17665e-12 0)
(664 2.48817e-12 0)
(664 4.74263e-12 0)
(664 8.67546e-12 0)
(664 1.54884e-11 0)
(664 2.73217e-11 0)
(664 4.78881e-11 0)
(664 8.355e-11 0)
(664 1.453e-10 0)
(664 2.52212e-10 0)
(664 4.37146e-10 0)
(664 7.56707e-10 0)
(664 1.30827e-09 0)
(664 2.25969e-09 0)
(664 3.89939e-09 0)
(664 6.72375e-09 0)
(664 1.15846e-08 0)
(664 1.99464e-08 0)
(664 3.43199e-08 0)
(664 5.90171e-08 0)
(664 1.01424e-07 0)
(664 1.74214e-07 0)
(664 2.99077e-07 0)
(664 5.13194e-07 0)
(664 8.80151e-07 0)
(664 1.50885e-06 0)
(664 2.58538e-06 0)
(664 4.42816e-06 0)
(664 7.58082e-06 0)
(664 1.29727e-05 0)
(664 2.2189e-05 0)
(664 3.79367e-05 0)
(664 6.48282e-05 0)
(664 0.000110731 0)
(663.999 0.000189033 0)
(663.999 0.000322541 0)
(663.998 0.000550008 0)
(663.997 0.00093734 0)
(663.994 0.00159634 0)
(663.991 0.00271676 0)
(663.984 0.00461983 0)
(663.974 0.00784948 0)
(663.957 0.013324 0)
(663.928 0.0225939 0)
(663.881 0.0382688 0)
(663.803 0.0647373 0)
(663.676 0.109353 0)
(663.466 0.184414 0)
(663.121 0.310439 0)
(662.558 0.5215 0)
(661.641 0.873841 0)
(660.152 1.45876 0)
(657.746 2.42517 0)
(653.835 4.00918 0)
(647.868 6.59248 0)
(664 1.31196e-14 0)
(664 1.84538e-14 0)
(664 2.28678e-14 0)
(664 3.73982e-14 0)
(664 5.61774e-14 0)
(664 7.1992e-14 0)
(664 1.05564e-13 0)
(664 1.4291e-13 0)
(664 1.83224e-13 0)
(664 2.05204e-13 0)
(664 2.09918e-13 0)
(664 2.35147e-13 0)
(664 2.8049e-13 0)
(664 2.92176e-13 0)
(664 2.61106e-13 0)
(664 2.14466e-13 0)
(664 1.81703e-13 0)
(664 1.33407e-13 0)
(664 7.28657e-14 0)
(664 3.56858e-14 0)
(664 2.05838e-14 0)
(664 -1.89817e-14 0)
(664 -7.42413e-14 0)
(664 -1.3801e-13 0)
(664 -2.17975e-13 0)
(664 -2.87265e-13 0)
(664 -3.34267e-13 0)
(664 -3.78047e-13 0)
(664 -4.03813e-13 0)
(664 -4.02112e-13 0)
(664 -4.17521e-13 0)
(664 -4.51888e-13 0)
(664 -4.77459e-13 0)
(664 -4.82265e-13 0)
(664 -4.83841e-13 0)
(664 -5.01335e-13 0)
(664 -5.29254e-13 0)
(664 -5.53164e-13 0)
(664 -5.56156e-13 0)
(664 -5.53108e-13 0)
(664 -5.43298e-13 0)
(664 -5.14151e-13 0)
(664 -4.8304e-13 0)
(664 -4.3675e-13 0)
(664 -3.81772e-13 0)
(664 -3.65601e-13 0)
(664 -3.7657e-13 0)
(664 -4.01392e-13 0)
(664 -4.22029e-13 0)
(664 -4.47285e-13 0)
(664 -4.60055e-13 0)
(664 -4.7756e-13 0)
(664 -4.9581e-13 0)
(664 -5.06964e-13 0)
(664 -5.34334e-13 0)
(664 -5.43759e-13 0)
(664 -5.34537e-13 0)
(664 -5.08e-13 0)
(664 -4.7539e-13 0)
(664 -4.28655e-13 0)
(664 -3.8318e-13 0)
(664 -3.70173e-13 0)
(664 -3.95143e-13 0)
(664 -3.8682e-13 0)
(664 -3.63619e-13 0)
(664 -3.76136e-13 0)
(664 -4.24216e-13 0)
(664 -4.92861e-13 0)
(664 -5.45923e-13 0)
(664 -6.06297e-13 0)
(664 -6.75577e-13 0)
(664 -7.2002e-13 0)
(664 -7.54421e-13 0)
(664 -7.84067e-13 0)
(664 -8.18316e-13 0)
(664 -8.21898e-13 0)
(664 -8.29951e-13 0)
(664 -8.38666e-13 0)
(664 -8.33913e-13 0)
(664 -8.04113e-13 0)
(664 -7.50602e-13 0)
(664 -6.89452e-13 0)
(664 -6.35491e-13 0)
(664 -6.05016e-13 0)
(664 -5.90418e-13 0)
(664 -5.70755e-13 0)
(664 -5.50614e-13 0)
(664 -5.26969e-13 0)
(664 -5.03627e-13 0)
(664 -5.13138e-13 0)
(664 -5.25465e-13 0)
(664 -5.34788e-13 0)
(664 -5.49901e-13 0)
(664 -5.9097e-13 0)
(664 -6.57466e-13 0)
(664 -7.03002e-13 0)
(664 -7.39358e-13 0)
(664 -7.7924e-13 0)
(664 -7.83608e-13 0)
(664 -7.92255e-13 0)
(664 -8.00892e-13 0)
(664 -7.87345e-13 0)
(664 -7.83965e-13 0)
(664 -7.69763e-13 0)
(664 -7.62789e-13 0)
(664 -7.50242e-13 0)
(664 -7.48371e-13 0)
(664 -7.44921e-13 0)
(664 -7.36927e-13 0)
(664 -7.2196e-13 0)
(664 -7.36839e-13 0)
(664 -7.59375e-13 0)
(664 -7.8033e-13 0)
(664 -8.11562e-13 0)
(664 -8.46753e-13 0)
(664 -8.92991e-13 0)
(664 -9.21357e-13 0)
(664 -9.28237e-13 0)
(664 -9.43269e-13 0)
(664 -9.63793e-13 0)
(664 -9.72048e-13 0)
(664 -9.70294e-13 0)
(664 -9.7519e-13 0)
(664 -9.57624e-13 0)
(664 -9.02186e-13 0)
(664 -8.51849e-13 0)
(664 -8.32482e-13 0)
(664 -8.29133e-13 0)
(664 -8.21273e-13 0)
(664 -7.96503e-13 0)
(664 -7.71398e-13 0)
(664 -7.67409e-13 0)
(664 -7.85574e-13 0)
(664 -7.82856e-13 0)
(664 -7.68624e-13 0)
(664 -7.81258e-13 0)
(664 -7.94955e-13 0)
(664 -7.96592e-13 0)
(664 -8.03544e-13 0)
(664 -8.07231e-13 0)
(664 -7.96439e-13 0)
(664 -7.64076e-13 0)
(664 -7.19548e-13 0)
(664 -7.05605e-13 0)
(664 -6.5947e-13 0)
(664 -6.04761e-13 0)
(664 -5.62046e-13 0)
(664 -5.17348e-13 0)
(664 -4.85431e-13 0)
(664 -4.64474e-13 0)
(664 -4.62627e-13 0)
(664 -4.57648e-13 0)
(664 -4.44388e-13 0)
(664 -4.38981e-13 0)
(664 -4.34556e-13 0)
(664 -4.52462e-13 0)
(664 -4.98447e-13 0)
(664 -5.28648e-13 0)
(664 -5.6027e-13 0)
(664 -6.12033e-13 0)
(664 -6.35348e-13 0)
(664 -6.25874e-13 0)
(664 -6.20211e-13 0)
(664 -6.2091e-13 0)
(664 -6.11511e-13 0)
(664 -6.03187e-13 0)
(664 -5.91482e-13 0)
(664 -5.63788e-13 0)
(664 -5.35872e-13 0)
(664 -5.12074e-13 0)
(664 -4.92918e-13 0)
(664 -4.7709e-13 0)
(664 -4.78659e-13 0)
(664 -4.91274e-13 0)
(664 -4.89129e-13 0)
(664 -4.74997e-13 0)
(664 -4.37786e-13 0)
(664 -4.03421e-13 0)
(664 -4.02296e-13 0)
(664 -4.1579e-13 0)
(664 -4.1876e-13 0)
(664 -4.15816e-13 0)
(664 -4.36733e-13 0)
(664 -4.77082e-13 0)
(664 -5.11551e-13 0)
(664 -5.23524e-13 0)
(664 -5.41579e-13 0)
(664 -5.61832e-13 0)
(664 -5.62304e-13 0)
(664 -5.62316e-13 0)
(664 -5.74877e-13 0)
(664 -5.76287e-13 0)
(664 -5.84446e-13 0)
(664 -6.45271e-13 0)
(664 -6.88484e-13 0)
(664 -6.94917e-13 0)
(664 -7.1755e-13 0)
(664 -7.45678e-13 0)