/*--------------------------------*- C++ -*----------------------------------*\
| =========                 |                                                 |
| \\      /  F ield         | OpenFOAM: The Open Source CFD Toolbox           |
|  \\    /   O peration     | Version:  2412                                  |
|   \\  /    A nd           | Website:  www.openfoam.com                      |
|    \\/     M anipulation  |                                                 |
\*---------------------------------------------------------------------------*/
FoamFile
{
    version     2.0;
    format      ascii;
    arch        "LSB;label=32;scalar=64";
    class       volVectorField;
    location    "0.0005";
    object      U_0;
}
// * * * * * * * * * * * * * * * * * * * * * * * * * * * * * * * * * * * * * //

dimensions      [0 1 -1 0 0 0 0];

internalField   nonuniform List<vector> 
180000
(
(664 8.9168e-15 0)
(664 1.49894e-14 0)
(664 2.40199e-14 0)
(664 2.10658e-14 0)
(664 6.23746e-15 0)
(664 -3.16929e-14 0)
(664 -8.25322e-14 0)
(664 -1.37605e-13 0)
(664 -1.85991e-13 0)
(664 -2.41676e-13 0)
(664 -2.76422e-13 0)
(664 -2.91965e-13 0)
(664 -2.90453e-13 0)
(664 -2.90883e-13 0)
(664 -2.98847e-13 0)
(664 -2.85448e-13 0)
(664 -2.4454e-13 0)
(664 -2.08705e-13 0)
(664 -1.80281e-13 0)
(664 -1.49639e-13 0)
(664 -1.30619e-13 0)
(664 -1.19548e-13 0)
(664 -1.53488e-13 0)
(664 -2.07798e-13 0)
(664 -2.6698e-13 0)
(664 -3.4561e-13 0)
(664 -4.16032e-13 0)
(664 -4.88128e-13 0)
(664 -5.53976e-13 0)
(664 -5.96394e-13 0)
(664 -6.30416e-13 0)
(664 -6.42334e-13 0)
(664 -6.39384e-13 0)
(664 -6.21506e-13 0)
(664 -6.19256e-13 0)
(664 -6.19569e-13 0)
(664 -6.07764e-13 0)
(664 -5.91687e-13 0)
(664 -5.59902e-13 0)
(664 -5.30458e-13 0)
(664 -4.86239e-13 0)
(664 -4.32551e-13 0)
(664 -3.93007e-13 0)
(664 -3.26525e-13 0)
(664 -2.55378e-13 0)
(664 -2.18323e-13 0)
(664 -1.80267e-13 0)
(664 -1.37064e-13 0)
(664 -1.22782e-13 0)
(664 -1.1437e-13 0)
(664 -1.25915e-13 0)
(664 -1.17423e-13 0)
(664 -1.08228e-13 0)
(664 -1.19355e-13 0)
(664 -1.37844e-13 0)
(664 -1.84457e-13 0)
(664 -2.49174e-13 0)
(664 -3.0945e-13 0)
(664 -3.72246e-13 0)
(664 -4.16719e-13 0)
(664 -4.48319e-13 0)
(664 -4.62104e-13 0)
(664 -4.79319e-13 0)
(664 -5.00003e-13 0)
(664 -5.0359e-13 0)
(664 -5.16104e-13 0)
(664 -5.34842e-13 0)
(664 -5.50051e-13 0)
(664 -6.00991e-13 0)
(664 -6.33826e-13 0)
(664 -6.46695e-13 0)
(664 -6.53373e-13 0)
(664 -6.41419e-13 0)
(664 -6.04061e-13 0)
(664 -5.44484e-13 0)
(664 -5.00386e-13 0)
(664 -4.88451e-13 0)
(664 -4.93412e-13 0)
(664 -5.33389e-13 0)
(664 -5.62426e-13 0)
(664 -5.82081e-13 0)
(664 -6.21264e-13 0)
(664 -6.51766e-13 0)
(664 -6.93418e-13 0)
(664 -7.16801e-13 0)
(664 -7.17067e-13 0)
(664 -7.04602e-13 0)
(664 -7.00229e-13 0)
(664 -6.99468e-13 0)
(664 -7.24441e-13 0)
(664 -7.3073e-13 0)
(664 -7.3132e-13 0)
(664 -7.53702e-13 0)
(664 -7.86867e-13 0)
(664 -8.26524e-13 0)
(664 -8.54305e-13 0)
(664 -8.49062e-13 0)
(664 -8.23014e-13 0)
(664 -7.84052e-13 0)
(664 -7.39984e-13 0)
(664 -6.57447e-13 0)
(664 -5.74598e-13 0)
(664 -4.88988e-13 0)
(664 -4.25822e-13 0)
(664 -4.12104e-13 0)
(664 -4.28924e-13 0)
(664 -4.43509e-13 0)
(664 -4.74752e-13 0)
(664 -5.04755e-13 0)
(664 -5.46586e-13 0)
(664 -5.81632e-13 0)
(664 -5.95008e-13 0)
(664 -6.03547e-13 0)
(664 -6.05361e-13 0)
(664 -5.90224e-13 0)
(664 -5.68172e-13 0)
(664 -5.51775e-13 0)
(664 -5.599e-13 0)
(664 -5.68056e-13 0)
(664 -5.94777e-13 0)
(664 -5.96789e-13 0)
(664 -5.93651e-13 0)
(664 -6.14775e-13 0)
(664 -6.13764e-13 0)
(664 -6.35121e-13 0)
(664 -6.72849e-13 0)
(664 -7.13433e-13 0)
(664 -7.3865e-13 0)
(664 -7.55635e-13 0)
(664 -7.76118e-13 0)
(664 -7.86278e-13 0)
(664 -7.83239e-13 0)
(664 -7.78788e-13 0)
(664 -7.63907e-13 0)
(664 -7.51907e-13 0)
(664 -7.57906e-13 0)
(664 -7.64398e-13 0)
(664 -7.65132e-13 0)
(664 -7.50812e-13 0)
(664 -7.44775e-13 0)
(664 -7.50683e-13 0)
(664 -7.69218e-13 0)
(664 -7.63397e-13 0)
(664 -7.36872e-13 0)
(664 -7.20607e-13 0)
(664 -7.17571e-13 0)
(664 -7.30047e-13 0)
(664 -7.58451e-13 0)
(664 -7.87788e-13 0)
(664 -8.08607e-13 0)
(664 -8.29583e-13 0)
(664 -8.31216e-13 0)
(664 -8.24051e-13 0)
(664 -7.95772e-13 0)
(664 -7.4602e-13 0)
(664 -6.92786e-13 0)
(664 -6.38743e-13 0)
(664 -5.92874e-13 0)
(664 -5.84643e-13 0)
(664 -5.7965e-13 0)
(664 -5.87789e-13 0)
(664 -6.10096e-13 0)
(664 -6.36118e-13 0)
(664 -6.53183e-13 0)
(664 -6.72729e-13 0)
(664 -7.03642e-13 0)
(664 -7.20387e-13 0)
(664 -7.28379e-13 0)
(664 -7.38826e-13 0)
(664 -7.43197e-13 0)
(664 -7.22099e-13 0)
(664 -6.82313e-13 0)
(664 -6.53432e-13 0)
(664 -6.44457e-13 0)
(664 -6.44183e-13 0)
(664 -6.34151e-13 0)
(664 -6.06303e-13 0)
(664 -5.66382e-13 0)
(664 -5.39081e-13 0)
(664 -5.24654e-13 0)
(664 -4.90253e-13 0)
(664 -4.56008e-13 0)
(664 -4.40075e-13 0)
(664 -4.11098e-13 0)
(664 -3.68034e-13 0)
(664 -3.45289e-13 0)
(664 -3.27864e-13 0)
(664 -3.10048e-13 0)
(664 -3.11502e-13 0)
(664 -3.30296e-13 0)
(664 -3.51191e-13 0)
(664 -3.72394e-13 0)
(664 -4.0394e-13 0)
(664 -4.44807e-13 0)
(664 -4.76813e-13 0)
(664 -5.32626e-13 0)
(664 -5.80649e-13 0)
(664 -6.04046e-13 0)
(664 -6.1079e-13 0)
(664 -6.14179e-13 0)
(664 -5.98465e-13 0)
(664 -5.76932e-13 0)
(664 -5.36806e-13 0)
(664 -5.09452e-13 0)
(664 -4.94357e-13 0)
(664 -4.83891e-13 0)
(664 -4.95311e-13 0)
(664 -5.13967e-13 0)
(664 -5.46061e-13 0)
(664 -5.56576e-13 0)
(664 -5.39526e-13 0)
(664 -5.29019e-13 0)
(664 -5.44211e-13 0)
(664 -5.72794e-13 0)
(664 -5.84681e-13 0)
(664 -5.82523e-13 0)
(664 -5.7253e-13 0)
(664 -5.58721e-13 0)
(664 -5.37212e-13 0)
(664 -4.96665e-13 0)
(664 -4.72579e-13 0)
(664 -4.88031e-13 0)
(664 -5.11557e-13 0)
(664 -5.32163e-13 0)
(664 -5.52236e-13 0)
(664 -5.50868e-13 0)
(664 -5.26336e-13 0)
(664 -4.97078e-13 0)
(664 -4.78678e-13 0)
(664 -4.63623e-13 0)
(664 -4.56158e-13 0)
(664 -4.33703e-13 0)
(664 -4.16664e-13 0)
(664 -4.08253e-13 0)
(664 -4.11161e-13 0)
(664 -4.18579e-13 0)
(664 -4.30505e-13 0)
(664 -4.39186e-13 0)
(664 -4.29982e-13 0)
(664 -4.17852e-13 0)
(664 -3.80529e-13 0)
(664 -2.96276e-13 0)
(664 -1.44453e-13 0)
(664 1.19402e-13 0)
(664 5.42269e-13 0)
(664 1.27248e-12 0)
(664 2.55809e-12 0)
(664 4.77461e-12 0)
(664 8.52306e-12 0)
(664 1.49395e-11 0)
(664 2.58611e-11 0)
(664 4.44351e-11 0)
(664 7.6025e-11 0)
(664 1.29671e-10 0)
(664 2.20802e-10 0)
(664 3.75571e-10 0)
(664 6.3839e-10 0)
(664 1.08472e-09 0)
(664 1.84284e-09 0)
(664 3.13077e-09 0)
(664 5.31955e-09 0)
(664 9.04056e-09 0)
(664 1.53694e-08 0)
(664 2.61389e-08 0)
(664 4.44761e-08 0)
(664 7.57179e-08 0)
(664 1.28985e-07 0)
(664 2.19872e-07 0)
(664 3.7508e-07 0)
(664 6.40364e-07 0)
(664 1.09423e-06 0)
(664 1.8715e-06 0)
(664 3.2041e-06 0)
(664 5.49129e-06 0)
(664 9.42169e-06 0)
(664 1.61841e-05 0)
(663.999 2.78346e-05 0)
(663.999 4.79331e-05 0)
(663.998 8.26557e-05 0)
(663.997 0.00014273 0)
(663.995 0.000246824 0)
(663.992 0.000427474 0)
(663.987 0.000741494 0)
(663.978 0.00128824 0)
(663.964 0.0022418 0)
(663.94 0.00390773 0)
(663.9 0.00682338 0)
(663.833 0.0119351 0)
(663.721 0.0209138 0)
(663.533 0.0367117 0)
(663.218 0.0645635 0)
(662.69 0.113744 0)
(661.805 0.200789 0)
(660.317 0.355036 0)
(657.819 0.629264 0)
(653.621 1.11647 0)
(646.591 1.98677 0)
(634.751 3.53387 0)
(615.149 6.3306 0)
(584.07 11.2538 0)
(664 2.54578e-15 0)
(664 5.62139e-15 0)
(664 2.01201e-14 0)
(664 1.36959e-14 0)
(664 -6.05135e-15 0)
(664 -2.97493e-14 0)
(664 -9.03425e-14 0)
(664 -1.65699e-13 0)
(664 -2.58845e-13 0)
(664 -3.47479e-13 0)
(664 -3.97156e-13 0)
(664 -4.42575e-13 0)
(664 -4.89736e-13 0)
(664 -5.15895e-13 0)
(664 -5.35853e-13 0)
(664 -5.4351e-13 0)
(664 -5.59598e-13 0)
(664 -5.54918e-13 0)
(664 -5.2335e-13 0)
(664 -4.84832e-13 0)
(664 -4.31654e-13 0)
(664 -3.69824e-13 0)
(664 -3.21754e-13 0)
(664 -2.93848e-13 0)
(664 -2.63772e-13 0)
(664 -2.70401e-13 0)
(664 -2.69602e-13 0)
(664 -2.83371e-13 0)
(664 -3.19744e-13 0)
(664 -3.61297e-13 0)
(664 -3.94791e-13 0)
(664 -4.17222e-13 0)
(664 -3.91503e-13 0)
(664 -3.65885e-13 0)
(664 -3.48348e-13 0)
(664 -3.42167e-13 0)
(664 -3.36833e-13 0)
(664 -3.20974e-13 0)
(664 -3.0137e-13 0)
(664 -2.76484e-13 0)
(664 -2.71867e-13 0)
(664 -2.6121e-13 0)
(664 -2.71295e-13 0)
(664 -2.81903e-13 0)
(664 -2.80164e-13 0)
(664 -2.78175e-13 0)
(664 -2.53715e-13 0)
(664 -2.41841e-13 0)
(664 -2.31801e-13 0)
(664 -2.18585e-13 0)
(664 -2.24809e-13 0)
(664 -2.32804e-13 0)
(664 -2.31029e-13 0)
(664 -2.52894e-13 0)
(664 -2.79368e-13 0)
(664 -2.98266e-13 0)
(664 -3.72513e-13 0)
(664 -4.42456e-13 0)
(664 -5.01373e-13 0)
(664 -5.5336e-13 0)
(664 -6.01149e-13 0)
(664 -6.46992e-13 0)
(664 -6.88751e-13 0)
(664 -7.28235e-13 0)
(664 -7.74064e-13 0)
(664 -8.41772e-13 0)
(664 -8.95596e-13 0)
(664 -9.51649e-13 0)
(664 -1.01377e-12 0)
(664 -1.05471e-12 0)
(664 -1.09393e-12 0)
(664 -1.11364e-12 0)
(664 -1.11763e-12 0)
(664 -1.09192e-12 0)
(664 -1.04993e-12 0)
(664 -1.01694e-12 0)
(664 -1.0253e-12 0)
(664 -1.0493e-12 0)
(664 -1.06178e-12 0)
(664 -1.06443e-12 0)
(664 -1.05896e-12 0)
(664 -1.01644e-12 0)
(664 -9.81052e-13 0)
(664 -9.6656e-13 0)
(664 -9.48905e-13 0)
(664 -9.11112e-13 0)
(664 -8.64389e-13 0)
(664 -8.58512e-13 0)
(664 -8.44988e-13 0)
(664 -8.32958e-13 0)
(664 -8.2543e-13 0)
(664 -8.03233e-13 0)
(664 -7.74872e-13 0)
(664 -7.80589e-13 0)
(664 -7.83538e-13 0)
(664 -7.836e-13 0)
(664 -7.48232e-13 0)
(664 -7.03664e-13 0)
(664 -6.6453e-13 0)
(664 -6.09534e-13 0)
(664 -5.59681e-13 0)
(664 -5.23541e-13 0)
(664 -4.69516e-13 0)
(664 -4.35723e-13 0)
(664 -4.31078e-13 0)
(664 -4.44066e-13 0)
(664 -4.39604e-13 0)
(664 -4.54859e-13 0)
(664 -4.96204e-13 0)
(664 -5.13745e-13 0)
(664 -5.39809e-13 0)
(664 -5.8108e-13 0)
(664 -6.00234e-13 0)
(664 -6.1848e-13 0)
(664 -6.11904e-13 0)
(664 -6.17254e-13 0)
(664 -6.27798e-13 0)
(664 -6.30167e-13 0)
(664 -6.62704e-13 0)
(664 -6.96693e-13 0)
(664 -7.25926e-13 0)
(664 -7.4642e-13 0)
(664 -7.73557e-13 0)
(664 -8.12984e-13 0)
(664 -8.71075e-13 0)
(664 -9.51321e-13 0)
(664 -1.0402e-12 0)
(664 -1.12791e-12 0)
(664 -1.20198e-12 0)
(664 -1.27114e-12 0)
(664 -1.33358e-12 0)
(664 -1.38007e-12 0)
(664 -1.41625e-12 0)
(664 -1.42219e-12 0)
(664 -1.41947e-12 0)
(664 -1.42015e-12 0)
(664 -1.39866e-12 0)
(664 -1.34729e-12 0)
(664 -1.30721e-12 0)
(664 -1.26066e-12 0)
(664 -1.19974e-12 0)
(664 -1.1316e-12 0)
(664 -1.04264e-12 0)
(664 -9.58311e-13 0)
(664 -8.98544e-13 0)
(664 -8.57185e-13 0)
(664 -8.49496e-13 0)
(664 -8.68976e-13 0)
(664 -8.73434e-13 0)
(664 -8.96995e-13 0)
(664 -9.30781e-13 0)
(664 -9.47964e-13 0)
(664 -9.57581e-13 0)
(664 -9.27694e-13 0)
(664 -8.93908e-13 0)
(664 -8.61416e-13 0)
(664 -8.08312e-13 0)
(664 -7.51315e-13 0)
(664 -6.90876e-13 0)
(664 -6.38621e-13 0)
(664 -6.07704e-13 0)
(664 -6.02427e-13 0)
(664 -5.931e-13 0)
(664 -5.6699e-13 0)
(664 -5.61923e-13 0)
(664 -5.71233e-13 0)
(664 -5.59808e-13 0)
(664 -5.54487e-13 0)
(664 -5.28651e-13 0)
(664 -4.91542e-13 0)
(664 -4.65647e-13 0)
(664 -4.28538e-13 0)
(664 -3.84114e-13 0)
(664 -3.72971e-13 0)
(664 -3.97643e-13 0)
(664 -4.11271e-13 0)
(664 -4.31241e-13 0)
(664 -4.71442e-13 0)
(664 -5.2536e-13 0)
(664 -5.82915e-13 0)
(664 -6.36314e-13 0)
(664 -6.78181e-13 0)
(664 -6.98639e-13 0)
(664 -6.97424e-13 0)
(664 -6.88589e-13 0)
(664 -7.00104e-13 0)
(664 -7.07102e-13 0)
(664 -7.33074e-13 0)
(664 -7.74143e-13 0)
(664 -8.19052e-13 0)
(664 -8.86897e-13 0)
(664 -9.57201e-13 0)
(664 -1.00535e-12 0)
(664 -1.03545e-12 0)
(664 -1.05207e-12 0)
(664 -1.07133e-12 0)
(664 -1.10987e-12 0)
(664 -1.15905e-12 0)
(664 -1.18545e-12 0)
(664 -1.20059e-12 0)
(664 -1.2073e-12 0)
(664 -1.16686e-12 0)
(664 -1.12628e-12 0)
(664 -1.085e-12 0)
(664 -1.02307e-12 0)
(664 -9.80202e-13 0)
(664 -9.39751e-13 0)
(664 -8.75656e-13 0)
(664 -8.06467e-13 0)
(664 -7.31483e-13 0)
(664 -6.43479e-13 0)
(664 -5.55331e-13 0)
(664 -4.89586e-13 0)
(664 -4.58782e-13 0)
(664 -4.4702e-13 0)
(664 -4.33774e-13 0)
(664 -4.01431e-13 0)
(664 -3.85799e-13 0)
(664 -3.91883e-13 0)
(664 -3.96851e-13 0)
(664 -4.04943e-13 0)
(664 -4.23659e-13 0)
(664 -4.47622e-13 0)
(664 -4.72242e-13 0)
(664 -5.01158e-13 0)
(664 -5.44616e-13 0)
(664 -5.85532e-13 0)
(664 -6.37729e-13 0)
(664 -6.64383e-13 0)
(664 -6.67776e-13 0)
(664 -6.84526e-13 0)
(664 -6.95414e-13 0)
(664 -6.81299e-13 0)
(664 -6.74808e-13 0)
(664 -6.59261e-13 0)
(664 -6.12569e-13 0)
(664 -5.63417e-13 0)
(664 -5.15922e-13 0)
(664 -4.30674e-13 0)
(664 -3.37415e-13 0)
(664 -1.8218e-13 0)
(664 7.65029e-14 0)
(664 5.19992e-13 0)
(664 1.26137e-12 0)
(664 2.49903e-12 0)
(664 4.61444e-12 0)
(664 8.22373e-12 0)
(664 1.43553e-11 0)
(664 2.47699e-11 0)
(664 4.24273e-11 0)
(664 7.23149e-11 0)
(664 1.22984e-10 0)
(664 2.08872e-10 0)
(664 3.54363e-10 0)
(664 6.00785e-10 0)
(664 1.01805e-09 0)
(664 1.72452e-09 0)
(664 2.92041e-09 0)
(664 4.9447e-09 0)
(664 8.37106e-09 0)
(664 1.41712e-08 0)
(664 2.39904e-08 0)
(664 4.0617e-08 0)
(664 6.87755e-08 0)
(664 1.16478e-07 0)
(664 1.97314e-07 0)
(664 3.34348e-07 0)
(664 5.66736e-07 0)
(664 9.61018e-07 0)
(664 1.63028e-06 0)
(664 2.76692e-06 0)
(664 4.69836e-06 0)
(664 7.98242e-06 0)
(664 1.35698e-05 0)
(664 2.30825e-05 0)
(664 3.92892e-05 0)
(663.999 6.69216e-05 0)
(663.999 0.00011407 0)
(663.999 0.000194586 0)
(663.998 0.000332194 0)
(663.996 0.000567591 0)
(663.993 0.00097062 0)
(663.989 0.00166132 0)
(663.982 0.00284614 0)
(663.971 0.00488063 0)
(663.952 0.00837758 0)
(663.92 0.0143947 0)
(663.868 0.024759 0)
(663.783 0.0426312 0)
(663.643 0.0734819 0)
(663.412 0.1268 0)
(663.033 0.219032 0)
(662.413 0.378795 0)
(661.396 0.655699 0)
(659.737 1.13642 0)
(657.039 1.97013 0)
(652.671 3.41855 0)
(645.654 5.92147 0)
(634.449 10.2733 0)
(617.889 17.6506 0)
(664 -3.95547e-15 0)
(664 -2.84037e-14 0)
(664 -4.21215e-14 0)
(664 -3.75792e-14 0)
(664 -4.15414e-14 0)
(664 -2.49806e-14 0)
(664 -1.46824e-14 0)
(664 -1.51782e-14 0)
(664 -3.90049e-14 0)
(664 -5.65561e-14 0)
(664 -8.5724e-14 0)
(664 -1.24737e-13 0)
(664 -1.56883e-13 0)
(664 -2.02965e-13 0)
(664 -2.86993e-13 0)
(664 -3.50657e-13 0)
(664 -4.02145e-13 0)
(664 -4.79572e-13 0)
(664 -5.4122e-13 0)
(664 -5.88432e-13 0)
(664 -6.30402e-13 0)
(664 -6.51972e-13 0)
(664 -6.52193e-13 0)
(664 -6.33955e-13 0)
(664 -6.12481e-13 0)
(664 -5.70614e-13 0)
(664 -5.31797e-13 0)
(664 -4.89577e-13 0)
(664 -4.29782e-13 0)
(664 -3.56319e-13 0)
(664 -2.76036e-13 0)
(664 -1.86521e-13 0)
(664 -1.09708e-13 0)
(664 -5.91657e-14 0)
(664 -9.60809e-16 0)
(664 2.58416e-14 0)
(664 2.01074e-14 0)
(664 -6.24418e-15 0)
(664 -5.43971e-14 0)
(664 -9.98457e-14 0)
(664 -1.19362e-13 0)
(664 -1.33601e-13 0)
(664 -1.38861e-13 0)
(664 -1.52654e-13 0)
(664 -1.62671e-13 0)
(664 -1.66897e-13 0)
(664 -1.78094e-13 0)
(664 -2.01153e-13 0)
(664 -2.14954e-13 0)
(664 -2.46752e-13 0)
(664 -2.93583e-13 0)
(664 -3.51242e-13 0)
(664 -4.18232e-13 0)
(664 -4.75535e-13 0)
(664 -5.20707e-13 0)
(664 -5.68857e-13 0)
(664 -5.94401e-13 0)
(664 -6.088e-13 0)
(664 -6.20633e-13 0)
(664 -6.22127e-13 0)
(664 -6.30934e-13 0)
(664 -6.65131e-13 0)
(664 -6.90924e-13 0)
(664 -7.01748e-13 0)
(664 -7.28606e-13 0)
(664 -7.5441e-13 0)
(664 -7.74531e-13 0)
(664 -7.92144e-13 0)
(664 -7.68108e-13 0)
(664 -7.53352e-13 0)
(664 -7.35357e-13 0)
(664 -7.46821e-13 0)
(664 -7.96518e-13 0)
(664 -8.49391e-13 0)
(664 -9.15237e-13 0)
(664 -9.74942e-13 0)
(664 -1.0116e-12 0)
(664 -1.02122e-12 0)
(664 -9.9945e-13 0)
(664 -9.73187e-13 0)
(664 -9.40254e-13 0)
(664 -9.04326e-13 0)
(664 -8.49082e-13 0)
(664 -7.6384e-13 0)
(664 -7.02126e-13 0)
(664 -6.5847e-13 0)
(664 -6.51257e-13 0)
(664 -6.63903e-13 0)
(664 -6.62805e-13 0)
(664 -6.77263e-13 0)
(664 -7.05051e-13 0)
(664 -7.46119e-13 0)
(664 -7.78592e-13 0)
(664 -8.11576e-13 0)
(664 -8.42982e-13 0)
(664 -8.58602e-13 0)
(664 -8.73232e-13 0)
(664 -8.70097e-13 0)
(664 -8.70678e-13 0)
(664 -8.78798e-13 0)
(664 -8.71847e-13 0)
(664 -8.56884e-13 0)
(664 -8.47013e-13 0)
(664 -8.13168e-13 0)
(664 -7.58758e-13 0)
(664 -6.99906e-13 0)
(664 -6.28934e-13 0)
(664 -5.52675e-13 0)
(664 -4.6565e-13 0)
(664 -3.90027e-13 0)
(664 -3.39903e-13 0)
(664 -3.06365e-13 0)
(664 -3.09736e-13 0)
(664 -3.27953e-13 0)
(664 -3.62245e-13 0)
(664 -3.85702e-13 0)
(664 -4.21922e-13 0)
(664 -4.48733e-13 0)
(664 -4.71943e-13 0)
(664 -5.10115e-13 0)
(664 -5.64519e-13 0)
(664 -6.31771e-13 0)
(664 -7.06508e-13 0)
(664 -8.09268e-13 0)
(664 -9.05107e-13 0)
(664 -9.7283e-13 0)
(664 -1.02695e-12 0)
(664 -1.06951e-12 0)
(664 -1.11876e-12 0)
(664 -1.17367e-12 0)
(664 -1.2102e-12 0)
(664 -1.25418e-12 0)
(664 -1.2872e-12 0)
(664 -1.30522e-12 0)
(664 -1.31175e-12 0)
(664 -1.32062e-12 0)
(664 -1.30029e-12 0)
(664 -1.26784e-12 0)
(664 -1.24216e-12 0)
(664 -1.17991e-12 0)
(664 -1.10909e-12 0)
(664 -1.02755e-12 0)
(664 -9.56926e-13 0)
(664 -9.09904e-13 0)
(664 -8.80042e-13 0)
(664 -8.45955e-13 0)
(664 -8.25582e-13 0)
(664 -7.84603e-13 0)
(664 -7.71156e-13 0)
(664 -7.78325e-13 0)
(664 -7.60719e-13 0)
(664 -7.4648e-13 0)
(664 -7.39375e-13 0)
(664 -7.43887e-13 0)
(664 -7.5577e-13 0)
(664 -7.60224e-13 0)
(664 -7.57779e-13 0)
(664 -7.65997e-13 0)
(664 -7.64482e-13 0)
(664 -7.53466e-13 0)
(664 -7.29849e-13 0)
(664 -7.28736e-13 0)
(664 -7.44583e-13 0)
(664 -7.6488e-13 0)
(664 -7.83457e-13 0)
(664 -7.53656e-13 0)
(664 -7.53682e-13 0)
(664 -7.61392e-13 0)
(664 -7.26904e-13 0)
(664 -7.0229e-13 0)
(664 -6.82356e-13 0)
(664 -6.44052e-13 0)
(664 -6.2216e-13 0)
(664 -6.01968e-13 0)
(664 -5.83668e-13 0)
(664 -5.97723e-13 0)
(664 -6.39686e-13 0)
(664 -6.86801e-13 0)
(664 -7.29858e-13 0)
(664 -7.47172e-13 0)
(664 -7.62801e-13 0)
(664 -7.72745e-13 0)
(664 -7.60268e-13 0)
(664 -7.46673e-13 0)
(664 -7.24558e-13 0)
(664 -6.92206e-13 0)
(664 -6.716e-13 0)
(664 -6.59943e-13 0)
(664 -6.55098e-13 0)
(664 -6.69071e-13 0)
(664 -6.60809e-13 0)
(664 -6.59124e-13 0)
(664 -6.77453e-13 0)
(664 -7.02077e-13 0)
(664 -7.32338e-13 0)
(664 -7.55347e-13 0)
(664 -7.93598e-13 0)
(664 -8.50961e-13 0)
(664 -9.0947e-13 0)
(664 -9.44996e-13 0)
(664 -9.83392e-13 0)
(664 -1.00411e-12 0)
(664 -1.0121e-12 0)
(664 -1.00108e-12 0)
(664 -1.00133e-12 0)
(664 -1.00775e-12 0)
(664 -9.77878e-13 0)
(664 -9.27469e-13 0)
(664 -8.54355e-13 0)
(664 -7.71894e-13 0)
(664 -7.02944e-13 0)
(664 -6.40151e-13 0)
(664 -5.71455e-13 0)
(664 -4.96939e-13 0)
(664 -4.07789e-13 0)
(664 -3.2345e-13 0)
(664 -2.6772e-13 0)
(664 -2.40537e-13 0)
(664 -2.40607e-13 0)
(664 -2.48822e-13 0)
(664 -2.38203e-13 0)
(664 -2.30534e-13 0)
(664 -2.57468e-13 0)
(664 -3.0334e-13 0)
(664 -3.61373e-13 0)
(664 -4.24574e-13 0)
(664 -4.91676e-13 0)
(664 -5.64519e-13 0)
(664 -6.28154e-13 0)
(664 -6.73442e-13 0)
(664 -7.04231e-13 0)
(664 -7.33312e-13 0)
(664 -7.61717e-13 0)
(664 -7.81159e-13 0)
(664 -7.51292e-13 0)
(664 -7.26314e-13 0)
(664 -6.67855e-13 0)
(664 -5.90834e-13 0)
(664 -4.91643e-13 0)
(664 -3.51353e-13 0)
(664 -1.4311e-13 0)
(664 2.1082e-13 0)
(664 7.89981e-13 0)
(664 1.80336e-12 0)
(664 3.56617e-12 0)
(664 6.5571e-12 0)
(664 1.16383e-11 0)
(664 2.02677e-11 0)
(664 3.49293e-11 0)
(664 5.97031e-11 0)
(664 1.01611e-10 0)
(664 1.72383e-10 0)
(664 2.91901e-10 0)
(664 4.93655e-10 0)
(664 8.34009e-10 0)
(664 1.40795e-09 0)
(664 2.37549e-09 0)
(664 4.00588e-09 0)
(664 6.75245e-09 0)
(664 1.13779e-08 0)
(664 1.91659e-08 0)
(664 3.22759e-08 0)
(664 5.43416e-08 0)
(664 9.1475e-08 0)
(664 1.53961e-07 0)
(664 2.59096e-07 0)
(664 4.35989e-07 0)
(664 7.33598e-07 0)
(664 1.23431e-06 0)
(664 2.0767e-06 0)
(664 3.494e-06 0)
(664 5.87852e-06 0)
(664 9.89058e-06 0)
(664 1.6641e-05 0)
(664 2.79993e-05 0)
(664 4.71109e-05 0)
(664 7.92694e-05 0)
(663.999 0.00013338 0)
(663.999 0.000224428 0)
(663.998 0.000377619 0)
(663.997 0.000635358 0)
(663.995 0.00106895 0)
(663.992 0.00179829 0)
(663.987 0.00302488 0)
(663.978 0.00508737 0)
(663.964 0.00855436 0)
(663.941 0.0143805 0)
(663.904 0.0241667 0)
(663.843 0.0405971 0)
(663.745 0.0681647 0)
(663.585 0.114386 0)
(663.325 0.191809 0)
(662.906 0.321355 0)
(662.228 0.537811 0)
(661.136 0.898832 0)
(659.388 1.49948 0)
(656.597 2.49483 0)
(652.177 4.13645 0)
(645.192 6.82475 0)
(634.901 11.185 0)
(664 2.3992e-15 0)
(664 2.22261e-14 0)
(664 2.7882e-14 0)
(664 3.17468e-14 0)
(664 4.99917e-14 0)
(664 7.35811e-14 0)
(664 1.08547e-13 0)
(664 1.69006e-13 0)
(664 2.41394e-13 0)
(664 3.10249e-13 0)
(664 3.60483e-13 0)
(664 3.88522e-13 0)
(664 3.94919e-13 0)
(664 3.95068e-13 0)
(664 4.06725e-13 0)
(664 4.12748e-13 0)
(664 4.11272e-13 0)
(664 3.68385e-13 0)
(664 2.76877e-13 0)
(664 1.61236e-13 0)
(664 4.3566e-14 0)
(664 -9.47538e-14 0)
(664 -2.26787e-13 0)
(664 -3.41523e-13 0)
(664 -4.43416e-13 0)
(664 -5.18514e-13 0)
(664 -5.95035e-13 0)
(664 -6.17313e-13 0)
(664 -6.11144e-13 0)
(664 -6.07838e-13 0)
(664 -5.9017e-13 0)
(664 -5.51423e-13 0)
(664 -5.20789e-13 0)
(664 -5.12814e-13 0)
(664 -5.0867e-13 0)
(664 -4.89694e-13 0)
(664 -4.73583e-13 0)
(664 -4.57295e-13 0)
(664 -4.3876e-13 0)
(664 -4.27057e-13 0)
(664 -3.96592e-13 0)
(664 -3.60267e-13 0)
(664 -3.15709e-13 0)
(664 -2.84552e-13 0)
(664 -2.71446e-13 0)
(664 -2.84538e-13 0)
(664 -3.19279e-13 0)
(664 -3.74504e-13 0)
(664 -4.11845e-13 0)
(664 -4.19886e-13 0)
(664 -4.01876e-13 0)
(664 -3.60908e-13 0)
(664 -3.32643e-13 0)
(664 -2.84279e-13 0)
(664 -2.47836e-13 0)
(664 -2.35998e-13 0)
(664 -2.35766e-13 0)
(664 -2.53097e-13 0)
(664 -2.98274e-13 0)
(664 -3.42139e-13 0)
(664 -3.81061e-13 0)
(664 -4.1607e-13 0)
(664 -4.40475e-13 0)
(664 -4.58638e-13 0)
(664 -4.69583e-13 0)
(664 -4.7361e-13 0)
(664 -4.65068e-13 0)
(664 -4.50048e-13 0)
(664 -4.56018e-13 0)
(664 -4.73597e-13 0)
(664 -5.03136e-13 0)
(664 -5.31014e-13 0)
(664 -5.47159e-13 0)
(664 -5.64416e-13 0)
(664 -5.83392e-13 0)
(664 -5.9129e-13 0)
(664 -5.68876e-13 0)
(664 -5.26947e-13 0)
(664 -5.00802e-13 0)
(664 -5.00682e-13 0)
(664 -5.08686e-13 0)
(664 -5.29936e-13 0)
(664 -5.56807e-13 0)
(664 -5.80953e-13 0)
(664 -5.92629e-13 0)
(664 -6.10697e-13 0)
(664 -6.42531e-13 0)
(664 -6.99316e-13 0)
(664 -7.80603e-13 0)
(664 -8.5077e-13 0)
(664 -9.06161e-13 0)
(664 -9.5377e-13 0)
(664 -9.89742e-13 0)
(664 -1.01302e-12 0)
(664 -1.04054e-12 0)
(664 -1.05712e-12 0)
(664 -1.04623e-12 0)
(664 -1.01775e-12 0)
(664 -1.00468e-12 0)
(664 -9.96365e-13 0)
(664 -9.66035e-13 0)
(664 -9.10446e-13 0)
(664 -8.48039e-13 0)
(664 -8.0371e-13 0)
(664 -7.82916e-13 0)
(664 -7.69608e-13 0)
(664 -7.72961e-13 0)
(664 -7.72668e-13 0)
(664 -7.75781e-13 0)
(664 -7.88475e-13 0)
(664 -7.98132e-13 0)
(664 -7.98305e-13 0)
(664 -8.2257e-13 0)
(664 -8.74628e-13 0)
(664 -9.11458e-13 0)
(664 -9.28889e-13 0)
(664 -9.42235e-13 0)
(664 -9.66208e-13 0)
(664 -9.88705e-13 0)
(664 -1.00782e-12 0)
(664 -1.00702e-12 0)
(664 -1.01309e-12 0)
(664 -1.02733e-12 0)
(664 -1.01878e-12 0)
(664 -9.92627e-13 0)
(664 -9.57082e-13 0)
(664 -9.1807e-13 0)
(664 -8.7822e-13 0)
(664 -8.38162e-13 0)
(664 -8.02516e-13 0)
(664 -7.75177e-13 0)
(664 -7.48123e-13 0)
(664 -7.33578e-13 0)
(664 -7.63101e-13 0)
(664 -8.0009e-13 0)
(664 -8.22094e-13 0)
(664 -8.60927e-13 0)
(664 -8.89727e-13 0)
(664 -9.13911e-13 0)
(664 -9.47878e-13 0)
(664 -9.80875e-13 0)
(664 -1.0036e-12 0)
(664 -1.00209e-12 0)
(664 -9.84373e-13 0)
(664 -9.36196e-13 0)
(664 -8.55749e-13 0)
(664 -7.77123e-13 0)
(664 -6.95995e-13 0)
(664 -6.01898e-13 0)
(664 -5.12926e-13 0)
(664 -4.50642e-13 0)
(664 -4.17243e-13 0)
(664 -4.09785e-13 0)
(664 -4.33662e-13 0)
(664 -4.68917e-13 0)
(664 -5.01322e-13 0)
(664 -5.42046e-13 0)
(664 -5.62561e-13 0)
(664 -5.667e-13 0)
(664 -5.72007e-13 0)
(664 -5.71503e-13 0)
(664 -5.56955e-13 0)
(664 -5.52522e-13 0)
(664 -5.7032e-13 0)
(664 -5.83512e-13 0)
(664 -6.01033e-13 0)
(664 -6.28212e-13 0)
(664 -6.56745e-13 0)
(664 -7.28702e-13 0)
(664 -8.06837e-13 0)
(664 -8.68954e-13 0)
(664 -9.37368e-13 0)
(664 -1.0015e-12 0)
(664 -1.04715e-12 0)
(664 -1.08575e-12 0)
(664 -1.10651e-12 0)
(664 -1.10181e-12 0)
(664 -1.0759e-12 0)
(664 -1.03578e-12 0)
(664 -9.83363e-13 0)
(664 -9.35109e-13 0)
(664 -8.90947e-13 0)
(664 -8.80134e-13 0)
(664 -8.95404e-13 0)
(664 -9.0027e-13 0)
(664 -9.07892e-13 0)
(664 -8.96928e-13 0)
(664 -8.70779e-13 0)
(664 -8.45071e-13 0)
(664 -8.02642e-13 0)
(664 -7.67383e-13 0)
(664 -7.32638e-13 0)
(664 -7.10182e-13 0)
(664 -7.03619e-13 0)
(664 -7.52085e-13 0)
(664 -8.03456e-13 0)
(664 -8.4465e-13 0)
(664 -8.9695e-13 0)
(664 -9.69665e-13 0)
(664 -1.02305e-12 0)
(664 -1.05134e-12 0)
(664 -1.08721e-12 0)
(664 -1.10877e-12 0)
(664 -1.11451e-12 0)
(664 -1.14e-12 0)
(664 -1.15273e-12 0)
(664 -1.15744e-12 0)
(664 -1.16297e-12 0)
(664 -1.15655e-12 0)
(664 -1.12499e-12 0)
(664 -1.09035e-12 0)
(664 -1.04531e-12 0)
(664 -9.83161e-13 0)
(664 -9.03723e-13 0)
(664 -8.27319e-13 0)
(664 -7.46956e-13 0)
(664 -6.87097e-13 0)
(664 -6.51199e-13 0)
(664 -6.1509e-13 0)
(664 -6.04393e-13 0)
(664 -6.19354e-13 0)
(664 -6.42167e-13 0)
(664 -6.57085e-13 0)
(664 -6.72527e-13 0)
(664 -7.06581e-13 0)
(664 -7.10463e-13 0)
(664 -6.88591e-13 0)
(664 -6.44582e-13 0)
(664 -6.01643e-13 0)
(664 -5.95375e-13 0)
(664 -5.99056e-13 0)
(664 -5.80555e-13 0)
(664 -5.68851e-13 0)
(664 -5.41171e-13 0)
(664 -5.08123e-13 0)
(664 -4.85186e-13 0)
(664 -4.55501e-13 0)
(664 -4.13334e-13 0)
(664 -3.23981e-13 0)
(664 -1.80552e-13 0)
(664 4.71271e-14 0)
(664 4.33616e-13 0)
(664 1.09436e-12 0)
(664 2.23353e-12 0)
(664 4.1932e-12 0)
(664 7.55824e-12 0)
(664 1.32261e-11 0)
(664 2.2817e-11 0)
(664 3.89992e-11 0)
(664 6.62995e-11 0)
(664 1.12344e-10 0)
(664 1.89911e-10 0)
(664 3.20417e-10 0)
(664 5.39898e-10 0)
(664 9.08763e-10 0)
(664 1.52821e-09 0)
(664 2.56785e-09 0)
(664 4.31163e-09 0)
(664 7.23496e-09 0)
(664 1.2133e-08 0)
(664 2.03361e-08 0)
(664 3.40675e-08 0)
(664 5.70439e-08 0)
(664 9.54734e-08 0)
(664 1.59727e-07 0)
(664 2.67116e-07 0)
(664 4.46545e-07 0)
(664 7.4623e-07 0)
(664 1.24663e-06 0)
(664 2.08186e-06 0)
(664 3.47561e-06 0)
(664 5.80053e-06 0)
(664 9.6776e-06 0)
(664 1.61407e-05 0)
(664 2.69114e-05 0)
(664 4.48537e-05 0)
(664 7.4732e-05 0)
(663.999 0.000124465 0)
(663.999 0.000207213 0)
(663.999 0.000344823 0)
(663.998 0.000573561 0)
(663.996 0.00095355 0)
(663.994 0.00158444 0)
(663.991 0.00263119 0)
(663.985 0.00436668 0)
(663.975 0.00724174 0)
(663.959 0.0120006 0)
(663.934 0.0198696 0)
(663.894 0.0328676 0)
(663.829 0.0543112 0)
(663.724 0.0896399 0)
(663.555 0.147753 0)
(663.285 0.243173 0)
(662.852 0.399527 0)
(662.161 0.655058 0)
(661.061 1.07142 0)
(659.318 1.74657 0)
(656.566 2.83619 0)
(652.21 4.58039 0)
(645.732 7.35348 0)
(664 2.82382e-14 0)
(664 3.91895e-14 0)
(664 6.18114e-14 0)
(664 6.86052e-14 0)
(664 5.59967e-14 0)
(664 1.3735e-14 0)
(664 -2.11091e-14 0)
(664 -3.90335e-14 0)
(664 -5.30281e-14 0)
(664 -8.11058e-14 0)
(664 -1.14728e-13 0)
(664 -1.38973e-13 0)
(664 -1.66373e-13 0)
(664 -1.9326e-13 0)
(664 -1.89143e-13 0)
(664 -1.70654e-13 0)
(664 -1.65758e-13 0)
(664 -1.30976e-13 0)
(664 -9.60871e-14 0)
(664 -6.33413e-14 0)
(664 -9.18877e-15 0)
(664 3.45116e-14 0)
(664 8.45366e-14 0)
(664 1.4093e-13 0)
(664 1.68931e-13 0)
(664 1.72551e-13 0)
(664 1.94519e-13 0)
(664 1.76537e-13 0)
(664 1.30354e-13 0)
(664 6.73504e-14 0)
(664 -1.81718e-14 0)
(664 -1.31648e-13 0)
(664 -2.48676e-13 0)
(664 -3.36203e-13 0)
(664 -4.04004e-13 0)
(664 -4.45382e-13 0)
(664 -4.65389e-13 0)
(664 -4.76377e-13 0)
(664 -4.73415e-13 0)
(664 -4.18509e-13 0)
(664 -3.63068e-13 0)
(664 -3.19943e-13 0)
(664 -3.32159e-13 0)
(664 -3.45835e-13 0)
(664 -3.74853e-13 0)
(664 -4.31711e-13 0)
(664 -4.67959e-13 0)
(664 -5.1441e-13 0)
(664 -5.80323e-13 0)
(664 -6.20485e-13 0)
(664 -6.40723e-13 0)
(664 -6.42529e-13 0)
(664 -6.32401e-13 0)
(664 -6.27512e-13 0)
(664 -6.22675e-13 0)
(664 -6.10367e-13 0)
(664 -6.13997e-13 0)
(664 -6.11162e-13 0)
(664 -6.1001e-13 0)
(664 -6.2536e-13 0)
(664 -6.43804e-13 0)
(664 -6.56997e-13 0)
(664 -6.80149e-13 0)
(664 -7.18366e-13 0)
(664 -7.36544e-13 0)
(664 -7.48197e-13 0)
(664 -7.79698e-13 0)
(664 -8.00241e-13 0)
(664 -7.92937e-13 0)
(664 -7.70889e-13 0)
(664 -7.53571e-13 0)
(664 -7.22585e-13 0)
(664 -6.74107e-13 0)
(664 -6.62995e-13 0)
(664 -6.58167e-13 0)
(664 -6.31162e-13 0)
(664 -6.15592e-13 0)
(664 -6.16592e-13 0)
(664 -6.48528e-13 0)
(664 -6.52102e-13 0)
(664 -6.67117e-13 0)
(664 -7.08926e-13 0)
(664 -7.61824e-13 0)
(664 -8.19328e-13 0)
(664 -8.81387e-13 0)
(664 -9.30415e-13 0)
(664 -9.62201e-13 0)
(664 -9.76893e-13 0)
(664 -9.95931e-13 0)
(664 -9.98714e-13 0)
(664 -9.98048e-13 0)
(664 -9.72991e-13 0)
(664 -9.2191e-13 0)
(664 -8.81064e-13 0)
(664 -8.36314e-13 0)
(664 -8.00295e-13 0)
(664 -7.66314e-13 0)
(664 -7.42212e-13 0)
(664 -7.01964e-13 0)
(664 -6.59369e-13 0)
(664 -6.40524e-13 0)
(664 -6.22657e-13 0)
(664 -6.35157e-13 0)
(664 -6.55642e-13 0)
(664 -6.8551e-13 0)
(664 -7.25638e-13 0)
(664 -7.72097e-13 0)
(664 -8.28652e-13 0)
(664 -9.0647e-13 0)
(664 -9.7702e-13 0)
(664 -1.01062e-12 0)
(664 -1.04496e-12 0)
(664 -1.04517e-12 0)
(664 -1.0289e-12 0)
(664 -1.03189e-12 0)
(664 -1.04362e-12 0)
(664 -1.03351e-12 0)
(664 -1.01759e-12 0)
(664 -9.97282e-13 0)
(664 -9.68278e-13 0)
(664 -9.55449e-13 0)
(664 -9.14405e-13 0)
(664 -8.65278e-13 0)
(664 -8.08603e-13 0)
(664 -7.59272e-13 0)
(664 -7.42766e-13 0)
(664 -7.23127e-13 0)
(664 -7.05123e-13 0)
(664 -7.07029e-13 0)
(664 -6.8907e-13 0)
(664 -6.77776e-13 0)
(664 -6.962e-13 0)
(664 -7.02723e-13 0)
(664 -7.01354e-13 0)
(664 -7.05369e-13 0)
(664 -6.94028e-13 0)
(664 -6.90071e-13 0)
(664 -7.08945e-13 0)
(664 -7.29396e-13 0)
(664 -7.55589e-13 0)
(664 -7.6995e-13 0)
(664 -7.60026e-13 0)
(664 -7.49794e-13 0)
(664 -7.20167e-13 0)
(664 -6.68976e-13 0)
(664 -6.22336e-13 0)
(664 -5.69913e-13 0)
(664 -5.29435e-13 0)
(664 -4.99467e-13 0)
(664 -4.76246e-13 0)
(664 -4.50276e-13 0)
(664 -4.26602e-13 0)
(664 -4.11139e-13 0)
(664 -3.94736e-13 0)
(664 -3.84725e-13 0)
(664 -3.97043e-13 0)
(664 -4.18916e-13 0)
(664 -4.22876e-13 0)
(664 -4.39967e-13 0)
(664 -4.67113e-13 0)
(664 -4.85766e-13 0)
(664 -4.82286e-13 0)
(664 -4.3297e-13 0)
(664 -3.7306e-13 0)
(664 -2.86225e-13 0)
(664 -2.3063e-13 0)
(664 -2.04875e-13 0)
(664 -1.89125e-13 0)
(664 -1.98503e-13 0)
(664 -2.20221e-13 0)
(664 -2.53598e-13 0)
(664 -2.85226e-13 0)
(664 -3.06376e-13 0)
(664 -3.35419e-13 0)
(664 -3.55941e-13 0)
(664 -3.85971e-13 0)
(664 -3.94482e-13 0)
(664 -3.93619e-13 0)
(664 -3.95023e-13 0)
(664 -4.04734e-13 0)
(664 -4.32579e-13 0)
(664 -4.79664e-13 0)
(664 -5.33206e-13 0)
(664 -5.73059e-13 0)
(664 -6.21401e-13 0)
(664 -6.72515e-13 0)
(664 -7.26235e-13 0)
(664 -7.69545e-13 0)
(664 -7.91199e-13 0)
(664 -8.02575e-13 0)
(664 -8.14417e-13 0)
(664 -8.25287e-13 0)
(664 -8.13043e-13 0)
(664 -7.95771e-13 0)
(664 -7.88178e-13 0)
(664 -7.92589e-13 0)
(664 -8.0087e-13 0)