/*--------------------------------*- C++ -*----------------------------------*\
| =========                 |                                                 |
| \\      /  F ield         | OpenFOAM: The Open Source CFD Toolbox           |
|  \\    /   O peration     | Version:  2412                                  |
|   \\  /    A nd           | Website:  www.openfoam.com                      |
|    \\/     M anipulation  |                                                 |
\*---------------------------------------------------------------------------*/
FoamFile
{
    version     2.0;
    format      ascii;
    arch        "LSB;label=32;scalar=64";
    class       volVectorField;
    location    "0.0005";
    object      U_0;
}
// * * * * * * * * * * * * * * * * * * * * * * * * * * * * * * * * * * * * * //

dimensions      [0 1 -1 0 0 0 0];

internalField   nonuniform List<vector> 
180000
(
(664 8.9165e-15 0)
(664 9.33596e-15 0)
(664 -5.56041e-15 0)
(664 -2.71307e-14 0)
(664 1.20818e-14 0)
(664 2.47991e-14 0)
(664 -2.13669e-14 0)
(664 -4.27724e-14 0)
(664 -2.06545e-14 0)
(664 -1.02398e-13 0)
(664 -2.17542e-13 0)
(664 -2.70559e-13 0)
(664 -3.20913e-13 0)
(664 -3.84246e-13 0)
(664 -5.02317e-13 0)
(664 -6.65241e-13 0)
(664 -8.14692e-13 0)
(664 -8.69729e-13 0)
(664 -8.50583e-13 0)
(664 -7.98196e-13 0)
(664 -7.04163e-13 0)
(664 -6.66927e-13 0)
(664 -6.61582e-13 0)
(664 -6.63623e-13 0)
(664 -6.71685e-13 0)
(664 -6.99276e-13 0)
(664 -6.62336e-13 0)
(664 -6.10546e-13 0)
(664 -6.32193e-13 0)
(664 -6.51581e-13 0)
(664 -6.13238e-13 0)
(664 -5.26047e-13 0)
(664 -4.40268e-13 0)
(664 -4.42622e-13 0)
(664 -4.2571e-13 0)
(664 -3.94793e-13 0)
(664 -3.88394e-13 0)
(664 -3.95378e-13 0)
(664 -3.97022e-13 0)
(664 -3.88647e-13 0)
(664 -3.03212e-13 0)
(664 -1.82077e-13 0)
(664 4.00549e-14 0)
(664 3.47299e-13 0)
(664 6.12637e-13 0)
(664 6.77922e-13 0)
(664 6.31948e-13 0)
(664 6.30555e-13 0)
(664 6.938e-13 0)
(664 7.52527e-13 0)
(664 7.84142e-13 0)
(664 7.99301e-13 0)
(664 6.60526e-13 0)
(664 4.52262e-13 0)
(664 3.4642e-13 0)
(664 3.09334e-13 0)
(664 2.46675e-13 0)
(664 1.11095e-13 0)
(664 -1.14096e-13 0)
(664 -3.41897e-13 0)
(664 -5.14814e-13 0)
(664 -6.25787e-13 0)
(664 -7.4699e-13 0)
(664 -8.24034e-13 0)
(664 -7.7303e-13 0)
(664 -7.44074e-13 0)
(664 -7.66107e-13 0)
(664 -7.85172e-13 0)
(664 -6.65784e-13 0)
(664 -4.1567e-13 0)
(664 -2.59068e-13 0)
(664 -2.33777e-13 0)
(664 -2.52606e-13 0)
(664 -2.91717e-13 0)
(664 -3.68722e-13 0)
(664 -4.11421e-13 0)
(664 -4.66525e-13 0)
(664 -6.20924e-13 0)
(664 -7.83613e-13 0)
(664 -8.55086e-13 0)
(664 -8.00222e-13 0)
(664 -6.88116e-13 0)
(664 -6.12804e-13 0)
(664 -5.93453e-13 0)
(664 -6.66944e-13 0)
(664 -7.47605e-13 0)
(664 -7.4014e-13 0)
(664 -6.15007e-13 0)
(664 -4.85271e-13 0)
(664 -4.18049e-13 0)
(664 -3.94067e-13 0)
(664 -3.21616e-13 0)
(664 -2.38422e-13 0)
(664 -1.65049e-13 0)
(664 -1.38582e-13 0)
(664 -1.19072e-13 0)
(664 -8.62462e-14 0)
(664 3.97119e-14 0)
(664 1.70347e-13 0)
(664 2.8461e-13 0)
(664 3.73774e-13 0)
(664 4.41103e-13 0)
(664 4.56967e-13 0)
(664 5.42245e-13 0)
(664 6.02701e-13 0)
(664 5.66676e-13 0)
(664 4.92988e-13 0)
(664 4.56216e-13 0)
(664 5.24533e-13 0)
(664 5.45729e-13 0)
(664 3.91241e-13 0)
(664 2.04451e-13 0)
(664 1.46171e-13 0)
(664 2.10454e-13 0)
(664 2.35634e-13 0)
(664 1.59655e-13 0)
(664 7.44661e-14 0)
(664 2.8791e-14 0)
(664 3.0378e-15 0)
(664 -5.05478e-14 0)
(664 -2.02869e-13 0)
(664 -3.18782e-13 0)
(664 -3.27427e-13 0)
(664 -3.08429e-13 0)
(664 -3.73783e-13 0)
(664 -4.3974e-13 0)
(664 -4.16303e-13 0)
(664 -3.11738e-13 0)
(664 -2.66357e-13 0)
(664 -3.4743e-13 0)
(664 -3.55425e-13 0)
(664 -2.64913e-13 0)
(664 -1.49728e-13 0)
(664 -3.26872e-14 0)
(664 1.00807e-13 0)
(664 2.08508e-13 0)
(664 2.1487e-13 0)
(664 1.33638e-13 0)
(664 7.50903e-14 0)
(664 1.42115e-13 0)
(664 2.58485e-13 0)
(664 3.06949e-13 0)
(664 2.46753e-13 0)
(664 1.69559e-13 0)
(664 2.49423e-13 0)
(664 3.78178e-13 0)
(664 3.54153e-13 0)
(664 2.60351e-13 0)
(664 1.68358e-13 0)
(664 1.04355e-13 0)
(664 9.79847e-14 0)
(664 1.81872e-13 0)
(664 2.08209e-13 0)
(664 1.93286e-13 0)
(664 1.7547e-13 0)
(664 1.57161e-13 0)
(664 1.65805e-13 0)
(664 1.51401e-13 0)
(664 1.91703e-13 0)
(664 3.0583e-13 0)
(664 4.88097e-13 0)
(664 6.34884e-13 0)
(664 6.68656e-13 0)
(664 5.14198e-13 0)
(664 2.25115e-13 0)
(664 -7.97875e-15 0)
(664 -4.44577e-14 0)
(664 -8.49478e-14 0)
(664 -2.69312e-13 0)
(664 -4.20506e-13 0)
(664 -4.18136e-13 0)
(664 -2.86971e-13 0)
(664 -1.46242e-13 0)
(664 -9.26018e-14 0)
(664 -1.0712e-13 0)
(664 -4.85614e-14 0)
(664 4.08061e-14 0)
(664 1.26949e-13 0)
(664 2.00167e-13 0)
(664 2.17056e-13 0)
(664 2.02872e-13 0)
(664 1.94023e-13 0)
(664 2.38394e-13 0)
(664 3.18417e-13 0)
(664 3.17032e-13 0)
(664 2.97383e-13 0)
(664 3.20421e-13 0)
(664 4.49043e-13 0)
(664 5.16442e-13 0)
(664 4.7016e-13 0)
(664 3.09162e-13 0)
(664 2.27024e-13 0)
(664 1.81223e-13 0)
(664 1.28798e-13 0)
(664 1.14851e-13 0)
(664 1.15578e-13 0)
(664 8.78658e-14 0)
(664 5.93691e-14 0)
(664 1.81908e-15 0)
(664 -6.21929e-14 0)
(664 -1.25767e-13 0)
(664 -2.19264e-13 0)
(664 -3.83054e-13 0)
(664 -5.81473e-13 0)
(664 -7.17144e-13 0)
(664 -8.26931e-13 0)
(664 -9.03669e-13 0)
(664 -8.93397e-13 0)
(664 -7.25819e-13 0)
(664 -4.5945e-13 0)
(664 -2.43991e-13 0)
(664 -1.00509e-13 0)
(664 1.02861e-13 0)
(664 3.0998e-13 0)
(664 4.79108e-13 0)
(664 6.39082e-13 0)
(664 6.71536e-13 0)
(664 6.03761e-13 0)
(664 4.46366e-13 0)
(664 2.21037e-13 0)
(664 2.39115e-14 0)
(664 -1.35436e-13 0)
(664 -2.56096e-13 0)
(664 -2.98328e-13 0)
(664 -2.32505e-13 0)
(664 -1.16983e-13 0)
(664 -1.01821e-13 0)
(664 -1.49008e-13 0)
(664 -1.58989e-13 0)
(664 -7.15855e-14 0)
(664 8.59e-17 0)
(664 -4.74527e-14 0)
(664 -9.50538e-14 0)
(664 -1.15402e-13 0)
(664 -1.39941e-13 0)
(664 -1.43371e-13 0)
(664 -5.91829e-14 0)
(664 5.28093e-14 0)
(664 1.70008e-13 0)
(664 2.92883e-13 0)
(664 4.04448e-13 0)
(664 4.86374e-13 0)
(664 5.03674e-13 0)
(664 4.95922e-13 0)
(664 5.04346e-13 0)
(664 5.10642e-13 0)
(664 4.20598e-13 0)
(664 2.90184e-13 0)
(664 4.03291e-13 0)
(664 8.33062e-13 0)
(664 1.77569e-12 0)
(664 3.6535e-12 0)
(664 7.3861e-12 0)
(664 1.43132e-11 0)
(664 2.73151e-11 0)
(664 5.1972e-11 0)
(664 9.8846e-11 0)
(664 1.87558e-10 0)
(664 3.54991e-10 0)
(664 6.69429e-10 0)
(664 1.25869e-09 0)
(664 2.35796e-09 0)
(664 4.40141e-09 0)
(664 8.1879e-09 0)
(664 1.51862e-08 0)
(664 2.80547e-08 0)
(664 5.16558e-08 0)
(664 9.48442e-08 0)
(664 1.73593e-07 0)
(664 3.16559e-07 0)
(664 5.7582e-07 0)
(664 1.04482e-06 0)
(664 1.88983e-06 0)
(664 3.40844e-06 0)
(664 6.13616e-06 0)
(664 1.10206e-05 0)
(664 1.97401e-05 0)
(663.999 3.52921e-05 0)
(663.999 6.30064e-05 0)
(663.998 0.000112253 0)
(663.997 0.000199636 0)
(663.995 0.000354659 0)
(663.991 0.000629387 0)
(663.985 0.00111543 0)
(663.974 0.00197516 0)
(663.956 0.00349592 0)
(663.925 0.00618447 0)
(663.872 0.0109357 0)
(663.782 0.0193363 0)
(663.628 0.0341943 0)
(663.367 0.0604838 0)
(662.925 0.107023 0)
(662.175 0.18951 0)
(660.904 0.335809 0)
(658.753 0.595829 0)
(655.111 1.05806 0)
(648.962 1.88366 0)
(638.577 3.35395 0)
(621.302 6.00253 0)
(593.278 10.6831 0)
(664 -3.97593e-15 0)
(664 9.82403e-15 0)
(664 1.36794e-14 0)
(664 3.41789e-14 0)
(664 5.3269e-14 0)
(664 5.25504e-14 0)
(664 -2.24784e-15 0)
(664 -6.23402e-14 0)
(664 -3.76833e-14 0)
(664 -2.02088e-14 0)
(664 -2.00337e-14 0)
(664 -2.87716e-15 0)
(664 -1.62075e-14 0)
(664 -8.06002e-14 0)
(664 -2.64667e-13 0)
(664 -5.33977e-13 0)
(664 -7.7806e-13 0)
(664 -8.92065e-13 0)
(664 -8.70467e-13 0)
(664 -7.88993e-13 0)
(664 -7.39599e-13 0)
(664 -7.31262e-13 0)
(664 -7.82492e-13 0)
(664 -8.0617e-13 0)
(664 -7.92542e-13 0)
(664 -8.33373e-13 0)
(664 -9.08956e-13 0)
(664 -9.39123e-13 0)
(664 -9.55475e-13 0)
(664 -9.52388e-13 0)
(664 -8.62041e-13 0)
(664 -6.97176e-13 0)
(664 -5.75825e-13 0)
(664 -5.37827e-13 0)
(664 -5.16186e-13 0)
(664 -4.49117e-13 0)
(664 -4.11054e-13 0)
(664 -4.11269e-13 0)
(664 -3.74359e-13 0)
(664 -2.06855e-13 0)
(664 4.98087e-14 0)
(664 3.11217e-13 0)
(664 5.64809e-13 0)
(664 7.61708e-13 0)
(664 7.65353e-13 0)
(664 4.69803e-13 0)
(664 1.56137e-13 0)
(664 -6.77023e-14 0)
(664 -1.8197e-13 0)
(664 -2.24614e-13 0)
(664 -1.39566e-13 0)
(664 9.76249e-14 0)
(664 3.37227e-13 0)
(664 4.19268e-13 0)
(664 4.12056e-13 0)
(664 3.53713e-13 0)
(664 2.42995e-13 0)
(664 1.17304e-13 0)
(664 -4.03299e-14 0)
(664 -2.28148e-13 0)
(664 -3.37226e-13 0)
(664 -3.90083e-13 0)
(664 -5.63001e-13 0)
(664 -8.33643e-13 0)
(664 -1.04481e-12 0)
(664 -1.19867e-12 0)
(664 -1.23682e-12 0)
(664 -1.17472e-12 0)
(664 -1.05938e-12 0)
(664 -8.91122e-13 0)
(664 -7.19258e-13 0)
(664 -5.64294e-13 0)
(664 -4.09211e-13 0)
(664 -2.16295e-13 0)
(664 -1.32239e-13 0)
(664 -1.39148e-13 0)
(664 -1.65402e-13 0)
(664 -2.38648e-13 0)
(664 -3.14257e-13 0)
(664 -3.50702e-13 0)
(664 -3.75368e-13 0)
(664 -3.91242e-13 0)
(664 -3.57106e-13 0)
(664 -2.90744e-13 0)
(664 -2.07014e-13 0)
(664 -9.67568e-14 0)
(664 -9.79545e-15 0)
(664 5.79359e-14 0)
(664 1.13768e-13 0)
(664 5.23341e-14 0)
(664 -7.0175e-14 0)
(664 -2.02398e-13 0)
(664 -2.68161e-13 0)
(664 -2.16785e-13 0)
(664 -2.32262e-13 0)
(664 -3.93423e-13 0)
(664 -4.99566e-13 0)
(664 -4.57828e-13 0)
(664 -3.74605e-13 0)
(664 -3.32689e-13 0)
(664 -3.61749e-13 0)
(664 -4.96884e-13 0)
(664 -6.54351e-13 0)
(664 -6.71045e-13 0)
(664 -5.97322e-13 0)
(664 -5.3053e-13 0)
(664 -4.7792e-13 0)
(664 -3.91091e-13 0)
(664 -1.67379e-13 0)
(664 2.61371e-14 0)
(664 2.04662e-14 0)
(664 -7.80354e-14 0)
(664 -1.37256e-13 0)
(664 -1.24676e-13 0)
(664 -1.31222e-13 0)
(664 -1.36028e-13 0)
(664 -1.4429e-13 0)
(664 -1.60662e-13 0)
(664 -1.90094e-13 0)
(664 -2.05655e-13 0)
(664 -2.17464e-13 0)
(664 -1.72133e-13 0)
(664 -6.31664e-14 0)
(664 1.2798e-13 0)
(664 3.03317e-13 0)
(664 3.74537e-13 0)
(664 3.55394e-13 0)
(664 3.71576e-13 0)
(664 4.07452e-13 0)
(664 4.37917e-13 0)
(664 4.20124e-13 0)
(664 3.49722e-13 0)
(664 3.20818e-13 0)
(664 3.36704e-13 0)
(664 2.74805e-13 0)
(664 1.97451e-13 0)
(664 1.95475e-13 0)
(664 3.38447e-13 0)
(664 5.42667e-13 0)
(664 7.27223e-13 0)
(664 7.74201e-13 0)
(664 6.45617e-13 0)
(664 4.20703e-13 0)
(664 2.61532e-13 0)
(664 2.36303e-13 0)
(664 2.95776e-13 0)
(664 2.55798e-13 0)
(664 8.93867e-14 0)
(664 -2.62656e-14 0)
(664 -8.63967e-14 0)
(664 -1.41783e-13 0)
(664 -1.59653e-13 0)
(664 -1.86036e-13 0)
(664 -2.08816e-13 0)
(664 -1.5104e-13 0)
(664 -1.42273e-13 0)
(664 -1.99934e-13 0)
(664 -1.73469e-13 0)
(664 -6.90751e-14 0)
(664 4.95772e-15 0)
(664 5.67123e-15 0)
(664 8.61982e-14 0)
(664 1.6777e-13 0)
(664 1.54191e-13 0)
(664 6.9624e-14 0)
(664 5.93176e-14 0)
(664 1.22519e-13 0)
(664 1.09316e-13 0)
(664 -3.7493e-14 0)
(664 -1.99614e-13 0)
(664 -2.17073e-13 0)
(664 -1.8456e-13 0)
(664 -1.18224e-13 0)
(664 -3.6225e-14 0)
(664 5.16803e-14 0)
(664 1.44392e-13 0)
(664 2.8473e-13 0)
(664 4.40708e-13 0)
(664 4.68887e-13 0)
(664 3.36838e-13 0)
(664 1.7446e-13 0)
(664 5.20688e-14 0)
(664 4.37297e-14 0)
(664 5.54914e-14 0)
(664 8.60856e-14 0)
(664 1.29573e-13 0)
(664 1.13142e-13 0)
(664 7.72651e-14 0)
(664 2.82519e-14 0)
(664 -7.15607e-14 0)
(664 -1.72934e-13 0)
(664 -2.02796e-13 0)
(664 -1.70382e-13 0)
(664 -7.94367e-14 0)
(664 1.7499e-14 0)
(664 1.34997e-13 0)
(664 1.90265e-13 0)
(664 2.30765e-13 0)
(664 2.77882e-13 0)
(664 3.00034e-13 0)
(664 2.44229e-13 0)
(664 2.00206e-13 0)
(664 8.52423e-14 0)
(664 -1.05532e-13 0)
(664 -2.806e-13 0)
(664 -4.57602e-13 0)
(664 -5.51507e-13 0)
(664 -5.18856e-13 0)
(664 -4.49886e-13 0)
(664 -3.11938e-13 0)
(664 -2.10704e-13 0)
(664 -1.85962e-13 0)
(664 -1.2098e-13 0)
(664 -3.61686e-15 0)
(664 1.05749e-13 0)
(664 2.53985e-13 0)
(664 3.88599e-13 0)
(664 4.76299e-13 0)
(664 4.7477e-13 0)
(664 4.68155e-13 0)
(664 4.97336e-13 0)
(664 5.6088e-13 0)
(664 6.12463e-13 0)
(664 5.16799e-13 0)
(664 3.52019e-13 0)
(664 2.29314e-13 0)
(664 1.22201e-13 0)
(664 5.04921e-14 0)
(664 3.95602e-14 0)
(664 1.19599e-13 0)
(664 2.17459e-13 0)
(664 2.85682e-13 0)
(664 3.63535e-13 0)
(664 4.60233e-13 0)
(664 4.11201e-13 0)
(664 2.13102e-13 0)
(664 1.2056e-13 0)
(664 1.47597e-13 0)
(664 2.20775e-13 0)
(664 3.30632e-13 0)
(664 4.32314e-13 0)
(664 5.32979e-13 0)
(664 5.17597e-13 0)
(664 3.94732e-13 0)
(664 2.57231e-13 0)
(664 1.81899e-13 0)
(664 2.24401e-13 0)
(664 5.42115e-13 0)
(664 1.18323e-12 0)
(664 2.38552e-12 0)
(664 4.73405e-12 0)
(664 9.18611e-12 0)
(664 1.77132e-11 0)
(664 3.40733e-11 0)
(664 6.53929e-11 0)
(664 1.25138e-10 0)
(664 2.38684e-10 0)
(664 4.53335e-10 0)
(664 8.57977e-10 0)
(664 1.61666e-09 0)
(664 3.03521e-09 0)
(664 5.67509e-09 0)
(664 1.05716e-08 0)
(664 1.96163e-08 0)
(664 3.6277e-08 0)
(664 6.6824e-08 0)
(664 1.22665e-07 0)
(664 2.24404e-07 0)
(664 4.09181e-07 0)
(664 7.43372e-07 0)
(664 1.34643e-06 0)
(664 2.4313e-06 0)
(664 4.37645e-06 0)
(664 7.85297e-06 0)
(664 1.40551e-05 0)
(664 2.50859e-05 0)
(664 4.46483e-05 0)
(664 7.92661e-05 0)
(663.999 0.00014042 0)
(663.999 0.000248153 0)
(663.998 0.000437566 0)
(663.996 0.000770086 0)
(663.993 0.0013529 0)
(663.989 0.00237239 0)
(663.98 0.0041536 0)
(663.967 0.00726237 0)
(663.944 0.0126819 0)
(663.905 0.0221194 0)
(663.84 0.0385441 0)
(663.732 0.0671116 0)
(663.551 0.116776 0)
(663.25 0.203077 0)
(662.751 0.353045 0)
(661.928 0.613558 0)
(660.572 1.06627 0)
(658.352 1.85227 0)
(654.733 3.21842 0)
(648.905 5.58287 0)
(639.592 9.6821 0)
(625.73 16.6411 0)
(664 -1.47566e-14 0)
(664 -3.6009e-14 0)
(664 -4.97571e-14 0)
(664 -5.86076e-14 0)
(664 -6.08031e-14 0)
(664 -3.55723e-14 0)
(664 3.72443e-14 0)
(664 8.20369e-14 0)
(664 6.14577e-14 0)
(664 1.0819e-13 0)
(664 1.89953e-13 0)
(664 2.40306e-13 0)
(664 2.7625e-13 0)
(664 2.6601e-13 0)
(664 2.52713e-13 0)
(664 2.17584e-13 0)
(664 1.39133e-13 0)
(664 5.00062e-14 0)
(664 -5.54278e-14 0)
(664 -2.14389e-13 0)
(664 -4.14074e-13 0)
(664 -5.93108e-13 0)
(664 -6.55952e-13 0)
(664 -6.49737e-13 0)
(664 -6.09554e-13 0)
(664 -5.39833e-13 0)
(664 -5.42911e-13 0)
(664 -5.56807e-13 0)
(664 -5.56649e-13 0)
(664 -5.78177e-13 0)
(664 -6.57803e-13 0)
(664 -7.96975e-13 0)
(664 -8.77872e-13 0)
(664 -8.70814e-13 0)
(664 -8.27957e-13 0)
(664 -7.45741e-13 0)
(664 -6.58043e-13 0)
(664 -5.38387e-13 0)
(664 -4.54614e-13 0)
(664 -4.17727e-13 0)
(664 -3.53646e-13 0)
(664 -3.07895e-13 0)
(664 -3.4247e-13 0)
(664 -3.43151e-13 0)
(664 -2.81013e-13 0)
(664 -1.90318e-13 0)
(664 -8.91687e-14 0)
(664 -4.93192e-14 0)
(664 -1.21186e-13 0)
(664 -2.78323e-13 0)
(664 -4.10194e-13 0)
(664 -4.0349e-13 0)
(664 -2.44492e-13 0)
(664 -9.2913e-14 0)
(664 -6.67766e-14 0)
(664 1.88295e-15 0)
(664 1.07802e-13 0)
(664 2.17858e-13 0)
(664 4.05173e-13 0)
(664 5.98467e-13 0)
(664 7.54529e-13 0)
(664 8.14077e-13 0)
(664 7.37869e-13 0)
(664 5.73951e-13 0)
(664 3.151e-13 0)
(664 9.55111e-14 0)
(664 -7.84097e-14 0)
(664 -2.5125e-13 0)
(664 -5.24672e-13 0)
(664 -7.69089e-13 0)
(664 -8.19051e-13 0)
(664 -7.20586e-13 0)
(664 -6.85609e-13 0)
(664 -6.12943e-13 0)
(664 -5.32835e-13 0)
(664 -4.70285e-13 0)
(664 -4.41386e-13 0)
(664 -3.56077e-13 0)
(664 -2.4534e-13 0)
(664 -1.63026e-13 0)
(664 -1.31065e-13 0)
(664 -1.45436e-13 0)
(664 -1.21461e-13 0)
(664 -7.92455e-14 0)
(664 5.1398e-14 0)
(664 1.94608e-13 0)
(664 3.04882e-13 0)
(664 2.9503e-13 0)
(664 2.30124e-13 0)
(664 1.73313e-13 0)
(664 1.54444e-13 0)
(664 9.70296e-14 0)
(664 6.15396e-14 0)
(664 1.45678e-14 0)
(664 -9.82837e-14 0)
(664 -3.25738e-13 0)
(664 -5.40098e-13 0)
(664 -6.9962e-13 0)
(664 -7.85293e-13 0)
(664 -8.09562e-13 0)
(664 -8.35427e-13 0)
(664 -9.26587e-13 0)
(664 -1.02493e-12 0)
(664 -1.06736e-12 0)
(664 -1.01019e-12 0)
(664 -9.47139e-13 0)
(664 -8.56205e-13 0)
(664 -7.4763e-13 0)
(664 -6.80019e-13 0)
(664 -6.03309e-13 0)
(664 -4.89577e-13 0)
(664 -2.86772e-13 0)
(664 -9.58278e-14 0)
(664 -4.62459e-14 0)
(664 1.70176e-14 0)
(664 1.48083e-13 0)
(664 2.08798e-13 0)
(664 1.52518e-13 0)
(664 1.98775e-14 0)
(664 -1.1626e-13 0)
(664 -2.13624e-13 0)
(664 -2.69977e-13 0)
(664 -3.28804e-13 0)
(664 -3.55618e-13 0)
(664 -3.39882e-13 0)
(664 -2.60758e-13 0)
(664 -1.06542e-13 0)
(664 1.4269e-14 0)
(664 1.28358e-13 0)
(664 2.12197e-13 0)
(664 2.35541e-13 0)
(664 2.27628e-13 0)
(664 2.37824e-13 0)
(664 2.30989e-13 0)
(664 3.08951e-13 0)
(664 3.65253e-13 0)
(664 3.8525e-13 0)
(664 4.38575e-13 0)
(664 4.66258e-13 0)
(664 3.59241e-13 0)
(664 1.89227e-13 0)
(664 7.00946e-14 0)
(664 7.79295e-14 0)
(664 1.42721e-13 0)
(664 1.69928e-13 0)
(664 2.27868e-13 0)
(664 3.02474e-13 0)
(664 3.42062e-13 0)
(664 3.52165e-13 0)
(664 4.26412e-13 0)
(664 5.07052e-13 0)
(664 4.3633e-13 0)
(664 3.55451e-13 0)
(664 3.31894e-13 0)
(664 2.54656e-13 0)
(664 1.99539e-13 0)
(664 1.59588e-13 0)
(664 1.02373e-13 0)
(664 4.40336e-14 0)
(664 -2.23334e-14 0)
(664 -2.11973e-13 0)
(664 -4.2112e-13 0)
(664 -5.41269e-13 0)
(664 -5.16043e-13 0)
(664 -4.38271e-13 0)
(664 -3.96896e-13 0)
(664 -3.45061e-13 0)
(664 -2.12724e-13 0)
(664 -2.85714e-14 0)
(664 9.62507e-14 0)
(664 5.50651e-14 0)
(664 -2.38909e-14 0)
(664 -4.25106e-14 0)
(664 -6.11426e-14 0)
(664 -8.49717e-14 0)
(664 -7.52686e-14 0)
(664 -1.48577e-14 0)
(664 1.08281e-13 0)
(664 2.13174e-13 0)
(664 2.43681e-13 0)
(664 2.1465e-13 0)
(664 2.17285e-13 0)
(664 1.95692e-13 0)
(664 2.17417e-13 0)
(664 3.01904e-13 0)
(664 3.68595e-13 0)
(664 3.57711e-13 0)
(664 2.91505e-13 0)
(664 1.98753e-13 0)
(664 1.11705e-13 0)
(664 4.99563e-14 0)
(664 -1.04928e-14 0)
(664 -6.1661e-14 0)
(664 -8.75086e-14 0)
(664 -1.14868e-13 0)
(664 -1.02812e-13 0)
(664 -6.90325e-14 0)
(664 -5.2824e-14 0)
(664 -2.23012e-14 0)
(664 -1.01125e-15 0)
(664 -3.57274e-14 0)
(664 -9.56395e-14 0)
(664 -2.674e-14 0)
(664 9.25883e-14 0)
(664 1.18319e-13 0)
(664 1.00474e-13 0)
(664 6.87181e-14 0)
(664 1.72775e-14 0)
(664 -4.96658e-14 0)
(664 -8.05175e-14 0)
(664 -4.99031e-14 0)
(664 -4.53191e-15 0)
(664 -6.95504e-14 0)
(664 -2.02566e-13 0)
(664 -2.88382e-13 0)
(664 -3.46983e-13 0)
(664 -3.71678e-13 0)
(664 -3.74482e-13 0)
(664 -2.5962e-13 0)
(664 -4.28479e-14 0)
(664 8.40215e-14 0)
(664 1.65976e-13 0)
(664 2.81253e-13 0)
(664 3.24045e-13 0)
(664 2.81467e-13 0)
(664 2.28328e-13 0)
(664 2.47037e-13 0)
(664 2.73934e-13 0)
(664 2.57215e-13 0)
(664 1.88416e-13 0)
(664 1.18377e-13 0)
(664 1.1304e-13 0)
(664 1.54911e-13 0)
(664 2.2966e-13 0)
(664 3.42267e-13 0)
(664 3.98175e-13 0)
(664 2.97908e-13 0)
(664 1.95712e-13 0)
(664 1.03512e-13 0)
(664 8.42184e-15 0)
(664 -2.18314e-14 0)
(664 -6.09721e-15 0)
(664 1.55731e-14 0)
(664 -2.50486e-14 0)
(664 -1.12794e-13 0)
(664 -1.19003e-13 0)
(664 6.4812e-14 0)
(664 5.36784e-13 0)
(664 1.31166e-12 0)
(664 2.70977e-12 0)
(664 5.44944e-12 0)
(664 1.06063e-11 0)
(664 2.03749e-11 0)
(664 3.91096e-11 0)
(664 7.50493e-11 0)
(664 1.43467e-10 0)
(664 2.73298e-10 0)
(664 5.18367e-10 0)
(664 9.79469e-10 0)
(664 1.84216e-09 0)
(664 3.451e-09 0)
(664 6.4362e-09 0)
(664 1.19582e-08 0)
(664 2.21229e-08 0)
(664 4.0777e-08 0)
(664 7.48554e-08 0)
(664 1.36911e-07 0)
(664 2.49421e-07 0)
(664 4.52785e-07 0)
(664 8.18834e-07 0)
(664 1.47561e-06 0)
(664 2.64945e-06 0)
(664 4.74113e-06 0)
(664 8.45404e-06 0)
(664 1.50249e-05 0)
(664 2.66133e-05 0)
(664 4.69909e-05 0)
(664 8.27011e-05 0)
(663.999 0.000145105 0)
(663.999 0.000253819 0)
(663.998 0.000442685 0)
(663.997 0.000769801 0)
(663.995 0.00133491 0)
(663.992 0.00230842 0)
(663.987 0.00398117 0)
(663.978 0.00684765 0)
(663.962 0.0117479 0)
(663.937 0.020103 0)
(663.895 0.0343145 0)
(663.825 0.0584256 0)
(663.71 0.0992331 0)
(663.52 0.16812 0)
(663.21 0.284106 0)
(662.703 0.478846 0)
(661.879 0.80481 0)
(660.548 1.3486 0)
(658.407 2.25164 0)
(655.004 3.74402 0)
(649.612 6.18615 0)
(641.621 10.144 0)
(664 -1.12456e-14 0)
(664 -9.24202e-15 0)
(664 -1.5121e-14 0)
(664 -3.59896e-14 0)
(664 -6.59111e-14 0)
(664 -6.5092e-14 0)
(664 -3.48902e-14 0)
(664 -3.76421e-14 0)
(664 -6.62886e-14 0)
(664 -1.64402e-13 0)
(664 -2.67324e-13 0)
(664 -3.09334e-13 0)
(664 -3.10282e-13 0)
(664 -2.35143e-13 0)
(664 -1.16342e-13 0)
(664 1.6083e-14 0)
(664 1.72196e-13 0)
(664 2.55999e-13 0)
(664 2.31544e-13 0)
(664 1.95621e-13 0)
(664 1.46253e-13 0)
(664 4.63742e-14 0)
(664 -1.07032e-13 0)
(664 -3.10198e-13 0)
(664 -5.06468e-13 0)
(664 -5.60497e-13 0)
(664 -4.09522e-13 0)
(664 -2.14765e-13 0)
(664 -5.09533e-14 0)
(664 9.84828e-15 0)
(664 -5.82869e-14 0)
(664 -2.22328e-13 0)
(664 -4.40359e-13 0)
(664 -6.14904e-13 0)
(664 -7.33872e-13 0)
(664 -8.34321e-13 0)
(664 -8.70423e-13 0)
(664 -9.47358e-13 0)
(664 -1.05299e-12 0)
(664 -1.21206e-12 0)
(664 -1.36768e-12 0)
(664 -1.47434e-12 0)
(664 -1.45286e-12 0)
(664 -1.2745e-12 0)
(664 -9.63338e-13 0)
(664 -5.19382e-13 0)
(664 -9.51162e-14 0)
(664 2.86862e-13 0)
(664 5.21713e-13 0)
(664 5.85582e-13 0)
(664 4.34999e-13 0)
(664 1.81562e-13 0)
(664 -4.05871e-14 0)
(664 -2.16458e-13 0)
(664 -2.96977e-13 0)
(664 -2.66687e-13 0)
(664 -1.76245e-13 0)
(664 -1.01095e-13 0)
(664 1.78743e-14 0)
(664 8.38957e-14 0)
(664 1.13926e-14 0)
(664 -5.11025e-14 0)
(664 5.12455e-14 0)
(664 2.42806e-13 0)
(664 4.5573e-13 0)
(664 5.90638e-13 0)
(664 5.38751e-13 0)
(664 3.76979e-13 0)
(664 2.10427e-13 0)
(664 7.23184e-14 0)
(664 -2.05334e-14 0)
(664 -1.01406e-13 0)
(664 -1.77159e-13 0)
(664 -3.72668e-13 0)
(664 -5.31244e-13 0)
(664 -5.44653e-13 0)
(664 -4.74763e-13 0)
(664 -3.475e-13 0)
(664 -2.79897e-13 0)
(664 -2.66315e-13 0)
(664 -2.03553e-13 0)
(664 -6.67742e-14 0)
(664 -2.81346e-15 0)
(664 -6.81907e-14 0)
(664 -2.62622e-13 0)
(664 -4.63624e-13 0)
(664 -5.15976e-13 0)
(664 -4.42927e-13 0)
(664 -3.84657e-13 0)
(664 -3.63596e-13 0)
(664 -3.97763e-13 0)
(664 -3.53759e-13 0)
(664 -2.35991e-13 0)
(664 -1.95113e-13 0)
(664 -2.65751e-13 0)
(664 -2.88483e-13 0)
(664 -3.00212e-13 0)
(664 -3.82177e-13 0)
(664 -4.30609e-13 0)
(664 -4.09897e-13 0)
(664 -3.0939e-13 0)
(664 -1.25353e-13 0)
(664 4.7893e-14 0)
(664 5.38312e-14 0)
(664 -2.89748e-14 0)
(664 -1.20902e-13 0)
(664 -1.56401e-13 0)
(664 -1.83426e-13 0)
(664 -2.16556e-13 0)
(664 -1.80623e-13 0)
(664 -5.0135e-14 0)
(664 5.45774e-14 0)
(664 1.40036e-14 0)
(664 -1.09432e-13 0)
(664 -2.06223e-13 0)
(664 -2.61651e-13 0)
(664 -3.00056e-13 0)
(664 -2.80594e-13 0)
(664 -2.50026e-13 0)
(664 -2.39625e-13 0)
(664 -2.53416e-13 0)
(664 -2.92626e-13 0)
(664 -3.83694e-13 0)
(664 -5.63038e-13 0)
(664 -6.9221e-13 0)
(664 -5.78253e-13 0)
(664 -2.48945e-13 0)
(664 6.18364e-14 0)
(664 1.78153e-13 0)
(664 1.7392e-13 0)
(664 1.8691e-13 0)
(664 2.68538e-13 0)
(664 2.74403e-13 0)
(664 2.4643e-13 0)
(664 1.96936e-13 0)
(664 1.67786e-13 0)
(664 2.83562e-14 0)
(664 -2.93662e-13 0)
(664 -5.30922e-13 0)
(664 -5.92376e-13 0)
(664 -6.36926e-13 0)
(664 -5.86009e-13 0)
(664 -4.29876e-13 0)
(664 -2.80302e-13 0)
(664 -1.98564e-13 0)
(664 -1.69831e-13 0)
(664 -1.00953e-13 0)
(664 1.35455e-14 0)
(664 1.95081e-13 0)
(664 4.22164e-13 0)
(664 6.32263e-13 0)
(664 7.02961e-13 0)
(664 6.29997e-13 0)
(664 5.47789e-13 0)
(664 5.00929e-13 0)
(664 4.02851e-13 0)
(664 2.61358e-13 0)
(664 9.31016e-14 0)
(664 -6.42621e-14 0)
(664 -1.22827e-13 0)
(664 -2.79346e-14 0)
(664 1.25763e-14 0)
(664 -2.71365e-14 0)
(664 2.21404e-14 0)
(664 8.87338e-14 0)
(664 7.70957e-14 0)
(664 3.88667e-15 0)
(664 -4.50876e-14 0)
(664 -8.61085e-14 0)
(664 -7.67058e-14 0)
(664 -5.64516e-14 0)
(664 -2.9489e-14 0)
(664 2.95038e-14 0)
(664 6.97744e-14 0)
(664 6.42858e-14 0)
(664 7.29238e-14 0)
(664 6.65462e-14 0)
(664 2.60805e-14 0)
(664 2.16851e-14 0)
(664 2.97586e-14 0)
(664 4.67613e-15 0)
(664 1.68476e-14 0)
(664 5.43822e-14 0)
(664 8.44836e-14 0)
(664 9.35544e-14 0)
(664 9.07884e-14 0)
(664 1.4419e-13 0)
(664 1.78218e-13 0)
(664 1.9671e-13 0)
(664 1.97459e-13 0)
(664 1.90027e-13 0)
(664 1.182e-13 0)
(664 1.15054e-14 0)
(664 -5.34786e-14 0)
(664 -1.19236e-13 0)
(664 -2.42044e-13 0)
(664 -3.07403e-13 0)
(664 -3.0711e-13 0)
(664 -2.91452e-13 0)
(664 -2.81898e-13 0)
(664 -3.3637e-13 0)
(664 -4.76965e-13 0)
(664 -6.05809e-13 0)
(664 -6.36812e-13 0)
(664 -5.46281e-13 0)
(664 -3.71316e-13 0)
(664 -1.93957e-13 0)
(664 -2.61382e-14 0)
(664 7.58999e-14 0)
(664 1.68832e-13 0)
(664 2.929e-13 0)
(664 3.68381e-13 0)
(664 3.52641e-13 0)
(664 2.90808e-13 0)
(664 2.58415e-13 0)
(664 2.43782e-13 0)
(664 1.62479e-13 0)
(664 9.06456e-14 0)
(664 5.57826e-14 0)
(664 4.97735e-14 0)
(664 -3.25452e-14 0)
(664 -1.6205e-13 0)
(664 -2.70057e-13 0)
(664 -2.80754e-13 0)
(664 -2.50443e-13 0)
(664 -1.94815e-13 0)
(664 -9.16653e-14 0)
(664 6.76643e-14 0)
(664 1.6278e-13 0)
(664 2.36614e-13 0)
(664 2.93809e-13 0)
(664 3.48494e-13 0)
(664 3.58444e-13 0)
(664 1.88561e-13 0)
(664 3.61146e-14 0)
(664 9.36093e-14 0)
(664 2.31942e-13 0)
(664 3.29432e-13 0)
(664 3.67499e-13 0)
(664 3.361e-13 0)
(664 2.96575e-13 0)
(664 2.21821e-13 0)
(664 2.0754e-13 0)
(664 3.35072e-13 0)
(664 5.25908e-13 0)
(664 7.21182e-13 0)
(664 8.79784e-13 0)
(664 1.09711e-12 0)
(664 1.55263e-12 0)
(664 2.54941e-12 0)
(664 4.64995e-12 0)
(664 8.93915e-12 0)
(664 1.73026e-11 0)
(664 3.34532e-11 0)
(664 6.42881e-11 0)
(664 1.2278e-10 0)
(664 2.33643e-10 0)
(664 4.42585e-10 0)
(664 8.35106e-10 0)
(664 1.56827e-09 0)
(664 2.93345e-09 0)
(664 5.46189e-09 0)
(664 1.01304e-08 0)
(664 1.87065e-08 0)
(664 3.44111e-08 0)
(664 6.30279e-08 0)
(664 1.15005e-07 0)
(664 2.0897e-07 0)
(664 3.78282e-07 0)
(664 6.81989e-07 0)
(664 1.22498e-06 0)
(664 2.19158e-06 0)
(664 3.9066e-06 0)
(664 6.93692e-06 0)
(664 1.22737e-05 0)
(664 2.1635e-05 0)
(664 3.80022e-05 0)
(664 6.65089e-05 0)
(664 0.000115999 0)
(663.999 0.0002016 0)
(663.999 0.00034919 0)
(663.998 0.000602752 0)
(663.997 0.001037 0)
(663.995 0.00177813 0)
(663.992 0.00303907 0)
(663.986 0.00517715 0)
(663.977 0.00879126 0)
(663.962 0.0148801 0)
(663.937 0.0251059 0)
(663.895 0.0422225 0)
(663.827 0.0707808 0)
(663.716 0.118265 0)
(663.534 0.196947 0)
(663.24 0.326845 0)
(662.764 0.540432 0)
(661.999 0.890181 0)
(660.771 1.45969 0)
(658.822 2.3824 0)
(655.722 3.86152 0)
(651.088 6.2181 0)
(664 3.21218e-14 0)
(664 4.11337e-14 0)
(664 4.49611e-14 0)
(664 1.93516e-14 0)
(664 -1.90267e-14 0)
(664 -1.2655e-14 0)
(664 3.64001e-14 0)
(664 3.26534e-14 0)
(664 8.79149e-15 0)
(664 -4.85425e-14 0)
(664 -7.5608e-14 0)
(664 -7.9939e-14 0)
(664 -4.04879e-14 0)
(664 2.10696e-16 0)
(664 -6.99915e-15 0)
(664 -6.09757e-14 0)
(664 -1.50681e-13 0)
(664 -2.4757e-13 0)
(664 -3.00978e-13 0)
(664 -2.89865e-13 0)
(664 -2.78381e-13 0)
(664 -2.84692e-13 0)
(664 -3.77514e-13 0)
(664 -5.1922e-13 0)
(664 -5.76181e-13 0)
(664 -5.87968e-13 0)
(664 -5.12339e-13 0)
(664 -3.36602e-13 0)
(664 -1.32112e-13 0)
(664 1.15683e-13 0)
(664 3.69989e-13 0)
(664 5.51467e-13 0)
(664 6.11757e-13 0)
(664 6.23265e-13 0)
(664 5.96122e-13 0)
(664 4.72698e-13 0)
(664 2.33942e-13 0)
(664 -2.65246e-14 0)
(664 -2.59965e-13 0)
(664 -4.37376e-13 0)
(664 -5.9317e-13 0)
(664 -6.32969e-13 0)
(664 -6.71771e-13 0)
(664 -8.14892e-13 0)
(664 -9.09475e-13 0)
(664 -9.95724e-13 0)
(664 -1.04942e-12 0)
(664 -1.01936e-12 0)
(664 -8.5856e-13 0)
(664 -6.22969e-13 0)
(664 -4.07987e-13 0)
(664 -3.12162e-13 0)
(664 -3.0456e-13 0)
(664 -2.93865e-13 0)
(664 -2.37574e-13 0)
(664 -2.7664e-13 0)
(664 -3.58877e-13 0)
(664 -4.03617e-13 0)
(664 -4.82287e-13 0)
(664 -5.79894e-13 0)
(664 -6.85511e-13 0)
(664 -7.29757e-13 0)
(664 -6.71911e-13 0)
(664 -5.68302e-13 0)
(664 -3.61337e-13 0)
(664 -1.32718e-13 0)
(664 1.23606e-13 0)
(664 3.82169e-13 0)
(664 6.31095e-13 0)
(664 8.77862e-13 0)
(664 9.68318e-13 0)
(664 9.40179e-13 0)
(664 9.80224e-13 0)
(664 1.01518e-12 0)
(664 1.01193e-12 0)
(664 1.02634e-12 0)
(664 1.01758e-12 0)
(664 8.26606e-13 0)
(664 5.66172e-13 0)
(664 4.00052e-13 0)
(664 3.00165e-13 0)
(664 2.78974e-13 0)
(664 3.26855e-13 0)
(664 2.68876e-13 0)
(664 7.42094e-14 0)
(664 -5.65944e-14 0)
(664 -1.22252e-13 0)
(664 -1.42772e-13 0)
(664 -1.32859e-13 0)
(664 -1.44078e-13 0)
(664 -2.5892e-13 0)
(664 -4.29569e-13 0)
(664 -5.38758e-13 0)
(664 -5.39235e-13 0)
(664 -4.72025e-13 0)
(664 -2.57179e-13 0)
(664 -5.64632e-14 0)
(664 -2.52774e-14 0)
(664 -1.00654e-13 0)
(664 -2.203e-13 0)
(664 -2.98353e-13 0)
(664 -3.97943e-13 0)
(664 -5.03153e-13 0)
(664 -5.51625e-13 0)
(664 -5.77515e-13 0)
(664 -5.51417e-13 0)
(664 -5.71867e-13 0)
(664 -5.85106e-13 0)
(664 -5.8889e-13 0)
(664 -5.49063e-13 0)
(664 -5.31679e-13 0)
(664 -6.54716e-13 0)
(664 -7.70096e-13 0)
(664 -7.24261e-13 0)
(664 -6.38376e-13 0)
(664 -5.93324e-13 0)
(664 -5.67071e-13 0)
(664 -5.63111e-13 0)
(664 -5.80751e-13 0)
(664 -5.34552e-13 0)
(664 -4.6508e-13 0)
(664 -4.59222e-13 0)
(664 -4.85353e-13 0)
(664 -4.36475e-13 0)
(664 -3.05553e-13 0)
(664 -1.86629e-13 0)
(664 -9.725e-14 0)
(664 -3.6646e-14 0)
(664 4.25245e-14 0)
(664 1.49885e-13 0)
(664 2.55842e-13 0)
(664 2.75696e-13 0)
(664 1.70731e-13 0)
(664 -2.94047e-14 0)
(664 -2.45429e-13 0)
(664 -3.21037e-13 0)
(664 -1.84981e-13 0)
(664 1.84821e-14 0)
(664 2.52283e-13 0)
(664 4.83975e-13 0)
(664 6.19481e-13 0)
(664 6.13998e-13 0)
(664 5.88676e-13 0)
(664 4.82007e-13 0)
(664 2.85287e-13 0)
(664 7.03549e-14 0)
(664 -1.35975e-13 0)
(664 -2.37803e-13 0)
(664 -2.37274e-13 0)
(664 -2.55732e-13 0)
(664 -2.91582e-13 0)
(664 -3.23043e-13 0)
(664 -3.17073e-13 0)
(664 -2.89874e-13 0)
(664 -2.30721e-13 0)
(664 -1.8425e-13 0)
(664 -1.47078e-13 0)
(664 -6.8492e-14 0)
(664 -5.87388e-14 0)
(664 -1.04703e-13 0)
(664 -9.92281e-14 0)
(664 -1.05122e-13 0)
(664 -1.29057e-13 0)
(664 -7.70037e-14 0)
(664 9.98225e-14 0)
(664 2.67992e-13 0)
(664 2.62689e-13 0)
(664 1.79923e-13 0)
(664 1.67351e-13 0)
(664 2.22575e-13 0)
(664 3.78907e-13 0)
(664 4.33641e-13 0)
(664 3.47362e-13 0)
(664 2.6206e-13 0)
(664 1.96616e-13 0)
(664 1.68675e-13 0)
(664 1.48863e-13 0)
(664 2.77155e-14 0)
(664 -1.62503e-13 0)
(664 -2.56721e-13 0)
(664 -2.0706e-13 0)
(664 -1.40812e-13 0)
(664 -9.71052e-14 0)
(664 -9.00371e-14 0)
(664 -1.44965e-13 0)
(664 -1.8988e-13 0)
(664 -1.80746e-13 0)
(664 -1.87548e-13 0)
(664 -1.88114e-13 0)
(664 -1.49635e-13 0)
(664 -1.13923e-13 0)
(664 -7.29494e-14 0)
(664 3.397e-14 0)
(664 1.55655e-13 0)
(664 2.9467e-13 0)
(664 3.61694e-13 0)
(664 3.34927e-13 0)
(664 2.66352e-13 0)
(664 1.98825e-13 0)
(664 1.14114e-13 0)
(664 5.00621e-14 0)
(664 2.02262e-16 0)
(664 -1.22183e-13 0)
(664 -2.51543e-13 0)
(664 -2.74517e-13 0)
(664 -1.43235e-13 0)
(664 1.6677e-14 0)
(664 1.20575e-13 0)
(664 1.9516e-13 0)
(664 1.76787e-13 0)
(664 1.6333e-13 0)
(664 1.73921e-13 0)
(664 1.50608e-13 0)
(664 1.12593e-13 0)
(664 5.9935e-14 0)
(664 -4.15761e-15 0)
(664 4.02041e-14 0)
(664 1.16648e-13 0)
(664 1.87478e-13 0)
(664 2.09256e-13 0)
(664 3.20265e-13 0)