/*--------------------------------*- C++ -*----------------------------------*\
| =========                 |                                                 |
| \\      /  F ield         | OpenFOAM: The Open Source CFD Toolbox           |
|  \\    /   O peration     | Version:  2412                                  |
|   \\  /    A nd           | Website:  www.openfoam.com                      |
|    \\/     M anipulation  |                                                 |
\*---------------------------------------------------------------------------*/
FoamFile
{
    version     2.0;
    format      ascii;
    arch        "LSB;label=32;scalar=64";
    class       volScalarField;
    location    "7";
    object      p;
}
// * * * * * * * * * * * * * * * * * * * * * * * * * * * * * * * * * * * * * //

dimensions      [0 2 -2 0 0 0 0];

internalField   nonuniform List<scalar> 
20000
(
2.31636e+07
-1.74801e+07
-7.75031e+06
-4.64231e+06
-2.78669e+06
-1.73414e+06
-1.11572e+06
-741046
-506682
-355273
-254273
-184708
-135218
-98820.8
-71121
-49291.9
-31484.7
-16474.6
-3443.87
8156.55
18695.8
28421.7
37499.8
46037.6
54101
61723.3
68912.7
75657.5
81933.1
87710.4
92963.6
97676.7
101846
105479
108592
111209
113359
115079
116414
117419
118151
118671
119040
119300
119480
119583
119602
119527
119348
119062
118674
118201
117666
117092
116499
115896
115287
114671
114053
113441
112847
112283
111758
111275
110832
110422
110032
109650
109268
108886
108511
108167
107895
107684
107451
107149
106779
106378
105959
105487
104932
104304
103640
102990
102415
101899
101362
100734
100024
99265.1
98484.7
97678.2
96825.9
95936.3
95056.3
94233.3
93511.7
92959
92635.7
92580.4
1.00523e+06
-4.01063e+06
-2.44088e+06
-1.54837e+06
-1.03113e+06
-708368
-499998
-361172
-267413
-202500
-156203
-122001
-95719.2
-74674.8
-57140.8
-42003.8
-28546.8
-16309.2
-4997.66
5572.95
15518.3
24910.3
33793
42193.6
50128
57604.1
64622.5
71178.4
77262.4
82864
87975
92593.1
96723.1
100377
103573
106333
108682
110652
112276
113593
114643
115469
116111
116604
116970
117221
117361
117390
117308
117120
116835
116467
116031
115547
115027
114483
113923
113353
112778
112207
111650
111115
110608
110134
109700
109309
108959
108626
108291
107950
107620
107311
107003
106682
106329
105925
105481
105025
104560
104064
103520
102937
102330
101717
101116
100537
99963.2
99359.4
98703
98001.6
97272.9
96535.8
95790.8
95029.2
94259.9
93504.2
92782.3
92185.3
91787.8
91597.2
-225315
-754512
-394000
-104014
8291.76
24096.1
11034.8
-2187.49
-15143.2
-26033.7
-33891.8
-38432.8
-39810.7
-38411
-34712.1
-29202.6
-22338.1
-14521.7
-6096.72
2652.12
11495.8
20254.9
28793.8
37013
44843
52237.9
59169.6
65623.5
71594.6
77085.1
82102.5
86659.3
90771.5
94458.5
97741.7
100644
103191
105407
107318
108950
110329
111479
112424
113184
113776
114213
114508
114671
114714
114648
114486
114242
113930
113560
113144
112695
112223
111735
111240
110753
110290
109862
109463
109078
108706
108356
108033
107738
107455
107163
106838
106464
106065
105663
105256
104819
104345
103846
103332
102803
102260
101711
101164
100618
100066
99505.1
98928.8
98327.6
97698.1
97044.9
96380.3
95714.7
95043.8
94360.1
93670.2
92988.6
92318.6
91703.6
91238
90960.7
-22136.9
-133411
-58958.2
133966
229348
230480
192813
147700
102566
62147.8
28913
3753.74
-13737.1
-24550.9
-29845.3
-30755.9
-28309.8
-23392.1
-16738.8
-8946.04
-484.446
8282.71
17081.7
25711.6
34029.2
41936.9
49372.4
56301.2
62709.5
68598.9
73981.8
78878
83311.8
87309.5
90899
94108
96963.9
99492.8
101720
103668
105359
106812
108044
109071
109907
110567
111065
111417
111639
111745
111754
111678
111532
111327
111073
110786
110483
110176
109855
109521
109191
108877
108579
108283
107973
107650
107315
106972
106639
106301
105927
105505
105050
104586
104128
103677
103226
102767
102290
101791
101272
100743
100211
99673.4
99128.3
98577.7
98020.5
97448.4
96854.3
96240.8
95613.9
94979.3
94344.4
93718
93104.3
92502.2
91916.1
91372.9
90922.7
90603.4
-82668.7
-242517
-184495
11673.9
198508
270105
243898
180812
120363
68454.3
26118.7
-6677.13
-29954.2
-44726.3
-52409.2
-54460.8
-52224.4
-46858
-39317
-30363.9
-20590.5
-10446.1
-263.697
9715.33
19321.2
28439.6
36999.1
44961.2
52311.9
59055.2
65207.8
70795.1
75848.2
80401
84489.2
88147.9
91411.3
94311.1
96876.7
99134.5
101109
102821
104291
105537
106579
107433
108117
108649
109045
109324
109502
109595
109619
109589
109508
109377
109212
109028
108821
108586
108330
108063
107789
107503
107182
106816
106423
106024
105635
105258
104887
104510
104113
103692
103249
102792
102329
101865
101397
100920
100434
99935.8
99423.5
98896.6
98354.3
97797.3
97228.6
96651.4
96070.3
95486.2
94898.3
94314.6
93747.4
93201.3
92673.4
92156.3
91650.1
91170.1
90745.9
90391.5
-291088
-800358
-811062
-296363
36899.6
110102
60786.7
5760.26
-39839.7
-71657
-92552.7
-107509
-117042
-120484
-118544
-112301
-102873
-91262
-78299
-64641.3
-50788.8
-37108.8
-23861.6
-11224.1
691.398
11821
22136.9
31637.7
40339.7
48272
55471.6
61980.7
67844.8
73110.5
77824.6
82032.6
85778
89100.8
92037.4
94620.5
96880
98843.2
100536
101982
103207
104233
105081
105772
106326
106759
107093
107339
107500
107596
107638
107626
107570
107478
107342
107153
106917
106654
106377
106095
105804
105491
105154
104805
104451
104096
103738
103378
103010
102628
102228
101810
101374
100924
100462
99988.8
99504.1
99008.1
98502.4
97986.5
97458.6
96921
96379.4
95837.9
95299.6
94765.2
94239.3
93730.1
93238.7
92759.5
92289.2
91828.8
91381.2
90948.4
90534.6
90127.1
-778891
-4.41366e+06
-3.62607e+06
-2.55691e+06
-1.63428e+06
-1.08466e+06
-784449
-589340
-465966
-391858
-348516
-317551
-289722
-262949
-236455
-210198
-184424
-159445
-135539
-112915
-91707.6
-71986.6
-53768.7
-37031.5
-21724.9
-7779.72
4884.16
16352.5
26712.5
36050.2
44448.9
51987.4
58740.4
64777.8
70163.7
74957.6
79214.1
82982.6
86306.9
89226.8
91779.2
93999.1
95918.6
97569.2
98983.4
100190
101215
102082
102811
103415
103915
104329
104661
104919
105099
105198
105229
105213
105158
105059
104915
104738
104536
104315
104079
103826
103554
103269
102975
102674
102362
102037
101698
101339
100962
100567
100154
99725.8
99285
98833.5
98372.6
97905.3
97433.7
96956
96474.9
95996.4
95521.1
95045.7
94568.7
94093.6
93627.1
93172
92725.8
92286
91851.5
91421.6
90994.4
90566.9
90136.2
89683.3
8.0583e+06
-2.19994e+07
-1.16552e+07
-7.33773e+06
-4.57247e+06
-2.95653e+06
-2.00752e+06
-1.46345e+06
-1.15235e+06
-950147
-798808
-676333
-574781
-489085
-415951
-353045
-298614
-251284
-209949
-173710
-141825
-113685
-88791.5
-66727.8
-47147.3
-29755.8
-14301.1
-563.383
11650.4
22512.4
32175.8
40775.8
48431.8
55248.1
61315
66710.4
71502.1
75748.3
79498.6
82798.8
85692.4
88222.8
90428.3
92345.2
94013.2
95469.3
96738.5
97842
98805.8
99646.3
100375
100991
101498
101910
102234
102472
102638
102744
102796
102799
102754
102670
102550
102401
102223
102020
101794
101554
101303
101042
100767
100478
100171
99846.3
99503.7
99143.1
98767.7
98382.3
97988.4
97584.8
97171
96750.6
96328
95904.2
95481.3
95061.1
94642.1
94221.7
93798.7
93374
92948.8
92523.2
92097.7
91672.5
91247.1
90820.3
90391
89956.7
89516.1
89056.7
1.28264e+08
-1.00934e+08
-4.13713e+07
-2.4877e+07
-1.45635e+07
-9.00968e+06
-5.86087e+06
-4.00596e+06
-2.84986e+06
-2.09665e+06
-1.58625e+06
-1.22831e+06
-969229
-776245
-628755
-513460
-421538
-346995
-285645
-234496
-191359
-154614
-123045
-95735.3
-71981
-51236.9
-33070.3
-17128.8
-3119.13
9210.43
20079.2
29676.9
38169.1
45699.6
52390.9
58345.5
63648.2
68367.5
72558.7
76272.7
79558.3
82467.7
85039.2
87302.7
89292.1
91046.2
92602
93979.2
95186
96233.2
97138.9
97912.4
98566.5
99115.2
99565.1
99924.8
100206
100416
100564
100655
100694
100687
100637
100550
100428
100276
100098
99899.3
99687
99461.8
99222.2
98966.4
98693.4
98403.3
98097.1
97776.4
97443.6
97100.9
96749.7
96391.1
96026.2
95656.7
95283.1
94905.3
94522.9
94136.4
93746.3
93352.5
92954.8
92553.3
92147.8
91738.6
91326.5
90911.5
90494.1
90075.3
89656.1
89236
88816.3
88390.7
4.25149e+07
-5.97195e+07
-3.345e+07
-2.11999e+07
-1.31672e+07
-8.68402e+06
-6.00935e+06
-4.28828e+06
-3.14671e+06
-2.36607e+06
-1.81709e+06
-1.4211e+06
-1.12845e+06
-907085
-736098
-601583
-494046
-406881
-335386
-276128
-226535
-184650
-148973
-118343
-91868.3
-68861.1
-48786.3
-31220.6
-15824
-2312.45
9559.4
20004.5
29211.9
37350.4
44568.2
50992.8
56731.3
61865.9
66459.1
70562.9
74219
77482.3
80398
82998.1
85302.1
87330.3
89110.5
90670.5
92033.3
93222.9
94258.5
95156.1
95930.4
96593.1
97153.3
97620.2
98001.3
98304.6
98539.1
98711.2
98826.1
98888.9
98904.4
98877.2
98812.1
98713.7
98586.2
98434
98261.7
98072.1
97866
97643.1
97403.1
97145.8
96871.8
96582
96278
95961.6
95635
95300.3
94959.1
94612.6
94261.4
93905.8
93545.3
93179.7
92810
92436.9
92060.7
91681.7
91300.1
90915.6
90528.2
90138.4
89747.9
89358.2
88971.2
88588.1
88210.8
87832.4
-1.3351e+07
-1.7608e+07
-1.18583e+07
-8.19055e+06
-6.26596e+06
-4.9285e+06
-3.8906e+06
-3.06497e+06
-2.43217e+06
-1.95004e+06
-1.57943e+06
-1.29056e+06
-1.06182e+06
-878092
-728906
-606715
-505782
-421762
-351361
-292052
-241845
-199132
-162593
-131145
-103910
-80183.1
-59410.3
-41154.9
-25078.1
-10903.3
1600.34
12631.3
22369.7
30976.8
38597.4
45363
51397
56803.3
61662.5
66029.7
69951.4
73468
76609.5
79411.4
81899.1
84099
86039.1
87746.4
89246.9
90562.3
91713.7
92720
93597.3
94358.5
95014
95572.9
96043
96431.8
96746.4
96992.9
97177
97303.9
97378.7
97406
97390.8
97337.6
97251.1
97135.4
96994.6
96832
96650
96449.9
96232.3
95998
95747.2
95480.8
95199.6
94904.6
94597.9
94281.6
93957.9
93628.5
93294.8
92958.1
92619.1
92278.1
91935.1
91590
91242.5
90892.7
90541.3
90189.5
89838.6
89488.6
89137.7
88785.3
88432.3
88079.4
87727.6
87369.2
-3.92444e+06
-6.52376e+06
-6.02733e+06
-4.84653e+06
-3.80894e+06
-3.04471e+06
-2.52311e+06
-2.11859e+06
-1.78682e+06
-1.51098e+06
-1.27962e+06
-1.08436e+06
-919001
-778901
-660305
-559829
-474415
-401448
-338827
-284912
-238402
-198217
-163428
-133220
-106884
-83822.6
-63531.2
-45598.6
-29701.1
-15582.5
-3039.7
8100.56
17992.3
26771.4
34566.4
41499.6
47679.6
53202.2
58157.3
62613.9
66631.6
70252.8
73512.5
76440.6
79059.8
81391.8
83459.6
85286.8
86897
88312.9
89556.6
90648.2
91605.3
92442.3
93171.2
93801.6
94341.7
94798.4
95177.6
95485
95726.3
95906.4
96030.4
96103
96128.9
96112.7
96059.1
95972.7
95857.5
95717.3
95555.1
95373.3
95173.7
94957.7
94726.5
94481.2
94222.7
93951.3
93668
93374.2
93072.4
92764.5
92452.1
92136.9
91820.3
91503.2
91185.9
90867.8
90548.4
90227.1
89903.8
89578.8
89253
88926.8
88599.4
88268.2
87932.6
87593.8
87255.1
86910.1
-2.44832e+06
-4.24984e+06
-3.78702e+06
-3.06871e+06
-2.58385e+06
-2.22283e+06
-1.91163e+06
-1.63946e+06
-1.40603e+06
-1.20767e+06
-1.03926e+06
-895725
-772549
-666227
-574200
-494393
-424997
-364398
-311253
-264521
-223410
-187280
-155562
-127719
-103235
-81636
-62501.4
-45485
-30301.7
-16725.8
-4582.05
6277.56
15977.9
24629.5
32340.1
39214.4
45350.6
50841.8
55773.9
60220.7
64242.8
67886.4
71187.2
74171.4
76859.5
79269.2
81418.1
83325.2
85010.8
86496.1
87802.8
88951.4
89960.8
90847.1
91623.9
92301.9
92889.7
93394.2
93821.1
94175.5
94462.1
94685.5
94850.3
94961.1
95022.3
95038.5
95014.3
94954.2
94862.4
94742.7
94598.6
94433.5
94249.8
94049.9
93835.3
93607.5
93367.7
93116.8
92855
92582.7
92301.4
92013.6
91720.8
91424.4
91125.5
90825.4
90524.5
90222.8
89919.5
89613.9
89305.2
88993.5
88679.3
88363.1
88045.6
87726.4
87405.4
87083.8
86765.1
86443.4
-1.3939e+06
-2.46956e+06
-2.25542e+06
-1.9231e+06
-1.71652e+06
-1.54932e+06
-1.38266e+06
-1.22363e+06
-1.07862e+06
-948341
-832470
-730208
-639968
-560033
-489109
-426241
-370533
-321045
-276891
-237362
-201952
-170307
-142127
-117111
-94926
-75225.6
-57672.6
-41966.4
-27856.9
-15146.4
-3683.76
6648.15
15944
24287
31757.2
38436.1
44407
49754.2
54558.8
58894.8
62825
66399.6
69655.8
72619.8
75309.7
77739.2
79920.4
81866.5
83592.9
85117.6
86459.9
87639.9
88677.1
89588.9
90390.3
91093.6
91708.2
92241.6
92699.3
93085.9
93405.4
93661.6
93858.4
93999.6
94089.4
94132.2
94132.2
94093.9
94021.3
93918.4
93788.6
93635.7
93462.8
93273
93068.6
92851.6
92623.4
92384.8
92136.3
91878.5
91612.1
91338.5
91059
90775.2
90488.3
90199.2
89908.7
89617
89323.8
89028.3
88730.1
88429.1
88125.9
87821.3
87516.4
87212.1
86909.3
86609
86313.6
86015.7
-887798
-1.63133e+06
-1.5342e+06
-1.34098e+06
-1.22019e+06
-1.12377e+06
-1.0252e+06
-927038
-833357
-745453
-664332
-590649
-524123
-463952
-409461
-360230
-315880
-275905
-239729
-206843
-176899
-149701
-125127
-103054
-83309
-65664.5
-49865.4
-35660.1
-22827.7
-11190.7
-616.308
8991.41
17703.3
25576.9
32666.7
39030.4
44732.4
49842.9
54435
58579.5
62340.3
65770.2
68909.2
71785
74414.8
76809.1
78975.2
80920.4
82654.3
84189.5
85542.2
86730.3
87772.9
88688
89492
90198.8
90819.1
91361.3
91831.2
92233.2
92570.6
92846.5
93063.8
93225.6
93335.4
93396.8
93413.9
93391
93332.1
93240.9
93121.2
92976.4
92810.1
92625.8
92426.6
92214.9
91992.8
91761.4
91521.6
91274
91019
90757.4
90490
90218
89942.4
89664.3
89384.4
89103.3
88820.8
88536.7
88250.6
87962.2
87671.6
87379.6
87087.3
86796
86506.8
86220.9
85940.2
85655.7
-571859
-1.09402e+06
-1.04933e+06
-931772
-859881
-805104
-748638
-690361
-632105
-574740
-519575
-467880
-420059
-375855
-334953
-297231
-262621
-230926
-201815
-174943
-150073
-127106
-106037
-86868
-69554
-53978
-39965.4
-27316.4
-15839.3
-5373.51
4201.13
12967
20978.2
28272.1
34881.3
40841.6
46197.5
51003.2
55320.6
59214.7
62747.8
65974.2
68937
71666
74179.7
76487
78591.6
80495.7
82202.8
83719.9
85058.2
86232.3
87259.5
88157.8
88944.4
89634.3
90240.1
90771.2
91234.5
91634.4
91974.1
92255.8
92481.7
92653.9
92774.9
92847.5
92875.3
92862.2
92812
92728.6
92615.5
92476.2
92314.1
92132.9
91936
91726.6
91507.1
91279.4
91044.7
90803.7
90556.7
90304
90046.1
89783.5
89517.2
89247.8
88976.4
88703.5
88429.4
88153.9
87876.8
87597.5
87315.8
87032
86747.1
86462.6
86179.8
85900.4
85626.2
85347.7
-374925
-758208
-744641
-671213
-624260
-588930
-553484
-516937
-479414
-440997
-402762
-366038
-331455
-298967
-268387
-239684
-212915
-188039
-164875
-143187
-122805
-103681
-85867
-69444.3
-54458.1
-40879.4
-28606.3
-17489.7
-7368.17
1902.59
10433.5
18298.3
25540.1
32182.2
38239.8
43730.6
48680.9
53129.2
57124.9
60724.9
63987.6
66967.2
69708.6
72244.5
74595.2
76770
78770.6
80595.2
82242.2
83712.6
85012.2
86151.5
87144.5
88008.1
88759.4
89414.6
89987.6
90489.4
90928.1
91308.8
91634.9
91908.2
92130
92301.5
92424
92499.7
92530.9
92521
92473.6
92392.4
92281
92142.8
91981.1
91799.2
91600.8
91389.2
91167.6
90938.3
90702.8
90462.2
90217
89967.2
89713.2
89455.2
89193.5
88928.7
88661.5
88392.7
88122.8
87851.9
87579.7
87305.7
87029.6
86751.1
86471
86190.4
85911
85634.4
85362.8
85086.7
-241621
-528632
-532421
-485724
-453035
-428562
-405555
-382595
-358598
-332992
-306547
-280522
-255627
-231923
-209277
-187678
-167217
-147933
-129732
-112451
-95961.1
-80241.3
-65370.5
-51473.5
-38654
-26949.1
-16317.9
-6658.73
2159.38
10264.3
17758.8
24711.2
31157.9
37112.4
42577.5
47556.2
52060
56113.1
59753.1
63028
65990.7
68693.5
71182
73490.9
75642.8
77648.1
79508.1
81218.7
82774
84170.1
85407.2
86491
87431.9
88244.2
88944.3
89548.6
90072.3
90527.8
90924.7
91269.2
91565.4
91814.9
92018.5
92176.6
92289.5
92358.1
92384.1
92369.6
92317.8
92232
92115.8
91972.6
91805.6
91618.2
91413.7
91195.7
90967.2
90731.2
90489.6
90243.9
89994.7
89742.3
89486.8
89228.3
88966.8
88702.5
88436
88168
87898.8
87629
87358.4
87086.6
86813.2
86537.8
86260.5
85982.2
85704.3
85428.3
85156.4
84879.1
-148847
-368051
-382768
-353743
-329940
-311669
-295855
-281030
-265418
-248021
-229366
-210602
-192451
-175024
-158199
-141948
-126351
-111468
-97250.2
-83574.2
-70336.1
-57521.5
-45215.5
-33559.1
-22688.3
-12684.7
-3554.46
4763.33
12370.7
19379
25883.5
31949.4
37609.4
42871.5
47729.7
52176.2
56210.3
59844.8
63106.7
66035.5
68678.6
71085.2
73300.1
75359.3
77287
79095.4
80786.1
82353.9
83790
85086.3
86238.4
87246.9
88118.2
88863.6
89497.7
90036.7
90496.3
90890.2
91229.5
91522
91772.3
91982.8
92154
92285.7
92377.3
92428.5
92439.9
92412.7
92349.2
92252.1
92124.6
91970.3
91792.4
91594.2
91379
91150.1
90910.8
90663.9
90411.7
90156
89897.6
89637.3
89375
89110.8
88844.6
88576.3
88306.3
88035
87762.9
87490.3
87217.4
86943.8
86669.1
86392.9
86115.1
85836.2
85557.2
85279.5
85005.1
84724.6
-81872.9
-251432
-272986
-255903
-237806
-223230
-211789
-202092
-191936
-180033
-166717
-153026
-139671
-126789
-114263
-102040
-90175.3
-78727.1
-67668.2
-56900.3
-46332.5
-35949.8
-25831.4
-16118.6
-6960.52
1534.67
9326.4
16441.8
22955.9
28963.5
34552.1
39784.2
44692
49280.6
53539.1
57452
61009.7
64215.6
67087.9
69659.1
71971.1
74069.9
75998.9
77794.4
79481.9
81074.9
82575.9
83979
85273.7
86449
87496
88411.2
89196.8
89860.7
90415.3
90875.8
91258.1
91576.8
91844.5
92070.2
92260.1
92417.1
92542
92634.2
92692.4
92715.5
92702.6
92654.1
92571.1
92455.6
92310.3
92138.5
91943.4
91728.5
91497.1
91252.3
90997.2
90734.8
90467.4
90196.7
89924.2
89650.4
89375.8
89100.4
88824.1
88546.8
88268.5
87989.5
87710.1
87430.6
87151.2
86871.7
86591.7
86310.9
86029.2
85746.8
85464.3
85182.7
84904
84618.7
-32497
-165059
-191093
-182436
-168235
-155980
-147262
-140821
-134202
-125943
-116237
-106031
-96019.8
-86359.3
-76938.8
-67679.8
-58609.3
-49774.3
-41156.5
-32673.4
-24242.1
-15843.1
-7543.48
525.749
8215.93
15406.7
22035.1
28101.4
33656.6
38778.4
43545.2
48017.3
52226.8
56179.4
59862.3
63255.5
66343.5
69122.4
71603.7
73813.9
75790.4
77575.9
79212.7
80737
82175
83541.2
84839
86062.4
87199.7
88237.4
89163.3
89969.9
90655.6
91224.8
91687.6
92057.8
92350.9
92582.3
92765.6
92911.6
93027.5
93117.4
93182.8
93222.8
93235.9
93219.8
93172.9
93094.1
92983.6
92842.5
92672.7
92477.1
92258.8
92021.2
91767.7
91501.4
91225.5
90942.6
90655.1
90364.9
90073.4
89781.4
89489.3
89197.5
88906
88614.6
88323.5
88032.5
87741.8
87451.4
87161.5
86871.9
86582.3
86292.6
86002.6
85712.6
85423
85134.8
84850.3
84559.7
4553.07
-99958
-128932
-126311
-114814
-104030
-97016.6
-92654.1
-88348.6
-82532.1
-75294.2
-67506.3
-59841.9
-52473.4
-45295.3
-38209.1
-31214.8
-24345.3
-17587
-10870.6
-4120.42
2687.33
9499.95
16202.5
22656
28738.7
34374.9
39545.1
44279.2
48637.2
52687.3
56485.5
60064.5
63431.7
66575.2
69474
72109.1
74472
76569.1
78421.9
80064.2
81536.2
82879.1
84128.9
85312.5
86445.6
87532.2
88566.4
89535.5
90424.1
91217
91903.2
92477.5
92941.1
93301.4
93570.8
93764.2
93897.4
93985.1
94039.4
94069.1
94079.6
94073
94048.9
94005.3
93939.5
93848.8
93731
93585
93411
93210.2
92984.6
92737.1
92471
92189.5
91896.1
91593.6
91284.9
90972.3
90657.8
90342.8
90028.2
89714.4
89401.9
89090.6
88780.6
88471.8
88164.1
87857.3
87551.3
87246.3
86942
86638.6
86335.9
86033.9
85733.1
85433.9
85136.9
84843.8
84544.3
32625.1
-50445.9
-81374.1
-83145.7
-73564.9
-63721.5
-57764.8
-54713.2
-51903.8
-47708.5
-42141.4
-36009.3
-29967.7
-24202
-18613.4
-13088.3
-7602.59
-2175.61
3202.46
8588.34
14048.3
19609
25231.4
30819.8
36250.9
41409.7
46215.9
50636.4
54683.2
58399.3
61840.7
65057.4
68081.4
70922.6
73571.8
76009.5
78216.2
80181
81906.7
83411.5
84725.9
85888.3
86939.1
87914.5
88842.4
89739.4
90610.5
91449.9
92244.3
92976.2
93628
94185.4
94639.8
94989.2
95238.6
95398.5
95483.2
95508.8
95491
95443.2
95375.8
95295.5
95205.6
95106.1
94995.1
94869.3
94725.3
94559.8
94370.6
94156.6
93918.1
93656.5
93374.1
93073.9
92759
92432.9
92098.7
91759.1
91416.5
91072.9
90729.8
90388.2
90048.6
89711.1
89376
89042.9
88712
88383
88055.7
87730.1
87406
87083.4
86762.2
86442.8
86125.4
85809.9
85496.6
85186.5
84881.6
84570.5
53953.1
-12705.2
-44922.1
-49887.5
-41646.7
-32369.1
-27021.2
-24749.7
-22868.5
-19718.6
-15256.4
-10233.8
-5289.92
-621.933
3861.54
8286.48
12698.7
17091.8
21472.2
25883.1
30378.9
34985.3
39675.3
44372.2
48972.6
53373.6
57497
61301.6
64784.8
67973.5
70910.3
73637.3
76184.3
78562.8
80767.4
82782.1
84589.1
86177.5
87548.5
88717.9
89714.1
90574.2
91337.8
92041.9
92715.2
93375.9
94029.8
94671.5
95287.1
95857.6
96362.9
96785.8
97114.2
97343.2
97475.1
97518.8
97487.8
97398.3
97266.7
97107.9
96934
96753.1
96569.6
96384.6
96196.1
96000.8
95794.5
95573
95333
95072.1
94789.6
94486.1
94163.3
93823.7
93470.4
93106.5
92735.4
92360
91982.8
91605.8
91230.4
90857.9
90488.4
90122.2
89759.4
89399.6
89042.5
88688.2
88336.2
87986.3
87638.7
87293.7
86951.4
86611.6
86274.4
85940.7
85611.1
85286.3
84967.3
84641.2
70036.5
15827.2
-17228.2
-24483.3
-17138.2
-8141.95
-3073.04
-1196.08
169.85
2697.55
6476.71
10802.3
15048.6
19006
22757.5
26439.3
30117.9
33800.4
37490.9
41218.3
45022.5
48924.4
52905.1
56906.5
60845.6
64636.5
68208
71515.7
74546
77311
79839.4
82163.9
84309.9
86289.6
88101.3
89733.1
91171
92406.1
93439.9
94287.7
94976.8
95543.3
96026.9
96464.9
96887.4
97313.5
97750.4
98193.1
98627.3
99032.8
99387.5
99671.1
99868.6
99972.2
99981.8
99904.2
99752.2
99541.9
99290.4
99013.9
98725.9
98436.2
98150.7
97871.3
97596.6
97323.2
97046.2
96760.9
96462.8
96148.5
95816
95464.9
95096.3
94712.2
94315.5
93909.3
93496.7
93080.9
92664.5
92249.6
91837.6
91429.8
91026.6
90627.8
90233.4
89843.1
89456.4
89072.9
88692.8
88316.2
87943
87572.9
87206.3
86843.8
86486
86133.3
85785.3
85442
85104.9
84760.1
81882.4
36875.4
3295.67
-5526.28
1301.71
10265.5
15327.9
17115.5
18287
20521.6
23949.6
27907
31777.2
35336
38655.1
41879.4
45095.3
48325.1
51572.7
54853.5
58190.9
61597
65057.4
68529.7
71952.3
75258.4
78388.4
81299.5
83970.4
86400.7
88605.4
90606.1
92422.2
94064.8
95534.4
96823.7
97923.2
98827.7
99541.3
100080
100473
100755
100967
101146
101323
101518
101740
101983
102234
102471
102671
102810
102871
102845
102727
102524
102246
101911
101535
101136
100729
100324
99930.4
99549.8
99181.9
98823.4
98469
98113.1
97750.5
97376.6
96988.3
96584.2
96164.7
95731.1
95285.9
94832.3
94373.4
93912.3
93451.9
92994.7
92542
92095.1
91654.6
91220.2
90791.6
90368.5
89950.7
89537.7
89129
88724.1
88323.3
87927.1
87536
87150.1
86769.2
86393.1
86022.2
85656.7
85298
84930.5
90140.9
51550.5
17672.5
7897.64
14560
23732.4
29033.2
30986.2
32220
34421.7
37764.1
41621.7
45383.7
48807.2
51949.4
54960
57944.6
60942.1
63958.4
66996.4
70061.7
73154.2
76259.3
79347.6
82378.3
85305.9
88086.6
90683.8
93072.9
95243.5
97197.5
98944.7
100497
101860
103038
104024
104816
105412
105822
106064
106169
106175
106123
106051
105990
105960
105971
106016
106082
106147
106185
106174
106093
105929
105678
105344
104937
104472
103969
103444
102913
102391
101885
101399
100933
100484
100047
99615.4
99182.8
98743.9
98294.4
97831.9
97355.8
96867.3
96368.4
95862.3
95352.5
94842.4
94334.7
93832.2
93336.6
92848.6
92368.8
91897.3
91433.9
90977.9
90528
90083.7
89644.7
89210.9
88782.4
88359
87940.5
87526.9
87118.6
86716
86319.5
85928.9
85544.8
85150.7
95182.5
60485.8
26493.2
16343.9
23217.8
32882.8
38698.8
41089.5
42648.9
45078
48596.3
52615.7
56525.6
60060.6
63259
66272.8
69226.2
72177.1
75136.6
78097.1
81045.7
83966.4
86840.7
89649
92371.2
94986
97470.2
99799.3
101951
103907
105659
107204
108542
109675
110602
111321
111833
112141
112261
112217
112043
111780
111470
111154
110861
110612
110415
110265
110146
110035
109908
109738
109506
109198
108806
108334
107792
107194
106559
105905
105250
104608
103987
103394
102828
102286
101763
101251
100745
100235
99719.4
99193.2
98655.8
98108
97552
96990.6
96427.5
95866.4
95310.1
94760.9
94220.6
93690.5
93170.9
92661.5
92161.1
91669.2
91185
90708.1
90237.9
89773.4
89314.1
88859.6
88410.5
87967
87529.7
87098.8
86673.9
86254.7
85842.6
85420
97110.8
63829.6
29871.9
19941
27436.9
37878.9
44454.4
47509.5
49608.5
52467.9
56355.6
60727.1
64984.6
68843.5
72321
75566.4
78719.7
81856.2
84990.4
88097.8
91138.4
94072.7
96870.9
99519.5
102020
104381
106607
108696
110634
112404
113986
115365
116531
117474
118190
118675
118933
118976
118822
118504
118060
117536
116976
116421
115902
115439
115038
114694
114390
114102
113805
113471
113081
112619
112078
111461
110777
110040
109270
108484
107703
106939
106204
105503
104837
104201
103591
102997
102413
101831
101245
100652
100051
99441.9
98827
98209.4
97592.1
96978.5
96372.1
95775.3
95189.7
94616.1
94054.3
93503.9
92964.6
92435.5
91915.8
91404.1
90899.4
90400.7
89908
89421.3
88940.8
88466.7
87998.7
87536.8
87081.3
86632.2
86190.9
85738.8
95800.5
61356
27683.2
18814.1
27617.2
39348.1
47117.9
51255.6
54312.3
58001.5
62604
67594
72383.7
76687.7
80523.3
84053.6
87445
90802.6
94162.5
97502.4
100757
103847
106709
109317
111681
113837
115826
117673
119386
120955
122358
123571
124569
125334
125852
126118
126137
125923
125505
124919
124210
123429
122622
121832
121090
120415
119812
119274
118783
118315
117843
117340
116785
116163
115466
114697
113865
112984
112074
111155
110245
109360
108510
107702
106935
106206
105509
104833
104171
103515
102858
102197
101531
100859
100184
99508.6
98835.9
98169.5
97512.4
96866.6
96233.5
95614.1
95008.5
94416.6
93837.5
93269.6
92711.5
92162.1
91620.7
91086.9
90560.4
90040.8
89527.6
89020.5
88519.9
88026.1
87539.5
87060.1
86588.8
86105.4
90533.8
51757.9
18595.8
11692.1
22542.6
36163.4
45690.8
51473.5
56051.2
61114
66929.6
72976.1
78677.1
83760.3
88254
92335.1
96190.5
99944.8
103639
107245
110683
113862
116718
119236
121447
123402
125157
126757
128229
129577
130783
131816
132641
133227
133554
133610
133399
132940
132265
131419
130453
129420
128371
127349
126385
125499
124692
123959
123278
122626
121975
121298
120573
119785
118927
118002
117017
115990
114939
113885
112848
111842
110879
109965
109099
108278
107493
106735
105995
105263
104535
103806
103073
102338
101603
100870
100142
99422.5
98713.9
98018.4
97337.9
96673.1
96024.1
95389.8
94768.9
94160
93562.2
92974.7
92396.6
91827.3
91265.7
90711.1
90163.2
89622.4
89089
88563.3
88045.3
87534.4
87031.6
86516.2
80273.3
33442.8
1522.47
-1942.81
12126.4
28600.2
40726.6
48855.1
55507
62372.7
69739.3
77122
83987.7
90097.3
95500.9
100394
104981
109396
113670
117746
121514
124866
127735
130112
132060
133676
135070
136327
137491
138565
139525
140333
140946
141321
141429
141253
140795
140078
139138
138024
136795
135506
134211
132954
131766
130663
129649
128713
127837
126994
126157
125299
124399
123442
122421
121338
120202
119031
117843
116659
115498
114375
113302
112283
111318
110403
109529
108686
107865
107057
106255
105456
104658
103860
103066
102277
101495
100723
99964.3
99221
98494.4
97784.7
97091.2
96413.1
95749.6
95099.8
94462.7
93837.1
93221.6
92615
92016.5
91425.9
90843.1
90268.6
89702.3
89144.2
88593.7
88050.4
87515.5
86967.7
62047
1075.95
-28786.7
-26673.9
-7299.88
14173.2
30999.7
43263.7
53342.1
62967
72551.5
81745.2
90123.9
97521.6
104035
109889
115308
120430
125281
129789
133831
137297
140125
142328
143981
145206
146135
146893
147571
148208
148789
149264
149573
149660
149484
149022
148277
147271
146045
144651
143152
141605
140066
138576
137166
135851
134630
133492
132418
131380
130352
129307
128227
127097
125912
124675
123395
122087
120770
119464
118186
116950
115768
114642
113575
112561
111593
110661
109755
108868
107993
107125
106263
105407
104556
103713
102880
102060
101254
100466
99693.4
98938.4
98200.5
97479.5
96774.5
96084.4
95407.8
94742.9
94088.3
93443.2
92807.4
92180.6
91563.1
90954.7
90354.9
89763.3
89179.6
88603.4
88036.2
87455.9
33170
-49725
-76131.2
-66280.1
-40226.6
-12295.1
11046.3
29353.5
44624.7
58561.3
71709.2
83868.1
94732.4
104221
112492
119813
126431
132496
138032
142971
147210
150669
153331
155253
156550
157369
157856
158136
158299
158405
158479
158495
158391
158100
157567
156765
155690
154367
152839
151162
149396
147602
145830
144123
142504
140987
139568
138233
136962
135729
134506
133271
132007
130705
129360
127976
126562
125130
123696
122277
120889
119545
118254
117021
115848
114730
113662
112637
111645
110679
109731
108798
107875
106963
106060
105169
104291
103426
102576
101742
100925
100126
99345.6
98582.8
97836.7
97105.8
96388.2
95682.7
94988.4
94304.8
93631.7
92969.1
92316.6
91673.6
91039.6
90414.1
89797
89188.2
88588.8
87976.3
-17113.6
-133786
-146423
-116040
-74456.1
-35379.3
-3887.36
20456.4
40473.4
58457.9
75181.3
90447.2
103919
115527
125476
134082
141630
148286
154097
159030
163037
166102
168272
169654
170399
170667
170607
170340
169951
169490
168972
168398
167736
166926
165912
164661
163170
161463
159584
157588
155534
153479
151471
149544
147719
146003
144388
142858
141389
139959
138542
137120
135679
134212
132718
131201
129669
128130
126596
125079
123592
122145
120749
119408
118127
116904
115736
114615
113536
112490
111471
110474
109496
108533
107584
106648
105725
104816
103922
103044
102185
101343
100521
99715.7
98927.1
98153.5
97393.8
96647.3
95913.3
95191.4
94481.3
93782.7
93094.8
92417
91748.7
91089.8
90440
89799.1
89168.4
88524.6
-111663
-307010
-311989
-245180
-165166
-94354.8
-40151.2
-820.38
29393
55085.1
78021.8
98251.8
115529
129930
141838
151728
159993
166890
172548
177028
180380
182682
184062
184677
184701
184297
183600
182715
181712
180626
179471
178239
176917
175481
173889
172116
170161
168046
165813
163512
161195
158909
156693
154576
152570
150677
148886
147177
145528
143916
142323
140732
139136
137529
135912
134286
132657
131030
129413
127812
126237
124698
123204
121762
120377
119051
117783
116570
115407
114287
113204
112151
111122
110112
109119
108140
107174
106223
105287
104368
103466
102583
101717
100868
100035
99217.7
98415.7
97628.1
96854.3
96093.9
95346.5
94611.5
93888.1
93175.7
92474
91782.5
91101.2
90429.6
89769
89095.8
-221531
-454593
-447156
-363849
-265730
-169190
-87413.3
-24980.9
22373.5
60129.5
91189.7
116585
136933
153009
165664
175641
183490
189581
194153
197381
199424
200450
200646
200197
199275
198019
196540
194911
193182
191373
189493
187537
185502
183388
181181
178870
176460
173972
171436
168894
166381
163932
161571
159314
157167
155126
153181
151313
149503
147733
145987
144253
142526
140802
139081
137361
135645
133933
132231
130541
128873
127235
125637
124087
122595
121166
119802
118502
117262
116076
114934
113829
112753
111699
110663
109643
108636
107644
106667
105705
104761
103833
102923
102029
101152
100291
99446.7
98617.7
97803.7
97004.1
96218.5
95446.3
94687.2
93940.5
93206
92483.3
91772
91071.8
90383.8
89683.9
-983842
-1.35034e+06
-918757
-597511
-414290
-271729
-152137
-58456.1
12850.4
67498.6
109584
141337
164867
182154
194772
203917
210443
214925
217746
219194
219527
218990
217806
216161
214195
212010
209680
207249
204735
202145
199477
196736
193930
191082
188202
185299
182389