/*--------------------------------*- C++ -*----------------------------------*\
| =========                 |                                                 |
| \\      /  F ield         | OpenFOAM: The Open Source CFD Toolbox           |
|  \\    /   O peration     | Version:  2412                                  |
|   \\  /    A nd           | Website:  www.openfoam.com                      |
|    \\/     M anipulation  |                                                 |
\*---------------------------------------------------------------------------*/
FoamFile
{
    version     2.0;
    format      ascii;
    arch        "LSB;label=32;scalar=64";
    class       surfaceScalarField;
    location    "7";
    object      phi;
}
// * * * * * * * * * * * * * * * * * * * * * * * * * * * * * * * * * * * * * //

dimensions      [0 3 -1 0 0 0 0];

oriented        oriented;

internalField   nonuniform List<scalar> 
39700
(
-77.0774
8.57625
-55.6762
-21.4012
-43.4398
-12.2364
-34.6326
-8.80728
-28.3999
-6.23282
-23.9225
-4.47744
-20.6478
-3.27487
-18.2091
-2.43893
-16.3623
-1.84707
-14.9389
-1.42373
-13.8205
-1.11873
-12.923
-0.897881
-12.1861
-0.737394
-11.5662
-0.620449
-11.0318
-0.535019
-10.56
-0.47243
-10.1343
-0.426386
-9.74279
-0.392298
-9.37681
-0.366816
-9.03023
-0.34749
-8.69866
-0.332531
-8.37907
-0.320636
-8.06932
-0.310857
-7.768
-0.302507
-7.47416
-0.295095
-7.18723
-0.28827
-6.90686
-0.281791
-6.63288
-0.275494
-6.3652
-0.269276
-6.10381
-0.263078
-5.84874
-0.256869
-5.59999
-0.250641
-5.3576
-0.244399
-5.12156
-0.238156
-4.89186
-0.231936
-4.66846
-0.225764
-4.45129
-0.21967
-4.24025
-0.213684
-4.0352
-0.207834
-3.836
-0.202144
-3.64248
-0.196628
-3.45448
-0.191294
-3.27181
-0.186141
-3.09432
-0.181167
-2.92184
-0.176374
-2.75419
-0.171768
-2.59118
-0.167366
-2.43262
-0.163189
-2.27826
-0.159264
-2.12786
-0.155617
-1.98113
-0.152273
-1.83779
-0.149254
-1.69752
-0.14657
-1.56003
-0.144226
-1.42501
-0.142232
-1.29216
-0.140602
-1.16115
-0.139349
-1.03167
-0.138508
-0.903297
-0.138163
-0.775555
-0.138418
-0.648001
-0.13926
-0.520423
-0.140502
-0.392912
-0.141894
-0.265614
-0.143468
-0.13869
-0.145328
-0.0124878
-0.147488
0.111732
-0.149374
0.230035
-0.148947
0.334463
-0.143533
0.403943
-0.123419
0.404221
-0.0873108
0.356571
-0.0717402
0.37099
-0.105453
0.436422
-0.113067
0.514536
-0.111623
0.597556
-0.110586
0.683617
-0.110218
0.766328
-0.105845
0.832485
-0.0901421
0.879431
-0.071576
0.915997
-0.0600372
0.94908
-0.0545705
0.981485
-0.0522157
1.01422
-0.0511614
1.04608
-0.0492038
1.0742
-0.0447151
1.09718
-0.0391286
1.11566
-0.0342776
1.13066
-0.0304433
1.1428
-0.0272709
1.15233
-0.0243759
1.159
-0.0212836
1.16243
-0.0178836
1.16226
-0.0141519
1.15777
-0.00975675
1.14786
-0.00430508
1.1312
0.002372
1.10597
0.0107959
1.06947
0.0218654
0.0367917
1.01772
7.11021
-1.43556
-8.52167
-5.76939
-13.1916
-7.56657
-14.4507
-7.54823
-14.5313
-6.15236
-14.2416
-4.7673
-13.8113
-3.70542
-13.3254
-2.9251
-12.8343
-2.3385
-12.361
-1.89735
-11.9138
-1.56637
-11.4932
-1.31895
-11.0965
-1.13465
-10.7198
-0.997738
-10.3593
-0.896149
-10.0118
-0.820678
-9.67464
-0.764353
-9.34587
-0.721924
-9.02414
-0.689467
-8.70855
-0.664067
-8.39857
-0.643578
-8.0939
-0.626435
-7.79447
-0.611506
-7.50028
-0.597985
-7.21145
-0.585305
-6.9281
-0.57308
-6.65039
-0.561055
-6.37847
-0.549067
-6.11247
-0.537026
-5.85251
-0.524892
-5.59868
-0.512657
-5.35106
-0.500341
-5.10967
-0.487979
-4.87453
-0.475616
-4.64563
-0.463301
-4.4229
-0.451088
-4.20629
-0.439026
-3.9957
-0.427166
-3.79105
-0.415555
-3.5922
-0.404237
-3.399
-0.393253
-3.21129
-0.382634
-3.02885
-0.372411
-2.85147
-0.362608
-2.6789
-0.353246
-2.51088
-0.344339
-2.34718
-0.335904
-2.18753
-0.327957
-2.03172
-0.320523
-1.8795
-0.313627
-1.73064
-0.307289
-1.58494
-0.301529
-1.44217
-0.296354
-1.30214
-0.291768
-1.16462
-0.287807
-1.02938
-0.284503
-0.896294
-0.281767
-0.765515
-0.279391
-0.637239
-0.277419
-0.511454
-0.276194
-0.388066
-0.275821
-0.267205
-0.275938
-0.150032
-0.275337
-0.0387167
-0.273152
0.0626961
-0.267766
0.146429
-0.25571
0.215995
-0.248125
0.281593
-0.250028
0.337987
-0.24471
0.379183
-0.225769
0.424382
-0.206329
0.496754
-0.205842
0.555037
-0.204506
0.610124
-0.200618
0.664097
-0.193756
0.712349
-0.184075
0.751915
-0.173323
0.783532
-0.160345
0.814701
-0.144023
0.849098
-0.128368
0.88362
-0.116322
0.915946
-0.107894
0.944779
-0.101341
0.969436
-0.0955437
0.990515
-0.089558
1.00947
-0.0825748
1.02671
-0.0748678
1.04202
-0.0676288
1.0555
-0.0615385
1.06738
-0.0564041
1.07758
-0.0515331
1.08576
-0.0461695
1.09147
-0.0401181
1.09444
-0.0335198
1.09465
-0.026311
1.09198
-0.0180002
1.0861
-0.00825902
1.07726
0.00295531
1.06678
0.0156063
0.0296179
1.05751
12.541
-0.170917
7.49439
-0.722864
2.33803
-2.41038
-2.25938
-2.95111
-4.98424
-3.4278
-6.83919
-2.91266
-8.0595
-2.48543
-8.86025
-2.12471
-9.37265
-1.8265
-9.67853
-1.59192
-9.83196
-1.41342
-9.87034
-1.2811
-9.82107
-1.1845
-9.70487
-1.11457
-9.5377
-1.064
-9.332
-1.02712
-9.09756
-0.999595
-8.84209
-0.978252
-8.57172
-0.960768
-8.29128
-0.945496
-8.00462
-0.931297
-7.71478
-0.917409
-7.42415
-0.903347
-7.1346
-0.888822
-6.84759
-0.873689
-6.56423
-0.857899
-6.28537
-0.841467
-6.01163
-0.824454
-5.74347
-0.806943
-5.48118
-0.789033
-5.22498
-0.770829
-4.97497
-0.752441
-4.73118
-0.733973
-4.49362
-0.715528
-4.2622
-0.697201
-4.03684
-0.679079
-3.81741
-0.661239
-3.60378
-0.643751
-3.3958
-0.626674
-3.19329
-0.610064
-2.99609
-0.593972
-2.80402
-0.578447
-2.61686
-0.563534
-2.43441
-0.549277
-2.25643
-0.535711
-2.08269
-0.522861
-1.91294
-0.510737
-1.747
-0.49934
-1.58466
-0.488667
-1.42581
-0.478706
-1.27035
-0.469424
-1.11825
-0.460814
-0.969551
-0.452811
-0.824488
-0.445225
-0.683342
-0.438072
-0.546244
-0.43155
-0.413397
-0.425529
-0.285759
-0.419075
-0.16496
-0.411611
-0.0531191
-0.403063
0.0457163
-0.391703
0.132741
-0.382576
0.215487
-0.380937
0.291779
-0.376521
0.355407
-0.364603
0.400149
-0.343254
0.431454
-0.326701
0.464574
-0.322901
0.503165
-0.314867
0.552572
-0.303076
0.611863
-0.289839
0.663211
-0.277639
0.70638
-0.266442
0.742982
-0.255173
0.772953
-0.241468
0.797631
-0.226766
0.81864
-0.212735
0.838703
-0.199092
0.861667
-0.1857
0.888094
-0.173227
0.915712
-0.161935
0.941795
-0.151576
0.96464
-0.141513
0.98364
-0.131725
0.999421
-0.122448
1.01355
-0.113749
1.0274
-0.105658
1.0412
-0.0981763
1.0543
-0.0911353
1.06593
-0.0843046
1.07564
-0.0773463
1.08348
-0.0699885
1.08962
-0.062189
1.09407
-0.0538811
1.09673
-0.0449017
1.09773
-0.0350096
1.09754
-0.0241823
1.09684
-0.0125653
1.09621
-1.77433e-05
0.0135504
1.09633
10.6164
0.131188
9.54489
0.348606
6.69745
0.43686
3.13097
0.615013
-0.701898
0.404383
-3.60125
-0.014059
-5.25399
-0.833257
-6.50305
-0.876144
-7.43401
-0.89605
-8.10682
-0.919625
-8.56552
-0.955274
-8.84536
-1.00185
-8.98059
-1.04989
-9.00126
-1.09457
-8.93267
-1.13331
-8.79563
-1.16492
-8.60699
-1.18906
-8.38021
-1.20591
-8.12599
-1.21593
-7.85274
-1.21976
-7.56703
-1.21808
-7.27397
-1.21162
-6.97749
-1.20106
-6.68057
-1.18705
-6.38551
-1.17016
-6.09397
-1.15093
-5.8072
-1.12982
-5.52609
-1.10726
-5.25122
-1.08361
-4.98298
-1.05919
-4.72157
-1.03428
-4.46706
-1.00912
-4.21942
-0.983918
-3.97855
-0.958852
-3.74429
-0.934069
-3.51645
-0.90969
-3.29482
-0.885817
-3.07918
-0.862529
-2.86931
-0.839889
-2.66498
-0.817952
-2.46599
-0.796761
-2.27214
-0.776353
-2.08325
-0.756761
-1.89915
-0.738009
-1.71973
-0.720115
-1.54487
-0.703065
-1.37453
-0.686831
-1.20873
-0.671342
-1.04757
-0.656547
-0.891195
-0.642379
-0.739954
-0.628618
-0.594201
-0.615275
-0.454341
-0.602254
-0.321467
-0.588711
-0.197021
-0.574354
-0.0828291
-0.559058
0.0188877
-0.542382
0.110862
-0.528466
0.19608
-0.517065
0.271479
-0.502378
0.334394
-0.483692
0.385319
-0.466301
0.430633
-0.456689
0.473972
-0.445423
0.516682
-0.42996
0.565357
-0.412901
0.616246
-0.396456
0.657967
-0.381538
0.693661
-0.366643
0.72571
-0.350786
0.755464
-0.335115
0.782413
-0.320163
0.805973
-0.305696
0.826188
-0.291252
0.845342
-0.276661
0.864858
-0.262383
0.884601
-0.248528
0.904353
-0.234827
0.924207
-0.221471
0.943879
-0.20874
0.962891
-0.196719
0.980907
-0.185305
0.998003
-0.174275
1.01422
-0.163556
1.02944
-0.153196
1.04354
-0.14329
1.05652
-0.133979
1.06838
-0.125294
1.07908
-0.117029
1.08854
-0.108916
1.09682
-0.100753
1.10407
-0.0923657
1.11037
-0.0836221
1.1157
-0.0743651
1.12006
-0.0644281
1.12354
-0.0537105
1.12639
-0.0423
1.129
-0.0304825
1.13207
-0.0184318
-0.00612241
1.13661
12.3265
-0.142164
11.3826
1.29237
8.7498
3.06951
5.52182
3.84269
1.798
4.12766
-1.24572
3.02864
-3.76077
1.68072
-5.58398
0.946337
-6.89195
0.411313
-7.79143
-0.0207391
-8.36586
-0.381455
-8.69184
-0.67649
-8.83123
-0.911139
-8.83137
-1.09512
-8.72863
-1.23678
-8.55089
-1.34344
-8.31949
-1.4213
-8.05069
-1.47561
-7.75682
-1.51076
-7.4472
-1.5304
-7.12882
-1.53757
-6.80687
-1.53475
-6.48519
-1.52401
-6.16656
-1.50702
-5.85301
-1.48516
-5.54593
-1.45956
-5.24629
-1.43112
-4.95469
-1.40063
-4.6715
-1.36869
-4.39686
-1.33584
-4.13079
-1.30251
-3.87317
-1.26905
-3.6238
-1.23575
-3.38243
-1.20285
-3.14878
-1.17053
-2.92256
-1.13892
-2.70346
-1.10813
-2.4912
-1.07822
-2.28554
-1.04924
-2.08624
-1.02121
-1.89312
-0.994143
-1.70602
-0.968034
-1.52484
-0.942885
-1.34954
-0.918655
-1.18011
-0.895341
-1.01664
-0.872834
-0.859287
-0.85106
-0.708415
-0.829749
-0.564501
-0.808757
-0.428013
-0.78805
-0.300016
-0.766845
-0.18157
-0.745205
-0.0741036
-0.722727
0.0218925
-0.6996
0.108806
-0.678489
0.186653
-0.657065
0.255247
-0.634581
0.316982
-0.614675
0.37486
-0.596775
0.430063
-0.576918
0.485246
-0.556925
0.539953
-0.53776
0.587323
-0.519515
0.627635
-0.500507
0.663868
-0.480665
0.697736
-0.461052
0.729293
-0.442199
0.757722
-0.424145
0.783598
-0.406716
0.808407
-0.389793
0.832486
-0.373351
0.855341
-0.357131
0.876651
-0.34111
0.896607
-0.325332
0.915604
-0.309809
0.933643
-0.294597
0.950728
-0.279817
0.967222
-0.265559
0.983386
-0.251896
0.999194
-0.238815
1.01449
-0.226274
1.02914
-0.214216
1.04311
-0.202508
1.0564
-0.191112
1.06907
-0.180129
1.08118
-0.169657
1.09267
-0.159716
1.10337
-0.150203
1.11308
-0.140928
1.12171
-0.131724
1.12926
-0.122482
1.13579
-0.113074
1.14136
-0.103389
1.14613
-0.0933542
1.15039
-0.0829513
1.15458
-0.0722053
1.15914
-0.0611829
1.16431
-0.0500013
1.17039
-0.038854
-0.0280198
1.17817
16.3968
-2.49416
15.3137
2.37537
8.69981
9.68334
2.83427
9.70802
-1.73466
8.69621
-4.73284
6.02627
-6.9101
3.85749
-8.34133
2.37712
-9.2093
1.2788
-9.66047
0.429902
-9.81822
-0.224259
-9.77978
-0.715516
-9.6062
-1.08533
-9.34183
-1.36015
-9.01808
-1.56124
-8.65726
-1.70501
-8.27523
-1.80415
-7.88321
-1.86852
-7.4891
-1.90583
-7.09841
-1.92212
-6.71491
-1.92219
-6.34109
-1.90978
-5.97852
-1.88788
-5.62811
-1.85883
-5.2903
-1.82447
-4.96522
-1.78626
-4.65275
-1.74533
-4.35264
-1.70261
-4.06453
-1.65881
-3.788
-1.61453
-3.52259
-1.57023
-3.26782
-1.5263
-3.02321
-1.48303
-2.78827
-1.44066
-2.56254
-1.39933
-2.34563
-1.35915
-2.13714
-1.32019
-1.93674
-1.28247
-1.74416
-1.24597
-1.55916
-1.2107
-1.38161
-1.17656
-1.21142
-1.1435
-1.04855
-1.11151
-0.89309
-1.0804
-0.74512
-1.0502
-0.604923
-1.02061
-0.472691
-0.991676
-0.349022
-0.962741
-0.234741
-0.933466
-0.13058
-0.903965
-0.0372544
-0.873529
0.0471197
-0.844882
0.123898
-0.817197
0.194835
-0.7897
0.262265
-0.764233
0.327147
-0.738732
0.390109
-0.713327
0.448902
-0.688279
0.501014
-0.66298
0.548611
-0.638261
0.592771
-0.614567
0.633615
-0.591894
0.670867
-0.569942
0.705584
-0.548323
0.73867
-0.526775
0.77022
-0.505547
0.800075
-0.484934
0.828114
-0.465014
0.854354
-0.445751
0.878871
-0.427081
0.901688
-0.40893
0.922999
-0.391214
0.942987
-0.373891
0.961794
-0.356959
0.979594
-0.34046
0.996574
-0.324463
1.01289
-0.309051
1.02862
-0.294248
1.04378
-0.280048
1.05837
-0.266421
1.07236
-0.253304
1.08569
-0.240612
1.09837
-0.228257
1.1104
-0.216238
1.12178
-0.204616
1.13243
-0.193409
1.14218
-0.182582
1.15093
-0.17206
1.15862
-0.161752
1.16531
-0.151561
1.17106
-0.141412
1.17604
-0.131255
1.18045
-0.121051
1.18456
-0.110752
1.18859
-0.100302
1.19271
-0.0896921
1.19714
-0.0790138
1.2022
-0.0684743
1.20828
-0.0583629
-0.0490216
1.21606
18.4815
-5.08657
-0.17535
21.0322
-10.1412
19.6491
-14.3498
13.9165
-15.3062
9.65244
-15.5145
6.23435
-15.3711
3.71389
-14.8308
1.83655
-14.1048
0.552433
-13.3177
-0.357609
-12.5173
-1.02511
-11.7267
-1.50665
-10.9651
-1.84747
-10.2409
-2.08495
-9.55742
-2.24534
-8.91536
-2.34779
-8.31378
-2.40654
-7.7509
-2.43228
-7.22449
-2.43319
-6.73213
-2.41553
-6.2713
-2.38415
-5.83955
-2.34277
-5.4345
-2.29427
-5.05396
-2.24083
-4.69589
-2.18412
-4.35845
-2.1254
-4.03998
-2.06564
-3.73898
-2.00559
-3.45413
-1.94581
-3.18421
-1.88675
-2.92815
-1.82879
-2.68498
-1.77216
-2.45383
-1.71709
-2.23391
-1.66372
-2.02455
-1.61208
-1.8252
-1.56217
-1.63539
-1.51397
-1.45469
-1.46749
-1.28282
-1.42253
-1.11946
-1.37915
-0.964459
-1.33712
-0.817826
-1.29621
-0.679413
-1.25658
-0.549397
-1.21773
-0.427841
-1.17983
-0.315197
-1.14221
-0.211611
-1.10523
-0.117653
-1.06787
-0.0323463
-1.03135
0.0466223
-0.997165
0.120609
-0.962967
0.191311
-0.930909
0.259359
-0.899738
0.324276
-0.868371
0.384143
-0.837286
0.439585
-0.80702
0.491313
-0.777657
0.539705
-0.749102
0.58552
-0.721099
0.629046
-0.693966
0.670229
-0.667808
0.708935
-0.642556
0.745176
-0.618058
0.779196
-0.594156
0.811386
-0.570732
0.841945
-0.547837
0.870897
-0.525588
0.898233
-0.504026
0.923955
-0.483135
0.948101
-0.462883
0.970747
-0.443239
0.992019
-0.424166
1.01206
-0.405636
1.03101
-0.387636
1.04895
-0.370168
1.06596
-0.353263
1.08207
-0.336975
1.0973
-0.321318
1.11164
-0.306261
1.12506
-0.291748
1.13757
-0.277734
1.14918
-0.264187
1.15999
-0.251066
1.17006
-0.23833
1.17934
-0.225955
1.18778
-0.213931
1.19534
-0.202253
1.20202
-0.19089
1.20786
-0.179775
1.2129
-0.168835
1.21724
-0.158029
1.22099
-0.147338
1.22429
-0.136733
1.22728
-0.126186
1.23018
-0.115694
1.23323
-0.105296
1.2367
-0.0950832
1.24081
-0.0852131
1.24569
-0.0759103
-0.0674805
1.25166
-40.6271
-2.24404
-47.8928
28.2978
-42.9244
14.6807
-37.7818
8.77385
-32.782
4.65259
-28.5257
1.97793
-24.9385
0.126482
-21.9184
-1.18376
-19.3131
-2.05314
-17.0657
-2.60531
-15.1484
-2.94273
-13.5117
-3.14382
-12.1068
-3.25286
-10.8939
-3.29833
-9.84067
-3.29923
-8.92033
-3.26883
-8.11102
-3.21663
-7.39472
-3.14944
-6.75668
-3.07219
-6.18476
-2.98852
-5.66898
-2.9011
-5.20113
-2.81191
-4.77442
-2.72238
-4.38326
-2.63352
-4.02302
-2.54602
-3.6899
-2.46034
-3.38073
-2.37678
-3.09284
-2.29561
-2.82403
-2.21694
-2.57243
-2.14087
-2.33638
-2.06756
-2.11454
-1.99695
-1.90574
-1.92909
-1.70893
-1.864
-1.52326
-1.80151
-1.3481
-1.7414
-1.18298
-1.68353
-1.02732
-1.62797
-0.880865
-1.57423
-0.74318
-1.52257
-0.614027
-1.47254
-0.493538
-1.42357
-0.381306
-1.37637
-0.277611
-1.32976
-0.18264
-1.28403
-0.0956594
-1.23942
-0.0143543
-1.19792
0.0620375
-1.15678
0.134875
-1.11718
0.204635
-1.07955
0.271457
-1.04192
0.333951
-1.00518
0.392155
-0.969489
0.447012
-0.934621
0.499129
-0.900678
0.548668
-0.867725
0.595684
-0.835743
0.640282
-0.80469
0.682768
-0.774507
0.723194
-0.745253
0.76153
-0.716949
0.797776
-0.689561
0.832009
-0.663014
0.864383
-0.637227
0.895097
-0.612127
0.924276
-0.587687
0.951944
-0.563918
0.978092
-0.540835
1.00273
-0.518437
1.02589
-0.496716
1.04762
-0.475663
1.068
-0.45526
1.08712
-0.435498
1.10509
-0.41637
1.12199
-0.397872
1.13789
-0.379999
1.1528
-0.362747
1.16669
-0.346114
1.17959
-0.330091
1.19151
-0.31465
1.20251
-0.299744
1.21259
-0.285317
1.22174
-0.271313
1.22996
-0.257698
1.23729
-0.244474
1.24376
-0.231644
1.2494
-0.219189
1.25424
-0.207083
1.25835
-0.195296
1.26184
-0.183803
1.26485
-0.172576
1.26748
-0.161576
1.26983
-0.150763
1.27203
-0.14012
1.27419
-0.129659
1.27644
-0.119412
1.27887
-0.109439
1.28151
-0.099825
1.28427
-0.0906812
-0.0821584
1.28707
-168.092
6.81495
-122.941
-16.8535
-94.6029
-13.6572
-72.3378
-13.4912
-55.6709
-12.0144
-43.4431
-10.2499
-34.3602
-8.95652
-27.6788
-7.86537
-22.7068
-7.02532
-18.9356
-6.37671
-16.0157
-5.86302
-13.7147
-5.44519
-11.872
-5.09603
-10.3732
-4.79763
-9.13628
-4.53678
-8.10175
-4.30406
-7.22559
-4.09359
-6.47481
-3.90113
-5.82444
-3.72357
-5.25539
-3.55868
-4.75293
-3.4048
-4.30555
-3.26067
-3.90417
-3.12527
-3.5416
-2.99774
-3.21208
-2.87735
-2.91099
-2.7634
-2.63464
-2.65528
-2.37986
-2.55274
-2.14411
-2.45524
-1.92531
-2.36244
-1.72161
-2.27427
-1.53156
-2.19028
-1.35398
-2.11023
-1.18782
-2.03404
-1.03222
-1.96131
-0.886619
-1.89158
-0.750702
-1.82443
-0.623706
-1.7604
-0.505436
-1.69843
-0.395516
-1.63897
-0.294053
-1.5811
-0.200786
-1.52463
-0.113398
-1.47231
-0.0312917
-1.42128
0.046323
-1.37194
0.120379
-1.32425
0.190957
-1.27913
0.258389
-1.2346
0.322284
-1.19129
0.381892
-1.14923
0.438312
-1.10833
0.49188
-1.06869
0.542746
-1.03023
0.591181
-0.992893
0.637357
-0.956656
0.681357
-0.921496
0.723254
-0.887387
0.763143
-0.854307
0.801151
-0.822228
0.837333
-0.791137
0.871707
-0.761019
0.904297
-0.731843
0.935154
-0.703567
0.964363
-0.676139
0.992032
-0.649511
1.01826
-0.623644
1.04311
-0.598519
1.06663
-0.574125
1.08885
-0.55045
1.1098
-0.527489
1.12952
-0.505234
1.14804
-0.483677
1.16543
-0.462803
1.1817
-0.442601
1.19688
-0.423058
1.21101
-0.40417
1.22411
-0.385939
1.23622
-0.368355
1.24734
-0.351394
1.25748
-0.335021
1.26666
-0.319207
1.27494
-0.303927
1.28239
-0.289152
1.28909
-0.274851
1.2951
-0.261
1.30046
-0.247576
1.30519
-0.23455
1.30931
-0.221901
1.31286
-0.209611
1.31589
-0.197659
1.31844
-0.186019
1.32057
-0.174661
1.32235
-0.163566
1.32387
-0.152729
1.3252
-0.142152
1.3264
-0.13184
1.32748
-0.121805
1.32837
-0.11206
1.32888
-0.102602
-0.0933984
1.32882
-66.5428
-18.5662
-61.1984
-22.1979
-51.1316
-23.7241
-40.7467
-23.8761
-32.3054
-20.4558
-26.4259
-16.1296
-22.0246
-13.358
-18.5279
-11.3623
-15.7134
-9.84006
-13.4361
-8.65433
-11.5787
-7.72086
-10.0498
-6.97446
-8.78092
-6.36547
-7.71728
-5.86187
-6.81604
-5.43873
-6.04608
-5.07482
-5.38287
-4.7577
-4.807
-4.47802
-4.30297
-4.22873
-3.85846
-4.00446
-3.46359
-3.80107
-3.11048
-3.61532
-2.7928
-3.44465
-2.50546
-3.28695
-2.2443
-3.14055
-2.00594
-3.00401
-1.78778
-2.87588
-1.58721
-2.75598
-1.40208
-2.64328
-1.23076
-2.53692
-1.07163
-2.43684
-0.923502
-2.34215
-0.785495
-2.25231
-0.656907
-2.16706
-0.537341
-2.0857
-0.426715
-2.00746
-0.324519
-1.93235
-0.228892
-1.86226
-0.139372
-1.79476
-0.0552391
-1.73053
0.0243611
-1.66883
0.100387
-1.60927
0.17269
-1.55327
0.241492
-1.49866
0.306854
-1.44587
0.368971
-1.39489
0.427032
-1.34567
0.482035
-1.29808
0.534279
-1.25201
0.583962
-1.2074
0.631314
-1.16419
0.676447
-1.12233
0.719475
-1.08179
0.760538
-1.04251
0.799732
-1.00442
0.837141
-0.967497
0.872836
-0.931697
0.906877
-0.896987
0.939319
-0.863336
0.970206
-0.830717
0.999569
-0.799105
1.02744
-0.768466
1.05384
-0.738761
1.07883
-0.709954
1.10247
-0.682007
1.12482
-0.654892
1.14594
-0.628587
1.1659
-0.603076
1.18476
-0.578338
1.20255
-0.554353
1.21929
-0.531106
1.23503
-0.508588
1.24979
-0.486789
1.26362
-0.465697
1.27653
-0.4453
1.28857
-0.425586
1.29974
-0.406541
1.31005
-0.388149
1.3195
-0.370388
1.32812
-0.353234
1.33592
-0.336663
1.34293
-0.320651
1.34918
-0.305176
1.3547
-0.29021
1.35953
-0.275732
1.3637
-0.261716
1.36726
-0.248136
1.37023
-0.23497
1.37265
-0.222197
1.37456
-0.209806
1.37603
-0.197781
1.3771
-0.186105
1.37785
-0.174751
1.3783
-0.163686
1.37846
-0.152891
1.37833
-0.142352
1.37788
-0.132062
1.37705
-0.122011
1.37578
-0.112193
-0.102574
1.37418
42.7347
-2.97962
26.0793
-5.54255
14.4106
-12.0554
5.24173
-14.7074
-0.591346
-14.6229
-3.56944
-13.1518
-4.89728
-12.0304
-5.394
-10.8659
-5.45879
-9.77568
-5.29556
-8.81804
-5.01218
-8.00479
-4.66943
-7.31785
-4.30618
-6.72944
-3.94398
-6.22489
-3.59092
-5.7927
-3.25557
-5.4112
-2.94202
-5.07239
-2.65152
-4.76979
-2.38361
-4.49805
-2.13689
-4.25273
-1.90961
-4.03006
-1.69997
-3.82684
-1.50635
-3.64033
-1.32735
-3.46821
-1.16181
-3.30855
-1.00884
-3.15967
-0.867895
-3.01977
-0.737229
-2.88984
-0.615579
-2.7684
-0.502153
-2.65412
-0.396117
-2.54697
-0.296809
-2.4459
-0.203669
-2.35028
-0.116166
-2.25981
-0.0336207
-2.17396
0.044893
-2.09215
0.120036
-2.01399
0.191516
-1.94031
0.259548
-1.8694
0.323985
-1.80166
0.385079
-1.73669
0.443407
-1.67442
0.498011
-1.61473
0.549753
-1.55731
0.598968
-1.50205
0.645864
-1.4488
0.69057
-1.39745
0.733236
-1.34789
0.774016
-1.29999
0.813035
-1.25368
0.850397
-1.20886
0.886172
-1.16548
0.920419
-1.12347
0.953194
-1.08276
0.984551
-1.04331
1.01453
-1.00507
1.04318
-0.967994
1.07054
-0.932045
1.09663
-0.89719
1.1215
-0.863395
1.14515
-0.830625
1.16761
-0.79885
1.18891
-0.768037
1.20907
-0.738155
1.22815
-0.709175
1.24617
-0.681069
1.26318
-0.653813
1.27922
-0.627386
1.29432
-0.60177
1.30852
-0.576943
1.32184
-0.552886
1.33432
-0.529583
1.34598
-0.507022
1.35684
-0.48519
1.36691
-0.464074
1.37622
-0.44366
1.38478
-0.423929
1.39261
-0.404862
1.3997
-0.386438
1.40609
-0.368635
1.41177
-0.35143
1.41677
-0.334801
1.4211
-0.318725
1.42479
-0.30318
1.42785
-0.288146
1.43032
-0.273602
1.43222
-0.259529
1.4336
-0.245905
1.43448
-0.232708
1.43488
-0.219915
1.43483
-0.207503
1.43433
-0.19545
1.4334
-0.183742
1.43209
-0.172365
1.43043
-0.161303
1.42847
-0.150541
1.42626
-0.140068
1.42382
-0.129882
1.42123
-0.119982
-0.110332
1.41867
32.8758
-1.57881
31.8887
-4.5555
26.8292
-6.9959
20.3583
-8.23665
14.4962
-8.7609
10.2118
-8.86765
6.93177
-8.75067
4.52908
-8.46361
2.82685
-8.07396
1.65369
-7.64552
0.86298
-7.21489
0.341102
-6.79695
0.00659452
-6.39609
-0.200359
-6.01923
-0.322126
-5.67233
-0.384723
-5.3501
-0.405942
-5.0528
-0.398285
-4.77922
-0.3707
-4.52756
-0.329628
-4.2959
-0.279682
-4.08229
-0.224143
-3.88486
-0.165303
-3.70186
-0.104715
-3.53172
-0.0433372
-3.3731
0.0184533
-3.2249
0.0805051
-3.0855
0.14194
-2.95514
0.202174
-2.83263
0.260915
-2.717
0.317706
-2.60805
0.372418
-2.50504
0.425054
-2.40748
0.475566
-2.31502
0.524004
-2.22723
0.570598
-2.14371
0.615717
-2.06416
0.658607
-1.98836
0.699897
-1.91595
0.739584
-1.84671
0.777837
-1.78041
0.814709
-1.71685
0.850171
-1.65585
0.884333
-1.59723
0.917268
-1.54083
0.949036
-1.48651
0.979689
-1.43413
1.00927
-1.38358
1.03782
-1.33474
1.06538
-1.28751
1.09196
-1.24181
1.11759
-1.19755
1.14229
-1.15468
1.16605
-1.11313
1.1889
-1.07284
1.21085
-1.03376
1.23189
-0.995861
1.25204
-0.959089
1.27129
-0.923414
1.28965
-0.888801
1.30713
-0.855219
1.32373
-0.822636
1.33946
-0.791026
1.35433
-0.760361
1.36837
-0.730615
1.38159
-0.701763
1.39401
-0.673783
1.40566
-0.646652
1.41655
-0.620351
1.42671
-0.594861
1.43615
-0.570164
1.44491
-0.54624
1.45298
-0.523075
1.4604
-0.500651
1.46716
-0.478953
1.47327
-0.457964
1.47875
-0.437669
1.4836
-0.418048
1.48784
-0.399081
1.49147
-0.380747
1.49451
-0.363023
1.49698
-0.345889
1.49887
-0.329323
1.50022
-0.313303
1.50104
-0.297808
1.50134
-0.282821
1.50113
-0.268322
1.50045
-0.254293
1.4993
-0.240715
1.49773
-0.227568
1.49575
-0.214834
1.4934
-0.202492
1.49072
-0.190528
1.48774
-0.178925
1.48448
-0.16767
1.48098
-0.156754
1.47728
-0.146162
1.4734
-0.135876
1.46935
-0.125881
-0.116138
1.46526
27.9859
-1.02781
26.084
-2.65357
23.0569
-3.96895
19.7762
-4.95604
16.6722
-5.65704
13.9037
-6.09931
11.4888
-6.33608
9.44555
-6.42066
7.76236
-6.39117
6.39587
-6.27951
5.29241
-6.11202
4.40374
-5.90896
3.69232
-5.68546
3.12509
-5.45291
2.67114
-5.21941
2.30987
-4.98999
2.02354
-4.76776
1.79735
-4.55447
1.61924
-4.35103
1.47944
-4.15783
1.37018
-3.97491
1.28528
-3.802
1.21991
-3.63868
1.17026
-3.4844
1.13329
-3.33861
1.1065
-3.20075
1.08849
-3.07027
1.0772
-2.94677
1.07127
-2.82977
1.0699
-2.71883
1.0721
-2.61359
1.07722
-2.51364
1.08476
-2.41862
1.09422
-2.32821
1.10524
-2.2421
1.11754
-2.15999
1.13087
-2.08161
1.14498
-2.0067
1.15972
-1.93504
1.17494
-1.8664
1.19054
-1.80059
1.20641
-1.73741
1.22245
-1.67669
1.2386
-1.61828
1.25478
-1.56202
1.27094
-1.50778
1.28702
-1.45543
1.30297
-1.40485
1.31876
-1.35594
1.33433
-1.30859
1.34966
-1.26274
1.36471
-1.21829
1.37942
-1.17518
1.39377
-1.13335
1.40773
-1.09275
1.42126
-1.05334
1.43433
-1.01506
1.44692
-0.977891
1.459
-0.94179
1.47055
-0.90673
1.48155
-0.872682
1.49199
-0.83962
1.50186
-0.80752
1.51115
-0.776357
1.51985
-0.74611
1.52798
-0.716758
1.53553
-0.688281
1.54251
-0.660659
1.54892
-0.633873
1.55477
-0.607905
1.56008
-0.582737
1.56485
-0.558353
1.56908
-0.534734
1.57279
-0.511866
1.57598
-0.48973
1.57866
-0.46831
1.58084
-0.447587
1.58251
-0.427542
1.58369
-0.40816
1.58438
-0.38942
1.5846
-0.371302
1.58436
-0.353785
1.58367
-0.336848
1.58254
-0.320474
1.581
-0.304643
1.57906
-0.289336
1.57673
-0.274533
1.57403
-0.260215
1.57098
-0.246365
1.5676
-0.232966
1.5639
-0.220001
1.55991
-0.207453
1.55566
-0.195305
1.55116
-0.183537
1.54642
-0.172128
1.54145
-0.161059
1.53625
-0.150311
1.53079
-0.139863
1.52508
-0.129691
-0.119741
1.51922
22.8252
-0.626938
21.8634
-1.69173
20.516
-2.62162
18.9015
-3.34164
17.1452
-3.90094
15.3701
-4.32444
13.661
-4.62713
12.067
-4.82701
10.6172
-4.94171
9.32449
-4.98719
8.18967
-4.97767
7.20556
-4.9254
6.36013
-4.84066
5.63857
-4.73207
5.02508
-4.60673
4.50457
-4.47039
4.06333
-4.32754
3.68931
-4.18157
3.37208
-4.03504
3.10274
-3.88984
2.87374
-3.74738
2.67876
-3.6086
2.51251
-3.47414
2.3706
-3.34434
2.24939
-3.21936
2.14579
-3.09924
2.05726
-2.98396
1.98159
-2.87343
1.9169
-2.76756
1.86166
-2.66619
1.81453
-2.56919
1.77441
-2.47637
1.74037
-2.38755
1.71159
-2.30254
1.6874
-2.22114
1.66722
-2.14316
1.65054
-2.0684
1.63694
-1.99668
1.62602
-1.92783
1.61746
-1.86166
1.61096
-1.79803
1.60629
-1.73678
1.60321
-1.67777
1.60152
-1.62087
1.60106
-1.56594
1.60166
-1.51286
1.60318
-1.46154
1.60549
-1.41185
1.60847
-1.36371
1.61202
-1.31703
1.61603
-1.27173
1.62041
-1.22775
1.62507
-1.18502
1.62994
-1.14349
1.63492
-1.10311
1.63996
-1.06384
1.64499
-1.02564
1.64996
-0.988491
1.6548
-0.952359
1.65947
-0.91722
1.66394
-0.88305
1.66816
-0.849831
1.6721
-0.817541
1.67575
-0.786164
1.67907
-0.755682
1.68205
-0.726078
1.68469
-0.697336
1.68696
-0.66944
1.68887
-0.642373
1.69041
-0.61612
1.69158
-0.590664
1.69237
-0.56599
1.69279
-0.542082
1.69284
-0.518923
1.69251
-0.496498
1.69181
-0.47479
1.69075
-0.453782
1.68932
-0.433458
1.68753
-0.413798
1.68538
-0.394784
1.68289
-0.376399
1.68005
-0.358624
1.67688
-0.341439
1.67339
-0.324825
1.66959
-0.308764
1.66548
-0.293238
1.66109
-0.278229
1.65642
-0.263717
1.65148
-0.249686
1.64629
-0.236116
1.64086
-0.22299
1.63519
-0.21029
1.62929
-0.197996
1.62318
-0.18609
1.61685
-0.174551
1.61031
-0.163356
1.60356
-0.152485
1.59662
-0.141918
1.58948
-0.131631
-0.121575
1.58228
19.8167
-0.438894
19.2937
-1.16879
18.477
-1.80496
17.4566
-2.32138
16.3158
-2.76025
15.1228
-3.13167
13.9282
-3.43274
12.7664
-3.66553
11.661
-3.83661
10.627
-3.95358
9.67289
-4.02397
8.80204
-4.05504
8.01427
-4.05346
7.3068
-4.02523
6.67506
-3.97569
6.1134
-3.90953
5.6157
-3.83071
5.17571
-3.74255
4.78737
-3.64774
4.44489
-3.54852
4.14295
-3.44668
3.87667
-3.34367
3.64171
-3.24063
3.43425
-3.13842
3.25091
-3.03768
3.08877
-2.93887
2.94526
-2.84233
2.81812
-2.74829
2.7054
-2.65694
2.60538
-2.56839
2.51655
-2.48269
2.43761
-2.39988
2.36743
-2.31993
2.30501
-2.24281
2.2495
-2.16843
2.20015
-2.09672
2.15629
-2.02756
2.11734
-1.96087
2.08279
-1.89652
2.05217
-1.8344
2.02508
-1.77441
2.00115
-1.71643
1.98006
-1.66037
1.96152
-1.60611
1.94525
-1.55356
1.93102
-1.50263
1.91861
-1.45323
1.90784
-1.40527
1.8985
-1.35868
1.89045
-1.31338
1.88352
-1.26931
1.87758
-1.2264
1.87249
-1.18462
1.86813
-1.14391
1.8644
-1.10424
1.86117
-1.06558
1.85837
-1.0279
1.8559
-0.991176
1.85368
-0.955389
1.85165
-0.920523
1.84974
-0.886564
1.84789
-0.853497
1.84605
-0.82131
1.84418
-0.789991
1.84225
-0.75953
1.84021
-0.729913
1.83805
-0.701131
1.83573
-0.673172
1.83325
-0.646023
1.83058
-0.619671
1.82772
-0.594104
1.82464
-0.569309
1.82135
-0.54527
1.81784
-0.521974
1.8141
-0.499407
1.81013
-0.477553
1.80592
-0.456396
1.80148
-0.43592
1.7968
-0.416109
1.79188
-0.396945
1.78673
-0.37841
1.78135
-0.360489
1.77575
-0.343162
1.76992
-0.326412
1.76388
-0.31022
1.75763
-0.29457
1.75119
-0.279444
1.74454
-0.264823
1.73772
-0.250689
1.73071
-0.237023
1.72353
-0.223809
1.71619
-0.211027
1.70869
-0.198661
1.70105
-0.186691
1.69327
-0.175098
1.68537
-0.163865
1.67737
-0.152971
1.66928
-0.142398
1.66112
-0.132129
-0.12213
1.65307
17.4462
-0.311156
17.1118
-0.834473
16.608
-1.30124
15.9798
-1.69322
15.2593
-2.03991
14.4749
-2.34749
13.6536
-2.61165
12.8189
-2.83114
11.9902
-3.00824
11.1827
-3.14641
10.4077
-3.24943
9.67336
-3.32113
8.98469
-3.36531
8.34447
-3.38559
7.75353
-3.3854
7.2112
-3.36792
6.71579
-3.33608
6.26487
-3.29249
5.85561
-3.23943
5.48495
-3.17888
5.14976
-3.11259
4.84694
-3.04203
4.5735
-2.96847
4.32665
-2.89295
4.10382
-2.81632
3.90264
-2.73926
3.72098
-2.66232
3.55688
-2.58596
3.4086
-2.51052
3.27453
-2.43629
3.15327
-2.36349
3.04352
-2.2923
2.94414
-2.22283
2.85411
-2.15516
2.77252
-2.08933
2.69857
-2.02535
2.63151
-1.96321
2.57071
-1.90287
2.51558
-1.84429
2.46558
-1.78742
2.42025
-1.73219
2.37915
-1.67855
2.34188
-1.62642
2.3081
-1.57574
2.27747
-1.52645
2.2497
-1.47848
2.22451
-1.43177
2.20167
-1.38625
2.18094
-1.34186
2.16211
-1.29856
2.14499
-1.25629
2.1294
-1.21501
2.11516
-1.17468
2.10214
-1.13528
2.09018
-1.09677
2.07916
-1.05913
2.06895
-1.02235
2.05943
-0.986419
2.05052
-0.951322
2.04211
-0.917053
2.03413
-0.883607
2.0265
-0.850978
2.01915
-0.819162
2.01202
-0.788154
2.00505
-0.757951
1.99822
-0.728547
1.99146
-0.699936
1.98476
-0.672112
1.97807
-0.645068
1.97138
-0.618796
1.96465
-0.593287
1.95788
-0.56853
1.95104
-0.544514
1.94412
-0.521227
1.93712
-0.498658
1.93002
-0.476792
1.92281
-0.455615
1.91549
-0.435114
1.90806
-0.415272
1.90051
-0.396075
1.89284
-0.377506
1.88505
-0.35955
1.87714
-0.342188
1.86911
-0.325405
1.86097
-0.309183
1.85272
-0.293504
1.84436
-0.278352
1.83589
-0.263708
1.82732
-0.249556
1.81866
-0.235879
1.80991
-0.222658
1.80108
-0.209876
1.79217
-0.197517
1.7832
-0.185562
1.77418
-0.173995
1.76511
-0.162798
1.75601
-0.151954
1.7469
-0.141447
1.7378
-0.131262
-0.121373
1.72885
15.7028
-0.232504
15.4911
-0.622795
15.163
-0.973274
14.7431
-1.27346
14.2493
-1.54624
13.6982
-1.79655
13.1069
-2.02054
12.4912
-2.21579
11.865
-2.38235
11.2396
-2.52136
10.6242
-2.63439
10.0259
-2.72331
9.45026
-2.79015
8.90112
-2.83702
8.38112
-2.86601
7.89174
-2.87922
7.43358