/*--------------------------------*- C++ -*----------------------------------*\
| =========                 |                                                 |
| \\      /  F ield         | OpenFOAM: The Open Source CFD Toolbox           |
|  \\    /   O peration     | Version:  2412                                  |
|   \\  /    A nd           | Website:  www.openfoam.com                      |
|    \\/     M anipulation  |                                                 |
\*---------------------------------------------------------------------------*/
FoamFile
{
    version     2.0;
    format      ascii;
    arch        "LSB;label=32;scalar=64";
    class       volVectorField;
    location    "7";
    object      U;
}
// * * * * * * * * * * * * * * * * * * * * * * * * * * * * * * * * * * * * * //

dimensions      [0 1 -1 0 0 0 0];

internalField   nonuniform List<vector> 
20000
(
(-21806.2 -8784.59 0)
(-90.5825 -2418.39 0)
(-4157.49 -1636.83 0)
(-2993.89 -1211.66 0)
(-2476.75 -874.855 0)
(-2078.49 -633.433 0)
(-1784.58 -462.404 0)
(-1563.89 -341.215 0)
(-1395.75 -255.005 0)
(-1265.81 -193.493 0)
(-1163.73 -149.46 0)
(-1082.07 -117.825 0)
(-1015.41 -95.0047 0)
(-959.797 -78.4643 0)
(-912.338 -66.4069 0)
(-870.899 -57.5548 0)
(-833.919 -50.9971 0)
(-800.254 -46.083 0)
(-769.071 -42.347 0)
(-739.762 -39.4565 0)
(-711.891 -37.1742 0)
(-685.143 -35.3319 0)
(-659.293 -33.8117 0)
(-634.184 -32.5316 0)
(-609.707 -31.4359 0)
(-585.797 -30.487 0)
(-562.418 -29.6593 0)
(-539.563 -28.9348 0)
(-517.245 -28.2991 0)
(-495.488 -27.739 0)
(-474.321 -27.2414 0)
(-453.767 -26.7934 0)
(-433.84 -26.3821 0)
(-414.548 -25.9952 0)
(-395.89 -25.6216 0)
(-377.864 -25.2508 0)
(-360.461 -24.8728 0)
(-343.666 -24.4784 0)
(-327.454 -24.0601 0)
(-311.785 -23.613 0)
(-296.608 -23.1358 0)
(-281.858 -22.632 0)
(-267.466 -22.1107 0)
(-253.374 -21.5863 0)
(-239.551 -21.0762 0)
(-226.004 -20.5966 0)
(-212.765 -20.1591 0)
(-199.875 -19.7688 0)
(-187.369 -19.4263 0)
(-175.264 -19.1279 0)
(-163.557 -18.8676 0)
(-152.215 -18.6386 0)
(-141.178 -18.4378 0)
(-130.371 -18.2688 0)
(-119.731 -18.1425 0)
(-109.218 -18.0742 0)
(-98.8261 -18.0786 0)
(-88.5606 -18.1675 0)
(-78.4154 -18.3502 0)
(-68.3488 -18.6385 0)
(-58.2843 -19.0491 0)
(-48.1236 -19.6061 0)
(-37.7642 -20.343 0)
(-27.1216 -21.3097 0)
(-16.1567 -22.5648 0)
(-4.87471 -24.1695 0)
(6.66422 -26.186 0)
(18.3633 -28.6576 0)
(30.1285 -31.5956 0)
(41.3584 -34.6861 0)
(49.7869 -36.738 0)
(49.0025 -36.4914 0)
(42.5097 -35.7783 0)
(36.1809 -33.2976 0)
(34.2693 -31.531 0)
(35.8808 -30.9403 0)
(40.1965 -31.3402 0)
(47.0726 -32.13 0)
(51.7306 -30.6351 0)
(53.6933 -27.1266 0)
(55.2887 -23.7779 0)
(57.5494 -21.272 0)
(60.6021 -19.5475 0)
(64.4507 -18.6062 0)
(68.4328 -17.9823 0)
(71.5248 -16.9429 0)
(73.5206 -15.5058 0)
(75.2003 -14.0456 0)
(76.7941 -12.685 0)
(78.2694 -11.3972 0)
(79.623 -10.1367 0)
(81.124 -8.85372 0)
(83.0678 -7.60129 0)
(85.4614 -6.45995 0)
(88.1537 -5.42381 0)
(91.0229 -4.45219 0)
(93.8607 -3.4289 0)
(96.2554 -2.24069 0)
(97.8292 -0.806703 0)
(98.0358 0.996287 0)
(1802.48 4546.43 0)
(474.886 -3591 0)
(-1376.6 -2432.68 0)
(-1359.1 -1894.36 0)
(-1277.55 -1416.94 0)
(-1221.44 -1063.96 0)
(-1166.69 -809.569 0)
(-1117.69 -624.876 0)
(-1070.81 -488.733 0)
(-1027.04 -387.726 0)
(-986.492 -312.538 0)
(-948.945 -256.495 0)
(-914 -214.696 0)
(-881.216 -183.496 0)
(-850.178 -160.163 0)
(-820.535 -142.651 0)
(-792.005 -129.421 0)
(-764.373 -119.325 0)
(-737.483 -111.509 0)
(-711.226 -105.341 0)
(-685.529 -100.36 0)
(-660.342 -96.2302 0)
(-635.638 -92.7154 0)
(-611.399 -89.6492 0)
(-587.618 -86.9188 0)
(-564.296 -84.4498 0)
(-541.437 -82.1945 0)
(-519.055 -80.1222 0)
(-497.168 -78.2118 0)
(-475.797 -76.4458 0)
(-454.965 -74.8075 0)
(-434.691 -73.2792 0)
(-414.985 -71.8423 0)
(-395.853 -70.4783 0)
(-377.295 -69.1691 0)
(-359.307 -67.8969 0)
(-341.882 -66.644 0)
(-325.009 -65.393 0)
(-308.67 -64.128 0)
(-292.841 -62.8365 0)
(-277.49 -61.5114 0)
(-262.576 -60.1537 0)
(-248.053 -58.775 0)
(-233.881 -57.3979 0)
(-220.029 -56.053 0)
(-206.487 -54.7722 0)
(-193.257 -53.5816 0)
(-180.353 -52.4978 0)
(-167.786 -51.5273 0)
(-155.561 -50.6673 0)
(-143.668 -49.9087 0)
(-132.083 -49.2397 0)
(-120.768 -48.6519 0)
(-109.685 -48.1465 0)
(-98.7938 -47.7355 0)
(-88.0657 -47.4377 0)
(-77.4878 -47.2697 0)
(-67.0616 -47.2418 0)
(-56.7902 -47.364 0)
(-46.6703 -47.6434 0)
(-36.7119 -48.0696 0)
(-26.9189 -48.62 0)
(-17.2707 -49.2762 0)
(-7.66684 -50.0646 0)
(1.80587 -50.983 0)
(10.8504 -51.9469 0)
(18.8715 -52.6008 0)
(25.6128 -52.8337 0)
(32.5558 -53.1893 0)
(38.8379 -52.7241 0)
(42.6009 -51.976 0)
(42.7382 -51.9284 0)
(42.1648 -50.9911 0)
(42.2642 -49.6561 0)
(43.2486 -48.2174 0)
(44.8199 -46.5895 0)
(47.1783 -44.9046 0)
(50.1843 -42.697 0)
(52.3897 -39.2068 0)
(54.1724 -35.3095 0)
(56.1257 -31.8263 0)
(58.3487 -28.9984 0)
(60.6405 -26.6473 0)
(62.9212 -24.6125 0)
(65.1434 -22.6495 0)
(67.2089 -20.5302 0)
(68.9707 -18.2391 0)
(70.4965 -16.0194 0)
(72.0313 -14.0092 0)
(73.6045 -12.1653 0)
(75.1787 -10.3443 0)
(76.833 -8.41203 0)
(78.718 -6.42007 0)
(80.9606 -4.49207 0)
(83.5918 -2.6466 0)
(86.7433 -0.821446 0)
(90.2419 1.0511 0)
(93.4146 3.09268 0)
(95.8198 5.31454 0)
(97.2063 7.72785 0)
(1121.54 192.316 0)
(1195.12 -569.765 0)
(641.859 -1318.38 0)
(-198.151 -1425.15 0)
(-390.914 -1181.41 0)
(-545.92 -930.024 0)
(-630.609 -739.107 0)
(-701.762 -598.56 0)
(-747.894 -491.253 0)
(-776.146 -409.298 0)
(-791.256 -346.892 0)
(-796.456 -299.628 0)
(-794.094 -263.996 0)
(-785.935 -237.203 0)
(-773.338 -217.056 0)
(-757.367 -201.85 0)
(-738.861 -190.27 0)
(-718.489 -181.319 0)
(-696.786 -174.243 0)
(-674.18 -168.483 0)
(-651.011 -163.63 0)
(-627.547 -159.387 0)
(-604 -155.547 0)
(-580.531 -151.966 0)
(-557.266 -148.551 0)
(-534.297 -145.244 0)
(-511.696 -142.013 0)
(-489.513 -138.844 0)
(-467.786 -135.734 0)
(-446.542 -132.686 0)
(-425.799 -129.705 0)
(-405.569 -126.795 0)
(-385.858 -123.959 0)
(-366.664 -121.196 0)
(-347.983 -118.507 0)
(-329.808 -115.888 0)
(-312.128 -113.336 0)
(-294.929 -110.846 0)
(-278.196 -108.413 0)
(-261.912 -106.031 0)
(-246.057 -103.697 0)
(-230.609 -101.413 0)
(-215.548 -99.1866 0)
(-200.854 -97.0308 0)
(-186.509 -94.9662 0)
(-172.501 -93.0155 0)
(-158.819 -91.2005 0)
(-145.456 -89.5382 0)
(-132.402 -88.0394 0)
(-119.648 -86.7073 0)
(-107.185 -85.5391 0)
(-95.0028 -84.5286 0)
(-83.0915 -83.6674 0)
(-71.4555 -82.9486 0)
(-60.1039 -82.3786 0)
(-49.0309 -81.9626 0)
(-38.27 -81.6777 0)
(-27.8856 -81.4815 0)
(-17.906 -81.3947 0)
(-8.26893 -81.4645 0)
(0.834068 -81.5996 0)
(9.0866 -81.5037 0)
(16.2306 -80.9012 0)
(23.1441 -80.0589 0)
(29.857 -78.9074 0)
(36.0626 -77.099 0)
(39.9887 -75.092 0)
(41.2421 -74.086 0)
(42.6261 -72.7352 0)
(44.4349 -71.177 0)
(46.6782 -69.4962 0)
(48.9701 -67.7261 0)
(51.0527 -65.9631 0)
(53.1079 -64.1212 0)
(54.5071 -61.3077 0)
(55.3359 -57.6108 0)
(56.284 -53.6457 0)
(57.4884 -49.7528 0)
(58.9352 -46.0203 0)
(60.6856 -42.5943 0)
(62.7017 -39.5258 0)
(64.7956 -36.7405 0)
(66.6319 -34.0506 0)
(68.104 -31.3955 0)
(69.3434 -28.7941 0)
(70.523 -26.243 0)
(71.7781 -23.7715 0)
(73.1892 -21.4315 0)
(74.7234 -19.2317 0)
(76.2887 -17.1212 0)
(77.839 -14.9895 0)
(79.4161 -12.7289 0)
(81.1633 -10.3231 0)
(83.176 -7.81986 0)
(85.4214 -5.27433 0)
(88.0157 -2.7021 0)
(91.0776 -0.193998 0)
(94.2037 2.21419 0)
(96.7318 4.54759 0)
(98.1006 6.78003 0)
(869.552 -28.9743 0)
(906.4 -149.449 0)
(771.011 -243.959 0)
(540.783 -357.484 0)
(81.965 -622.989 0)
(-258.001 -527.238 0)
(-359.221 -441.542 0)
(-471.266 -381.856 0)
(-557.952 -335.263 0)
(-621.624 -301.008 0)
(-666.446 -276.591 0)
(-695.555 -259.669 0)
(-711.817 -248.211 0)
(-717.762 -240.567 0)
(-715.588 -235.45 0)
(-707.128 -231.909 0)
(-693.882 -229.269 0)
(-677.064 -227.063 0)
(-657.643 -224.981 0)
(-636.39 -222.826 0)
(-613.91 -220.48 0)
(-590.673 -217.881 0)
(-567.043 -215.004 0)
(-543.297 -211.85 0)
(-519.643 -208.434 0)
(-496.238 -204.784 0)
(-473.196 -200.935 0)
(-450.597 -196.924 0)
(-428.496 -192.79 0)
(-406.926 -188.572 0)
(-385.904 -184.307 0)
(-365.435 -180.029 0)
(-345.516 -175.768 0)
(-326.135 -171.551 0)
(-307.28 -167.401 0)
(-288.932 -163.337 0)
(-271.072 -159.371 0)
(-253.683 -155.517 0)
(-236.744 -151.782 0)
(-220.238 -148.176 0)
(-204.147 -144.705 0)
(-188.458 -141.378 0)
(-173.159 -138.203 0)
(-158.242 -135.189 0)
(-143.701 -132.345 0)
(-129.535 -129.678 0)
(-115.74 -127.191 0)
(-102.318 -124.888 0)
(-89.2696 -122.767 0)
(-76.5959 -120.826 0)
(-64.3032 -119.051 0)
(-52.4159 -117.44 0)
(-40.9359 -115.964 0)
(-29.9317 -114.561 0)
(-19.5305 -113.245 0)
(-9.64327 -112.052 0)
(-0.387598 -110.841 0)
(7.93388 -109.214 0)
(15.2099 -107.216 0)
(22.2196 -105.214 0)
(28.6858 -103.038 0)
(33.8727 -100.765 0)
(36.9506 -98.9123 0)
(39.5002 -96.7064 0)
(42.0411 -93.9521 0)
(44.8482 -91.0356 0)
(47.7647 -88.1659 0)
(50.6368 -85.4694 0)
(53.325 -82.7716 0)
(55.4053 -79.6368 0)
(57.145 -76.2356 0)
(58.7508 -72.8546 0)
(60.186 -69.5356 0)
(61.4116 -66.1565 0)
(62.4801 -62.6859 0)
(63.522 -59.2731 0)
(64.6266 -55.9617 0)
(65.7542 -52.6192 0)
(66.9389 -49.256 0)
(68.2232 -45.9737 0)
(69.5598 -42.8499 0)
(70.8596 -39.8943 0)
(72.0915 -37.0579 0)
(73.3047 -34.306 0)
(74.5338 -31.6202 0)
(75.7607 -28.9948 0)
(76.9794 -26.4452 0)
(78.2297 -23.9809 0)
(79.5304 -21.5759 0)
(80.8779 -19.1835 0)
(82.3106 -16.7365 0)
(83.8722 -14.1815 0)
(85.5354 -11.5406 0)
(87.2539 -8.87344 0)
(89.0558 -6.22082 0)
(91.0506 -3.60414 0)
(93.266 -1.13332 0)
(95.4559 1.04542 0)
(97.205 2.89788 0)
(97.9015 4.43466 0)
(950.166 54.0289 0)
(1000.85 182.743 0)
(871.041 319.21 0)
(619.879 382.877 0)
(359.841 430.075 0)
(41.1457 249.982 0)
(-205.843 -18.5929 0)
(-352.539 -59.672 0)
(-482.555 -93.3026 0)
(-574.227 -123.122 0)
(-635.82 -152.053 0)
(-672.923 -180.275 0)
(-692.458 -205.087 0)
(-698.833 -225.933 0)
(-695.388 -242.794 0)
(-684.718 -255.938 0)
(-668.814 -265.754 0)
(-649.198 -272.67 0)
(-627.03 -277.106 0)
(-603.192 -279.449 0)
(-578.344 -280.047 0)
(-552.983 -279.205 0)
(-527.473 -277.185 0)
(-502.086 -274.21 0)
(-477.017 -270.47 0)
(-452.406 -266.123 0)
(-428.351 -261.303 0)
(-404.915 -256.125 0)
(-382.138 -250.683 0)
(-360.038 -245.059 0)
(-338.622 -239.324 0)
(-317.881 -233.536 0)
(-297.8 -227.749 0)
(-278.358 -222.006 0)
(-259.529 -216.344 0)
(-241.284 -210.793 0)
(-223.594 -205.376 0)
(-206.434 -200.111 0)
(-189.781 -195.012 0)
(-173.617 -190.088 0)
(-157.93 -185.351 0)
(-142.71 -180.809 0)
(-127.951 -176.47 0)
(-113.651 -172.34 0)
(-99.8125 -168.422 0)
(-86.4429 -164.708 0)
(-73.5531 -161.189 0)
(-61.1497 -157.839 0)
(-49.271 -154.642 0)
(-37.9345 -151.579 0)
(-27.1543 -148.581 0)
(-17.0732 -145.668 0)
(-7.6051 -142.809 0)
(1.16838 -139.671 0)
(8.74011 -136.274 0)
(15.754 -132.914 0)
(22.1847 -129.558 0)
(27.5415 -126.02 0)
(31.5597 -122.66 0)
(35.3847 -119.061 0)
(39.1391 -115.481 0)
(42.7389 -112.025 0)
(46.2054 -108.654 0)
(49.3047 -104.918 0)
(52.0094 -100.822 0)
(54.6051 -96.6612 0)
(57.0389 -92.6135 0)
(59.1929 -88.7004 0)
(61.0594 -84.8888 0)
(62.7126 -81.2114 0)
(64.2526 -77.7205 0)
(65.6886 -74.3303 0)
(67.0578 -70.9879 0)
(68.3903 -67.68 0)
(69.6635 -64.395 0)
(70.8294 -61.1333 0)
(71.8617 -57.9015 0)
(72.8204 -54.711 0)
(73.791 -51.5877 0)
(74.8002 -48.5449 0)
(75.8222 -45.5885 0)
(76.8413 -42.7077 0)
(77.8535 -39.8654 0)
(78.8782 -37.0466 0)
(79.9628 -34.2649 0)
(81.1301 -31.5343 0)
(82.3567 -28.8656 0)
(83.588 -26.2567 0)
(84.8004 -23.6825 0)
(86.0424 -21.1119 0)
(87.35 -18.545 0)
(88.6676 -16.0148 0)
(89.9141 -13.5608 0)
(91.0793 -11.1927 0)
(92.244 -8.90819 0)
(93.5122 -6.74615 0)
(94.8829 -4.80132 0)
(96.1472 -3.17634 0)
(97.0109 -1.92743 0)
(96.9069 -1.02104 0)
(1113.39 -101.865 0)
(1304.8 531.184 0)
(1089.39 957.181 0)
(536.447 1285.29 0)
(40.4665 1349.66 0)
(-284.708 912.833 0)
(-443.352 594.628 0)
(-586.101 372.101 0)
(-679.71 200.99 0)
(-733.519 67.0284 0)
(-761.26 -38.4796 0)
(-769.082 -121.233 0)
(-761.877 -185.71 0)
(-745.699 -235.168 0)
(-723.384 -272.488 0)
(-697.074 -300.059 0)
(-668.301 -319.827 0)
(-638.163 -333.371 0)
(-607.443 -341.967 0)
(-576.693 -346.647 0)
(-546.293 -348.241 0)
(-516.505 -347.419 0)
(-487.499 -344.719 0)
(-459.382 -340.572 0)
(-432.216 -335.321 0)
(-406.028 -329.241 0)
(-380.824 -322.553 0)
(-356.594 -315.431 0)
(-333.315 -308.019 0)
(-310.959 -300.432 0)
(-289.493 -292.766 0)
(-268.883 -285.096 0)
(-249.091 -277.486 0)
(-230.079 -269.987 0)
(-211.806 -262.636 0)
(-194.234 -255.466 0)
(-177.325 -248.497 0)
(-161.044 -241.743 0)
(-145.363 -235.209 0)
(-130.265 -228.9 0)
(-115.741 -222.813 0)
(-101.791 -216.949 0)
(-88.4132 -211.31 0)
(-75.6002 -205.886 0)
(-63.3636 -200.676 0)
(-51.7178 -195.654 0)
(-40.6939 -190.81 0)
(-30.2541 -186.067 0)
(-20.5011 -181.39 0)
(-11.4698 -176.795 0)
(-3.03459 -172.025 0)
(4.37182 -167.179 0)
(11.1317 -162.431 0)
(17.4381 -157.334 0)
(22.5543 -152.471 0)
(27.2295 -147.709 0)
(31.6615 -143.025 0)
(35.9295 -138.33 0)
(39.9514 -133.366 0)
(43.6977 -128.383 0)
(47.2436 -123.534 0)
(50.4579 -118.866 0)
(53.3229 -114.325 0)
(55.9287 -109.858 0)
(58.4097 -105.437 0)
(60.8303 -101.136 0)
(63.1794 -96.9986 0)
(65.3615 -93.0261 0)
(67.3207 -89.1893 0)
(69.0494 -85.4527 0)
(70.5592 -81.7863 0)
(71.8998 -78.1731 0)
(73.1454 -74.6159 0)
(74.3393 -71.124 0)
(75.4986 -67.7095 0)
(76.6404 -64.3792 0)
(77.7775 -61.1307 0)
(78.9004 -57.9507 0)
(79.9938 -54.8358 0)
(81.0628 -51.7814 0)
(82.1128 -48.7738 0)
(83.1292 -45.7971 0)
(84.1191 -42.834 0)
(85.1281 -39.8831 0)
(86.1859 -36.9775 0)
(87.2673 -34.1635 0)
(88.3241 -31.4726 0)
(89.328 -28.9059 0)
(90.2917 -26.434 0)
(91.2359 -24.0369 0)
(92.1246 -21.7295 0)
(92.9123 -19.5316 0)
(93.6189 -17.4415 0)
(94.3006 -15.4465 0)
(94.9819 -13.5472 0)
(95.6385 -11.7787 0)
(96.2147 -10.2059 0)
(96.604 -8.8943 0)
(96.7489 -7.87112 0)
(96.1758 -7.08903 0)
(1.09394 -1606.38 0)
(1103.87 1036.69 0)
(-418.575 2963.43 0)
(-975.896 2319.01 0)
(-1130.73 1723.33 0)
(-1192.03 1164.24 0)
(-1192.53 768.486 0)
(-1172.11 481.805 0)
(-1125.57 260.105 0)
(-1072.65 77.1901 0)
(-1012.59 -70.6337 0)
(-949.876 -181.256 0)
(-890.119 -263.046 0)
(-832.67 -322.695 0)
(-778.099 -365.369 0)
(-726.578 -395.014 0)
(-678.124 -414.651 0)
(-632.66 -426.601 0)
(-590.055 -432.662 0)
(-550.146 -434.231 0)
(-512.756 -432.395 0)
(-477.699 -428.003 0)
(-444.795 -421.715 0)
(-413.871 -414.041 0)
(-384.765 -405.376 0)
(-357.33 -396.021 0)
(-331.432 -386.211 0)
(-306.95 -376.128 0)
(-283.775 -365.914 0)
(-261.81 -355.681 0)
(-240.97 -345.52 0)
(-221.177 -335.5 0)
(-202.363 -325.68 0)
(-184.462 -316.1 0)
(-167.419 -306.787 0)
(-151.184 -297.76 0)
(-135.71 -289.036 0)
(-120.954 -280.62 0)
(-106.872 -272.503 0)
(-93.4452 -264.686 0)
(-80.6573 -257.142 0)
(-68.5191 -249.855 0)
(-57.0462 -242.834 0)
(-46.1855 -236.025 0)
(-35.9559 -229.436 0)
(-26.3746 -222.981 0)
(-17.5509 -216.705 0)
(-9.29075 -210.43 0)
(-1.78513 -204.056 0)
(4.88497 -197.777 0)
(11.2523 -191.234 0)
(16.7743 -185 0)
(21.8507 -179.039 0)
(26.7144 -173.015 0)
(31.2967 -166.906 0)
(35.5794 -160.875 0)
(39.5752 -154.979 0)
(43.3056 -149.218 0)
(46.8886 -143.546 0)
(50.3599 -138.08 0)
(53.6845 -132.863 0)
(56.7682 -127.862 0)
(59.5858 -123.02 0)
(62.1544 -118.271 0)
(64.5512 -113.579 0)
(66.8616 -108.969 0)
(69.0903 -104.488 0)
(71.1832 -100.154 0)
(73.1036 -95.9648 0)
(74.8509 -91.9073 0)
(76.4418 -87.9598 0)
(77.9031 -84.0957 0)
(79.2684 -80.297 0)
(80.5667 -76.5566 0)
(81.8196 -72.874 0)
(83.0477 -69.2573 0)
(84.2568 -65.7295 0)
(85.4297 -62.3115 0)
(86.5486 -59.0099 0)
(87.6117 -55.8165 0)
(88.6177 -52.7166 0)
(89.5586 -49.6984 0)
(90.4563 -46.7545 0)
(91.3407 -43.8905 0)
(92.1862 -41.1279 0)
(92.9537 -38.4897 0)
(93.6504 -35.986 0)
(94.3113 -33.6121 0)
(94.9521 -31.3564 0)
(95.5448 -29.214 0)
(96.0506 -27.1826 0)
(96.4664 -25.2466 0)
(96.8153 -23.3885 0)
(97.113 -21.6054 0)
(97.3593 -19.9083 0)
(97.5433 -18.3122 0)
(97.6417 -16.8325 0)
(97.604 -15.4822 0)
(97.4627 -14.2637 0)
(96.7896 -13.1662 0)
(-15058 -4469.04 0)
(-304.653 7406.66 0)
(-3773.68 4847.81 0)
(-3128.61 3420.89 0)
(-2747.12 2307.2 0)
(-2387.2 1472 0)
(-2083.73 835.376 0)
(-1838.88 333.671 0)
(-1617.07 2.97375 0)
(-1424.54 -206.282 0)
(-1260.7 -339.821 0)
(-1122.7 -428.467 0)
(-1004.32 -486.667 0)
(-902.307 -523.774 0)
(-813.888 -545.932 0)
(-736.791 -557.359 0)
(-669.142 -561.025 0)
(-609.402 -559.056 0)
(-556.309 -553.004 0)
(-508.827 -544.023 0)
(-466.105 -532.975 0)
(-427.441 -520.514 0)
(-392.255 -507.131 0)
(-360.063 -493.197 0)
(-330.465 -478.987 0)
(-303.129 -464.703 0)
(-277.78 -450.494 0)
(-254.191 -436.473 0)
(-232.169 -422.716 0)
(-211.554 -409.281 0)
(-192.211 -396.217 0)
(-174.029 -383.542 0)
(-156.913 -371.281 0)
(-140.782 -359.449 0)
(-125.566 -348.033 0)
(-111.213 -337.023 0)
(-97.6768 -326.417 0)
(-84.9182 -316.226 0)
(-72.8631 -306.411 0)
(-61.4867 -296.998 0)
(-50.7437 -287.922 0)
(-40.6517 -279.119 0)
(-31.2927 -270.66 0)
(-22.4976 -262.413 0)
(-14.2912 -254.395 0)
(-6.67053 -246.386 0)
(0.106496 -238.58 0)
(6.5231 -230.752 0)
(12.4142 -222.958 0)
(17.7226 -215.641 0)
(22.8276 -208.27 0)
(27.6284 -200.998 0)
(32.1437 -193.871 0)
(36.4176 -186.865 0)
(40.4995 -180.033 0)
(44.3949 -173.417 0)
(48.0831 -167.009 0)
(51.5753 -160.78 0)
(54.9088 -154.714 0)
(58.0992 -148.847 0)
(61.1287 -143.202 0)
(63.9765 -137.764 0)
(66.6413 -132.501 0)
(69.1393 -127.378 0)
(71.5089 -122.364 0)
(73.7825 -117.454 0)
(75.9452 -112.661 0)
(77.9563 -107.989 0)
(79.8002 -103.442 0)
(81.4918 -99.0181 0)
(83.0546 -94.7135 0)
(84.5098 -90.5223 0)
(85.8759 -86.4399 0)
(87.1704 -82.4655 0)
(88.4147 -78.6011 0)
(89.6183 -74.8525 0)
(90.7604 -71.23 0)
(91.818 -67.741 0)
(92.7971 -64.3856 0)
(93.722 -61.1595 0)
(94.5992 -58.0581 0)
(95.4095 -55.0763 0)
(96.143 -52.2072 0)
(96.8009 -49.4527 0)
(97.3756 -46.8167 0)
(97.8643 -44.2927 0)
(98.2832 -41.8716 0)
(98.6514 -39.549 0)
(98.9759 -37.3266 0)
(99.2545 -35.2044 0)
(99.4878 -33.1729 0)
(99.6785 -31.2169 0)
(99.826 -29.3246 0)
(99.9289 -27.4891 0)
(99.9867 -25.7055 0)
(99.9936 -23.9724 0)
(99.9373 -22.2927 0)
(99.7922 -20.67 0)
(99.6062 -19.1064 0)
(98.9881 -17.6165 0)
(-46114.6 10533.8 0)
(-662.867 1225.12 0)
(-9827.55 -18.8785 0)
(-6432.75 -674.065 0)
(-5033.6 -969.462 0)
(-3886.8 -1063.73 0)
(-3052.26 -1078.18 0)
(-2429.08 -1026.9 0)
(-1972.97 -982.693 0)
(-1631.28 -947.102 0)
(-1369.62 -915.155 0)
(-1165.44 -884.778 0)
(-1003.29 -855.299 0)
(-872.395 -826.391 0)
(-765.182 -797.896 0)
(-676.148 -769.846 0)
(-601.228 -742.364 0)
(-537.39 -715.554 0)
(-482.353 -689.491 0)
(-434.391 -664.228 0)
(-392.192 -639.795 0)
(-354.749 -616.213 0)
(-321.279 -593.489 0)
(-291.155 -571.627 0)
(-263.873 -550.623 0)
(-239.018 -530.465 0)
(-216.257 -511.141 0)
(-195.312 -492.654 0)
(-175.942 -474.973 0)
(-157.951 -458.077 0)
(-141.179 -441.96 0)
(-125.499 -426.563 0)
(-110.821 -411.855 0)
(-97.066 -397.815 0)
(-84.1744 -384.371 0)
(-72.105 -371.449 0)
(-60.8391 -358.999 0)
(-50.3863 -347.073 0)
(-40.6089 -335.56 0)
(-31.4922 -324.547 0)
(-22.9445 -313.92 0)
(-14.9608 -303.475 0)
(-7.77125 -293.454 0)
(-0.975034 -283.661 0)
(5.41152 -274.163 0)
(11.4924 -264.756 0)
(16.954 -255.966 0)
(22.1599 -247.24 0)
(27.0467 -238.708 0)
(31.7034 -230.33 0)
(36.1495 -222.128 0)
(40.3833 -214.159 0)
(44.388 -206.431 0)
(48.1847 -198.92 0)
(51.804 -191.634 0)
(55.2525 -184.576 0)
(58.5371 -177.737 0)
(61.6643 -171.107 0)
(64.6391 -164.682 0)
(67.4658 -158.466 0)
(70.1449 -152.457 0)
(72.6806 -146.645 0)
(75.0798 -141.016 0)
(77.353 -135.553 0)
(79.5142 -130.243 0)
(81.5755 -125.082 0)
(83.5304 -120.073 0)
(85.3546 -115.209 0)
(87.0343 -110.483 0)
(88.5811 -105.889 0)
(90.0164 -101.425 0)
(91.3582 -97.0907 0)
(92.6192 -92.8859 0)
(93.8072 -88.8115 0)
(94.9257 -84.8694 0)
(95.974 -81.0648 0)
(96.9482 -77.4004 0)
(97.8464 -73.8719 0)
(98.6693 -70.4713 0)
(99.4183 -67.1941 0)
(100.092 -64.0404 0)
(100.689 -61.0079 0)
(101.217 -58.0899 0)
(101.684 -55.2805 0)
(102.1 -52.5724 0)
(102.463 -49.9546 0)
(102.775 -47.4181 0)
(103.038 -44.9589 0)
(103.256 -42.5752 0)
(103.43 -40.2638 0)
(103.565 -38.0202 0)
(103.659 -35.8386 0)
(103.716 -33.7124 0)
(103.737 -31.6351 0)
(103.721 -29.6027 0)
(103.656 -27.614 0)
(103.532 -25.6702 0)
(103.333 -23.7747 0)
(103.091 -21.9327 0)
(102.447 -20.1609 0)
(-28573 -10552.6 0)
(2806.16 -6620.52 0)
(-5170.46 -5163.09 0)
(-3599.01 -4545.94 0)
(-2902.69 -3720.18 0)
(-2345.91 -2959.84 0)
(-1919.68 -2455.16 0)
(-1604.46 -2087.59 0)
(-1351.62 -1809.73 0)
(-1148.34 -1596.02 0)
(-983.654 -1429.3 0)
(-849.491 -1296.86 0)
(-738.969 -1189.56 0)
(-646.67 -1101.05 0)
(-568.967 -1026.37 0)
(-503.035 -961.974 0)
(-446.632 -905.597 0)
(-397.95 -855.615 0)
(-355.527 -810.834 0)
(-318.199 -770.352 0)
(-285.067 -733.467 0)
(-255.455 -699.615 0)
(-228.851 -668.34 0)
(-204.853 -639.275 0)
(-183.13 -612.126 0)
(-163.396 -586.655 0)
(-145.406 -562.663 0)
(-128.957 -540.089 0)
(-113.814 -518.796 0)
(-99.7878 -498.687 0)
(-86.7179 -479.75 0)
(-74.4809 -461.849 0)
(-63.0067 -444.904 0)
(-52.2325 -428.868 0)
(-42.1336 -413.618 0)
(-32.7008 -398.99 0)
(-23.9579 -384.819 0)
(-16.0267 -371.291 0)
(-8.63336 -358.19 0)
(-1.78464 -345.672 0)
(4.6257 -333.605 0)
(10.7195 -321.679 0)
(16.2176 -310.596 0)
(21.43 -299.793 0)
(26.3851 -289.378 0)
(31.1457 -279.299 0)
(35.6864 -269.519 0)
(40.0094 -260.039 0)
(44.1319 -250.843 0)
(48.0622 -241.927 0)
(51.8119 -233.28 0)
(55.3764 -224.905 0)
(58.7556 -216.794 0)
(61.9642 -208.932 0)
(65.0161 -201.314 0)
(67.9266 -193.934 0)
(70.7092 -186.787 0)
(73.3593 -179.866 0)
(75.8732 -173.168 0)
(78.2593 -166.687 0)
(80.5258 -160.415 0)
(82.6781 -154.343 0)
(84.7208 -148.463 0)
(86.6585 -142.764 0)
(88.494 -137.24 0)
(90.2311 -131.885 0)
(91.8719 -126.696 0)
(93.4117 -121.667 0)
(94.8437 -116.788 0)
(96.1688 -112.051 0)
(97.3961 -107.452 0)
(98.5373 -102.99 0)
(99.6026 -98.6653 0)
(100.6 -94.4789 0)
(101.534 -90.4317 0)
(102.409 -86.5231 0)
(103.225 -82.7503 0)
(103.98 -79.1082 0)
(104.67 -75.5905 0)
(105.293 -72.1909 0)
(105.848 -68.9032 0)
(106.335 -65.7202 0)
(106.757 -62.6353 0)
(107.118 -59.6439 0)
(107.427 -56.7436 0)
(107.687 -53.9327 0)
(107.897 -51.2087 0)
(108.056 -48.5689 0)
(108.167 -46.01 0)
(108.232 -43.5278 0)
(108.256 -41.1181 0)
(108.246 -38.7777 0)
(108.205 -36.5049 0)
(108.132 -34.2994 0)
(108.021 -32.1591 0)
(107.862 -30.0789 0)
(107.644 -28.052 0)
(107.344 -26.0717 0)
(106.984 -24.1298 0)
(106.241 -22.2183 0)
(3951.06 1861.19 0)
(3622.12 -1306.74 0)
(1711.59 -3373.32 0)
(592.133 -4201.67 0)
(98.7941 -3910.14 0)
(-230.366 -3158.05 0)
(-352.051 -2696.35 0)
(-418.354 -2337.04 0)
(-436.043 -2047.58 0)
(-428 -1814.38 0)
(-406.595 -1626.8 0)
(-379.76 -1474.19 0)
(-350.999 -1347.56 0)
(-321.219 -1241.56 0)
(-291.946 -1151.69 0)
(-264.121 -1073.61 0)
(-238.229 -1005.04 0)
(-214.436 -944.269 0)
(-192.637 -890.011 0)
(-172.585 -841.274 0)
(-154.023 -797.263 0)
(-136.763 -757.302 0)
(-120.692 -720.8 0)
(-105.758 -687.245 0)
(-91.9344 -656.201 0)
(-79.1879 -627.299 0)
(-67.4754 -600.148 0)
(-56.7934 -574.747 0)
(-46.9589 -550.888 0)
(-37.8256 -528.401 0)
(-29.2703 -507.314 0)
(-21.19 -487.452 0)
(-13.5274 -468.705 0)
(-6.22922 -451.022 0)
(0.702196 -434.272 0)
(7.25838 -418.258 0)
(13.4706 -402.763 0)
(19.1354 -388.277 0)
(24.4321 -374.265 0)
(29.3356 -360.876 0)
(33.9281 -347.979 0)
(38.2478 -335.572 0)
(42.3167 -323.63 0)
(46.1721 -312.113 0)
(49.8747 -301.026 0)
(53.4473 -290.36 0)
(56.8922 -280.091 0)
(60.2081 -270.193 0)
(63.4032 -260.64 0)
(66.4835 -251.408 0)
(69.4398 -242.476 0)
(72.2631 -233.83 0)
(74.9499 -225.455 0)
(77.5049 -217.339 0)
(79.936 -209.471 0)
(82.2502 -201.846 0)
(84.4537 -194.458 0)
(86.5507 -187.304 0)
(88.5454 -180.377 0)
(90.4426 -173.668 0)
(92.2464 -167.17 0)
(93.9604 -160.876 0)
(95.5885 -154.78 0)
(97.1344 -148.873 0)
(98.6003 -143.15 0)
(99.9872 -137.602 0)
(101.296 -132.224 0)
(102.524 -127.01 0)
(103.671 -121.953 0)
(104.734 -117.047 0)
(105.717 -112.284 0)
(106.624 -107.662 0)
(107.46 -103.179 0)
(108.233 -98.8341 0)
(108.945 -94.6265 0)
(109.603 -90.5564 0)
(110.209 -86.6229 0)
(110.766 -82.8237 0)
(111.271 -79.1544 0)
(111.724 -75.6087 0)
(112.12 -72.1804 0)
(112.459 -68.8637 0)
(112.741 -65.6531 0)
(112.965 -62.5441 0)
(113.132 -59.5343 0)
(113.244 -56.6229 0)
(113.306 -53.8091 0)
(113.32 -51.0909 0)
(113.294 -48.4651 0)
(113.229 -45.9279 0)
(113.124 -43.4742 0)
(112.974 -41.1 0)
(112.772 -38.8022 0)
(112.525 -36.5796 0)
(112.246 -34.4288 0)
(111.939 -32.3411 0)
(111.602 -30.3025 0)
(111.229 -28.2959 0)
(110.856 -26.3019 0)
(110.126 -24.2971 0)
(2600.17 -770.683 0)
(2909.14 -1636.93 0)
(2482.1 -2026.06 0)
(1899.46 -2188.63 0)
(1362.98 -2243.18 0)
(948.833 -2214.71 0)
(659.012 -2120.49 0)
(443.374 -1983.45 0)
(284.917 -1831.86 0)
(174.628 -1686.3 0)
(100.976 -1555.89 0)
(52.3209 -1441.04 0)
(20.0292 -1338.22 0)
(-0.174517 -1246.69 0)
(-11.9102 -1166.85 0)
(-18.245 -1094.82 0)
(-20.919 -1029.74 0)
(-21.2514 -970.737 0)
(-20.0846 -917.067 0)
(-17.8648 -868.129 0)
(-14.8062 -823.416 0)
(-11.0392 -782.47 0)
(-6.69246 -744.854 0)
(-1.93338 -710.149 0)
(3.04469 -677.976 0)
(8.05018 -648.006 0)
(12.9758 -619.703 0)
(17.6578 -593.337 0)
(22.0924 -568.614 0)
(26.3142 -545.273 0)
(30.3605 -523.338 0)
(34.2766 -502.641 0)
(38.1073 -483.079 0)
(41.8833 -464.598 0)
(45.5929 -447.098 0)
(49.2224 -430.475 0)
(52.7653 -414.648 0)
(56.1832 -399.535 0)
(59.4408 -385.066 0)
(62.5171 -371.197 0)
(65.4106 -357.882 0)
(68.1417 -345.09 0)
(70.7219 -332.8 0)
(73.1805 -320.983 0)
(75.5582 -309.619 0)
(77.8799 -298.689 0)
(80.1562 -288.169 0)
(82.391 -278.035 0)
(84.5846 -268.259 0)
(86.7307 -258.817 0)
(88.8172 -249.687 0)
(90.8324 -240.85 0)
(92.7665 -232.287 0)
(94.6148 -223.986 0)
(96.3764 -215.935 0)
(98.0527 -208.125 0)
(99.6466 -200.551 0)
(101.163 -193.206 0)
(102.605 -186.086 0)
(103.977 -179.183 0)
(105.281 -172.493 0)
(106.52 -166.008 0)
(107.697 -159.723 0)
(108.813 -153.632 0)
(109.872 -147.729 0)
(110.872 -142.008 0)
(111.814 -136.463 0)
(112.695 -131.088 0)
(113.515 -125.878 0)
(114.271 -120.828 0)
(114.964 -115.93 0)
(115.596 -111.182 0)
(116.168 -106.578 0)
(116.683 -102.117 0)
(117.143 -97.7959 0)
(117.549 -93.6142 0)
(117.906 -89.5705 0)
(118.218 -85.6639 0)
(118.489 -81.8922 0)
(118.718 -78.2508 0)
(118.903 -74.7344 0)
(119.041 -71.338 0)
(119.13 -68.0572 0)
(119.17 -64.8873 0)
(119.157 -61.8236 0)
(119.09 -58.8626 0)
(118.972 -56.0013 0)
(118.807 -53.237 0)
(118.6 -50.567 0)
(118.358 -47.9883 0)
(118.084 -45.4962 0)
(117.779 -43.0844 0)
(117.439 -40.744 0)
(117.065 -38.4658 0)
(116.668 -36.243 0)
(116.268 -34.0692 0)
(115.873 -31.9355 0)
(115.478 -29.8313 0)
(115.116 -27.7461 0)
(114.39 -25.6676 0)
(2172.32 -220.715 0)
(2403.61 -570.936 0)
(2064.47 -898.658 0)
(1707.56 -1149.85 0)
(1435.33 -1312.66 0)
(1207.59 -1402.4 0)
(1004.45 -1444.23 0)
(827.755 -1450.88 0)
(680.189 -1430.78 0)
(560.003 -1391.71 0)
(463.387 -1340.55 0)
(386.189 -1282.75 0)
(324.491 -1222.26 0)
(275.077 -1161.82 0)
(235.572 -1103.19 0)
(204.231 -1047.39 0)
(179.503 -994.801 0)
(159.898 -945.459 0)
(144.166 -899.239 0)
(131.416 -855.996 0)
(121.099 -815.593 0)
(112.879 -777.888 0)
(106.503 -742.71 0)
(101.716 -709.86 0)
(98.2342 -679.121 0)
(95.7606 -650.281 0)
(94.0319 -623.144 0)
(92.8313 -597.541 0)
(91.9999 -573.34 0)
(91.4529 -550.434 0)
(91.1455 -528.744 0)
(91.0595 -508.195 0)
(91.2061 -488.72 0)
(91.5903 -470.256 0)
(92.1969 -452.734 0)
(93.0056 -436.078 0)
(93.9844 -420.217 0)
(95.0819 -405.083 0)
(96.2411 -390.609 0)
(97.4124 -376.737 0)
(98.5624 -363.418 0)
(99.6749 -350.614 0)
(100.747 -338.295 0)
(101.789 -326.435 0)
(102.823 -315.014 0)
(103.868 -304.014 0)
(104.938 -293.416 0)
(106.041 -283.198 0)
(107.177 -273.338 0)
(108.336 -263.813 0)
(109.506 -254.6 0)
(110.669 -245.68 0)
(111.811 -237.032 0)
(112.918 -228.642 0)
(113.981 -220.497 0)
(114.995 -212.588 0)
(115.958 -204.908 0)
(116.872 -197.451 0)
(117.738 -190.212 0)
(118.56 -183.187 0)
(119.339 -176.372 0)
(120.078 -169.761 0)
(120.777 -163.351 0)
(121.438 -157.135 0)
(122.062 -151.109 0)
(122.648 -145.269 0)
(123.194 -139.608 0)
(123.7 -134.122 0)
(124.163 -128.806 0)
(124.582 -123.654 0)
(124.955 -118.661 0)
(125.282 -113.822 0)
(125.561 -109.133 0)
(125.794 -104.589 0)
(125.981 -100.189 0)
(126.122 -95.928 0)
(126.217 -91.8052 0)
(126.271 -87.818 0)
(126.288 -83.9647 0)
(126.274 -80.2427 0)
(126.226 -76.6484 0)
(126.141 -73.1773 0)
(126.018 -69.8249 0)
(125.855 -66.5866 0)
(125.653 -63.4573 0)
(125.409 -60.4317 0)
(125.123 -57.505 0)
(124.798 -54.6726 0)
(124.439 -51.9301 0)
(124.053 -49.2732 0)
(123.646 -46.6973 0)
(123.222 -44.1969 0)
(122.781 -41.7656 0)
(122.325 -39.3955 0)
(121.856 -37.0798 0)
(121.384 -34.8147 0)
(120.917 -32.5993 0)
(120.453 -30.432 0)
(120.025 -28.3104 0)
(119.214 -26.2285 0)
(1759.74 -167.059 0)
(1951.6 -441.035 0)
(1761.7 -667.673 0)
(1574.06 -830 0)
(1430.6 -946.212 0)
(1293.59 -1027.95 0)
(1154.96 -1081.4 0)
(1022.42 -1111.34 0)
(900.794 -1122.4 0)
(791.513 -1118.86 0)
(695.204 -1104.37 0)
(611.789 -1081.9 0)
(540.222 -1053.75 0)
(479.024 -1021.79 0)
(426.874 -987.506 0)
(382.681 -952.068 0)
(345.382 -916.323 0)
(313.842 -880.848 0)
(286.957 -846.031 0)
(263.825 -812.146 0)
(243.82 -779.404 0)
(226.557 -747.959 0)
(211.772 -717.903 0)
(199.235 -689.266 0)
(188.68 -662.023 0)
(179.807 -636.109 0)
(172.307 -611.443 0)
(165.899 -587.944 0)
(160.351 -565.537 0)
(155.495 -544.162 0)
(151.224 -523.772 0)
(147.476 -504.325 0)
(144.221 -485.783 0)
(141.443 -468.107 0)
(139.124 -451.254 0)
(137.238 -435.175 0)
(135.741 -419.818 0)
(134.574 -405.127 0)
(133.67 -391.049 0)
(132.961 -377.531 0)
(132.387 -364.528 0)
(131.905 -352.002 0)
(131.489 -339.925 0)
(131.132 -328.272 0)
(130.837 -317.024 0)
(130.619 -306.168 0)
(130.489 -295.687 0)
(130.456 -285.564 0)
(130.522 -275.782 0)
(130.679 -266.321 0)
(130.915 -257.161 0)
(131.21 -248.283 0)
(131.543 -239.668 0)
(131.896 -231.301 0)
(132.252 -223.167 0)
(132.6 -215.258 0)
(132.93 -207.565 0)
(133.241 -200.084 0)
(133.53 -192.81 0)
(133.799 -185.74 0)
(134.049 -178.871 0)
(134.281 -172.201 0)
(134.496 -165.725 0)
(134.695 -159.44 0)
(134.878 -153.343 0)
(135.042 -147.429 0)
(135.188 -141.693 0)
(135.311 -136.132 0)
(135.41 -130.741 0)
(135.485 -125.516 0)
(135.532 -120.451 0)
(135.55 -115.542 0)
(135.537 -110.784 0)
(135.49 -106.172 0)
(135.407 -101.702 0)
(135.287 -97.372 0)
(135.132 -93.1779 0)