/*--------------------------------*- C++ -*----------------------------------*\
| =========                 |                                                 |
| \\      /  F ield         | OpenFOAM: The Open Source CFD Toolbox           |
|  \\    /   O peration     | Version:  2412                                  |
|   \\  /    A nd           | Website:  www.openfoam.com                      |
|    \\/     M anipulation  |                                                 |
\*---------------------------------------------------------------------------*/
FoamFile
{
    version     2.0;
    format      ascii;
    arch        "LSB;label=32;scalar=64";
    class       volScalarField;
    location    "1";
    object      p;
}
// * * * * * * * * * * * * * * * * * * * * * * * * * * * * * * * * * * * * * //

dimensions      [1 -1 -2 0 0 0 0];

internalField   nonuniform List<scalar> 
200
(
133772
198752
263995
329692
396056
463339
531849
601979
674246
749356
133225
197084
261122
325461
390229
455557
521580
588428
656209
724971
132303
194285
256341
318517
380853
443375
506090
568974
631957
694896
131222
191015
250801
310571
370308
429980
489540
548915
608005
666673
130152
187787
245366
302848
360183
417316
474178
530687
586746
642241
129199
184921
240560
296059
351357
406387
461074
515339
569090
622230
128420
182580
236647
290558
344246
397643
450676
503267
555334
606790
127838
180833
233734
286476
338996
391226
443098
494541
545480
595837
127457
179689
231831
283820
335596
387099
438265
489034
539343
589125
127269
179129
230900
282526
333950
385116
435972
486470
536567
586230
863632
974447
1.07024e+06
1.15126e+06
1.21857e+06
1.27325e+06
1.31615e+06
1.34786e+06
1.36876e+06
1.37926e+06
811692
898732
980057
1.05285e+06
1.11592e+06
1.16885e+06
1.21153e+06
1.24389e+06
1.26586e+06
1.27718e+06
772061
847581
919494
985541
1.04422e+06
1.09458e+06
1.13598e+06
1.16794e+06
1.18997e+06
1.20145e+06
737417
805165
870017
930349
984792
1.03226e+06
1.07186e+06
1.10283e+06
1.12441e+06
1.13574e+06
708235
770294
829773
885457
936175
980854
1.01852e+06
1.04825e+06
1.06913e+06
1.08016e+06
684611
742335
797676
849660
897269
939492
975337
1.00382e+06
1.02393e+06
1.03459e+06
666437
720828
772998
822106
867240
907443
941731
969096
988489
998793
653486
705361
755174
802151
845432
884097
917175
943651
962460
972470
645422
695512
743717
789265
831311
868944
901201
927067
945468
955271
641769
690825
738181
783004
824431
861549
893396
918953
937148
946846
)
;

boundaryField
{
    inlet
    {
        type            fixedValue;
        value           uniform 101325;
    }
    sym
    {
        type            slip;
    }
    wedge
    {
        type            slip;
    }
    top
    {
        type            slip;
    }
    back
    {
        type            empty;
    }
    front
    {
        type            empty;
    }
    outlet
    {
        type            zeroGradient;
    }
}


// ************************************************************************* //
