/*--------------------------------*- C++ -*----------------------------------*\
| =========                 |                                                 |
| \\      /  F ield         | OpenFOAM: The Open Source CFD Toolbox           |
|  \\    /   O peration     | Version:  2412                                  |
|   \\  /    A nd           | Website:  www.openfoam.com                      |
|    \\/     M anipulation  |                                                 |
\*---------------------------------------------------------------------------*/
FoamFile
{
    version     2.0;
    format      ascii;
    arch        "LSB;label=32;scalar=64";
    class       surfaceScalarField;
    location    "1";
    object      phi;
}
// * * * * * * * * * * * * * * * * * * * * * * * * * * * * * * * * * * * * * //

dimensions      [1 0 -1 0 0 0 0];

oriented        oriented;

internalField   nonuniform List<scalar> 
370
(
69.4481
0.0381383
69.3317
0.116301
69.1309
0.200348
68.8354
0.294989
68.4284
0.406285
67.8849
0.542586
67.1679
0.716003
66.2219
0.944826
64.963
1.2576
1.70015
63.2614
69.9445
0.0642729
69.8654
0.195186
69.7319
0.333353
69.5422
0.484132
69.2939
0.653689
68.9862
0.849364
68.621
1.08003
68.2081
1.3564
67.7734
1.69092
2.09698
67.375
70.7758
0.0753783
70.7428
0.228004
70.6894
0.38627
70.6189
0.55403
70.5366
0.735242
70.451
0.933912
70.376
1.15391
70.3325
1.3986
70.352
1.67003
1.96776
70.4796
71.7451
0.0746127
71.7479
0.225008
71.7548
0.37889
71.7697
0.538499
71.7982
0.705923
71.8481
0.882983
71.9299
1.07107
72.0563
1.27089
72.2426
1.48221
1.70349
72.5053
72.7001
0.0664179
72.7251
0.19987
72.7684
0.335139
72.8329
0.473336
72.9226
0.615404
73.0425
0.762051
73.1988
0.913655
73.3982
1.07017
73.6479
1.23106
1.39523
73.9546
73.5476
0.0543104
73.5841
0.163186
73.646
0.272802
73.7351
0.383575
73.8539
0.495807
74.0053
0.609641
74.1928
0.725026
74.4199
0.841683
74.6904
0.959094
1.07651
75.0075
74.239
0.0405862
74.2802
0.121799
74.3494
0.203114
74.4478
0.284546
74.5768
0.366026
74.738
0.447381
74.9336
0.528312
75.1655
0.608392
75.4361
0.687075
0.763735
75.7472
74.7547
0.0266079
74.7966
0.0797563
74.8665
0.132687
74.9652
0.185205
75.0934
0.237037
75.252
0.287805
75.4421
0.336999
75.6652
0.383964
75.9229
0.427899
0.467928
76.2171
75.0923
0.0130573
75.1327
0.0390944
75.2
0.0648845
75.2944
0.0902162
75.4158
0.114799
75.5644
0.138216
75.7404
0.159848
75.9442
0.178763
76.1771
0.193526
0.201867
76.4415
75.2576
75.2965
75.3609
75.4505
75.5645
75.7018
75.8605
76.038
76.2301
76.4304
77.9678
-14.7075
87.5125
-9.54621
93.5185
-6.00755
97.1621
-3.6453
99.2421
-2.08161
100.279
-1.03906
100.603
-0.325014
100.404
0.196892
99.7574
0.644903
1.20416
65.5092
-12.844
65.6303
-9.66972
66.5078
-6.88774
67.5379
-4.67814
68.4519
-2.99862
69.1509
-1.74114
69.6141
-0.791491
69.8528
-0.0451185
69.8956
0.598643
1.25178
68.8325
-11.1989
68.1516
-8.99104
68.1185
-6.85703
68.4119
-4.97406
68.8104
-3.39974
69.1866
-2.12007
69.4791
-1.08678
69.669
-0.237897
69.771
0.493776
1.17538
70.9708
-9.66633
69.9842
-8.00683
69.4691
-6.34435
69.2825
-4.78998
69.2877
-3.40764
69.3824
-2.21755
69.5019
-1.20916
69.6148
-0.353642
69.7192
0.386377
1.04715
72.4491
-8.16292
71.3103
-6.8704
70.5247
-5.56124
70.0323
-4.30019
69.7575
-3.13561
69.6307
-2.09364
69.5988
-1.18018
69.6286
-0.386446
69.7078
0.304171
0.907493
73.4912
-6.64871
72.255
-5.63661
71.3036
-4.61241
70.614
-3.61324
70.1465
-2.67094
69.8571
-1.80715
69.7061
-1.03221
69.6636
-0.347018
69.7117
0.252996
0.771628
74.1993
-5.10299
72.8882
-4.32797
71.8262
-3.55306
71.0074
-2.79717
70.4117
-2.07809
70.0114
-1.40992
69.7777
-0.801598
69.6847
-0.257073
69.7118
0.222688
0.635776
74.6196
-3.50773
73.2415
-2.9525
72.1009
-2.41508
71.1989
-1.898
70.5246
-1.40676
70.0593
-0.947721
69.7807
-0.526194
69.6661
-0.145665
69.6939
0.191519
0.482019
74.7631
-1.83159
73.3171
-1.50914
72.1205
-1.22126
71.1722
-0.952697
70.4623
-0.69985
69.9748
-0.463435
69.6907
-0.245309
69.5889
-0.0472156
69.6477
0.129283
0.281955
74.5965
73.085
71.8613
70.906
70.2035
69.7373
69.4891
69.439
69.5654
)
;

boundaryField
{
    inlet
    {
        type            calculated;
        value           nonuniform List<scalar> 10(-69.4863 -69.9706 -70.787 -71.7443 -72.692 -73.5355 -74.2253 -74.7408 -75.0787 -75.2446);
    }
    sym
    {
        type            calculated;
        value           uniform 0;
    }
    wedge
    {
        type            calculated;
        value           nonuniform List<scalar> 10(4.17079e-15 0 0 -4.17079e-15 8.34159e-15 0 1.25124e-14 0 8.34159e-15 -4.15567e-35);
    }
    top
    {
        type            calculated;
        value           uniform 0;
    }
    back
    {
        type            empty;
    }
    front
    {
        type            empty;
    }
    outlet
    {
        type            calculated;
        value           nonuniform List<scalar> 10(98.5516 69.8449 69.8449 69.8449 69.8449 69.8449 69.8449 69.8449 69.8449 69.8449);
    }
}


// ************************************************************************* //
