/*--------------------------------*- C++ -*----------------------------------*\
| =========                 |                                                 |
| \\      /  F ield         | OpenFOAM: The Open Source CFD Toolbox           |
|  \\    /   O peration     | Version:  2412                                  |
|   \\  /    A nd           | Website:  www.openfoam.com                      |
|    \\/     M anipulation  |                                                 |
\*---------------------------------------------------------------------------*/
FoamFile
{
    version     2.0;
    format      ascii;
    arch        "LSB;label=32;scalar=64";
    class       volVectorField;
    location    "1";
    object      U;
}
// * * * * * * * * * * * * * * * * * * * * * * * * * * * * * * * * * * * * * //

dimensions      [0 1 -1 0 0 0 0];

internalField   nonuniform List<vector> 
200
(
(605.687 0.0974594 0)
(605.531 0.297199 0)
(605.209 0.511973 0)
(604.706 0.75382 0)
(603.993 1.03823 0)
(603.029 1.38654 0)
(601.751 1.82969 0)
(600.065 2.41443 0)
(597.829 3.2137 0)
(595.958 4.34461 0)
(606.682 0.261704 0)
(606.575 0.79598 0)
(606.36 1.36383 0)
(606.032 1.99098 0)
(605.588 2.70868 0)
(605.024 3.55702 0)
(604.341 4.58963 0)
(603.552 5.88059 0)
(602.693 7.53472 0)
(607.083 9.70327 0)
(608.353 0.356868 0)
(608.308 1.08143 0)
(608.22 1.83894 0)
(608.095 2.65294 0)
(607.94 3.5493 0)
(607.769 4.55702 0)
(607.607 5.70868 0)
(607.486 7.04017 0)
(607.462 8.58866 0)
(612.568 10.3871 0)
(610.306 0.38329 0)
(610.31 1.15764 0)
(610.32 1.95531 0)
(610.342 2.79187 0)
(610.386 3.68278 0)
(610.465 4.64293 0)
(610.599 5.68576 0)
(610.81 6.82166 0)
(611.127 8.0553 0)
(616.413 9.38159 0)
(612.236 0.360393 0)
(612.269 1.08574 0)
(612.339 1.82465 0)
(612.448 2.58566 0)
(612.604 3.37655 0)
(612.817 4.20376 0)
(613.097 5.0718 0)
(613.458 5.9824 0)
(613.913 6.93355 0)
(619.265 7.91854 0)
(613.951 0.308512 0)
(614 0.927761 0)
(614.1 1.55355 0)
(614.253 2.18977 0)
(614.464 2.83961 0)
(614.738 3.50525 0)
(615.081 4.18752 0)
(615.502 4.8856 0)
(616.006 5.59677 0)
(621.407 6.31635 0)
(615.351 0.242501 0)
(615.407 0.728256 0)
(615.519 1.21617 0)
(615.689 1.70733 0)
(615.919 2.20235 0)
(616.214 2.70114 0)
(616.575 3.20281 0)
(617.009 3.70555 0)
(617.519 4.20666 0)
(622.984 4.70261 0)
(616.397 0.171709 0)
(616.453 0.515058 0)
(616.567 0.858114 0)
(616.738 1.20041 0)
(616.968 1.54108 0)
(617.259 1.87871 0)
(617.612 2.21124 0)
(618.031 2.53589 0)
(618.519 2.84923 0)
(624.078 3.14742 0)
(617.082 0.101361 0)
(617.137 0.303714 0)
(617.246 0.504879 0)
(617.41 0.703817 0)
(617.629 0.899089 0)
(617.902 1.08866 0)
(618.232 1.26965 0)
(618.617 1.43801 0)
(619.06 1.588 0)
(624.741 1.71161 0)
(617.418 0.033367 0)
(617.47 0.0999026 0)
(617.575 0.165807 0)
(617.731 0.23054 0)
(617.938 0.293361 0)
(618.193 0.3532 0)
(618.493 0.408479 0)
(618.834 0.456816 0)
(619.208 0.49454 0)
(625.023 0.515856 0)
(673.011 14.6893 -1.59261e-17)
(752.594 21.9156 0)
(797.732 26.73 0)
(828.626 29.8892 0)
(851.156 31.9639 1.61084e-15)
(868.838 33.3492 0)
(883.756 34.3089 0)
(897.125 35.0227 0)
(909.572 35.6389 0)
(921.524 36.3755 -1.06576e-15)
(582.653 26.5052 -5.25754e-16)
(592.058 37.6037 5.61201e-16)
(594.925 45.7812 0)
(599.91 51.6003 0)
(605.93 55.6937 -6.03832e-17)
(612.424 58.5911 0)
(619.127 60.6953 0)
(625.928 62.3121 0)
(632.79 63.7108 0)
(639.787 65.2459 0)
(592.075 22.0156 0)
(602.208 28.4166 -5.75018e-16)
(604.345 34.2629 0)
(608.094 39.1296 0)
(612.96 42.9986 -1.48939e-15)
(618.567 46.0152 7.76818e-16)
(624.679 48.3727 0)
(631.175 50.2692 8.7731e-16)
(638.023 51.9046 0)
(645.303 53.4919 9.58348e-16)
(598.047 19.3841 0)
(608.484 24.0648 0)
(610.402 28.6598 0)
(613.522 32.8198 0)
(617.66 36.3979 7.4109e-16)
(622.622 39.3866 -7.9863e-16)
(628.254 41.8571 0)
(634.464 43.9196 -1.7592e-15)
(641.235 45.7006 0)
(648.633 47.3256 -9.8866e-16)
(602.451 16.4422 2.35104e-16)
(613.134 20.0701 2.61934e-16)
(615.04 23.7224 0)
(617.884 27.1826 3.16873e-16)
(621.627 30.3127 3.44231e-16)
(626.19 33.0558 0)
(631.497 35.4176 0)
(637.501 37.4446 8.82029e-16)
(644.2 39.2031 0)
(651.651 40.7573 0)
(605.686 13.3515 -2.41192e-16)
(616.602 16.221 -2.68898e-16)
(618.542 19.1265 0)
(621.269 21.941 -3.2577e-16)
(624.805 24.5646 -3.54175e-16)
(629.137 26.9379 0)
(634.247 29.0406 0)
(640.122 30.8826 0)
(646.776 32.4904 0)
(654.263 33.8885 0)
(607.929 10.2067 2.34641e-16)
(619.095 12.4558 0)
(621.064 14.7203 0)
(623.741 16.9297 0)
(627.174 19.0213 3.40687e-16)
(631.387 20.9503 0)
(636.394 22.6922 0)
(642.211 24.241 0)
(648.863 25.6013 0)
(656.4 26.7756 4.60643e-16)
(609.263 7.07963 -1.22443e-16)
(620.706 8.76807 1.31508e-16)
(622.678 10.4343 0)
(625.328 12.0509 1.58283e-16)
(628.716 13.5884 -1.7925e-16)
(632.883 15.0206 1.85389e-16)
(637.863 16.3294 1.98579e-16)
(643.685 17.5054 0)
(650.387 18.5445 2.22922e-16)
(658.015 19.4399 -2.43931e-16)
(609.715 4.05807 -1.82353e-16)
(621.454 5.17987 -2.02258e-16)
(623.392 6.23553 0)
(626.023 7.24098 -2.43723e-16)
(629.402 8.1937 -8.97705e-17)
(633.578 9.08456 -2.85935e-16)
(638.59 9.90439 -2.05285e-16)
(644.48 10.6465 0)
(651.29 11.3059 -2.30994e-16)
(659.069 11.8754 -3.61633e-16)
(609.263 1.30187 6.21632e-17)
(621.285 1.71992 6.8943e-17)
(623.159 2.0936 0)
(625.782 2.44263 8.31358e-17)
(629.188 2.7717 -9.04092e-17)
(633.419 3.07989 9.76815e-17)
(638.521 3.36478 0)
(644.539 3.62412 0)
(651.523 3.85589 0)
(659.526 4.05717 1.24136e-16)
)
;

boundaryField
{
    inlet
    {
        type            fixedValue;
        value           uniform (664 0 0);
    }
    sym
    {
        type            slip;
    }
    wedge
    {
        type            slip;
    }
    top
    {
        type            slip;
    }
    back
    {
        type            empty;
    }
    front
    {
        type            empty;
    }
    outlet
    {
        type            inletOutlet;
        inletValue      uniform (664 0 0);
        value           nonuniform List<vector> 10((921.524 36.3755 -1.06576e-15) (639.787 65.2459 0) (645.303 53.4919 9.58348e-16) (648.633 47.3256 -9.8866e-16) (651.651 40.7573 0) (654.263 33.8885 0) (656.4 26.7756 4.60643e-16) (658.015 19.4399 -2.43931e-16) (659.069 11.8754 -3.61633e-16) (659.526 4.05717 1.24136e-16));
    }
}


// ************************************************************************* //
