/*--------------------------------*- C++ -*----------------------------------*\
| =========                 |                                                 |
| \\      /  F ield         | OpenFOAM: The Open Source CFD Toolbox           |
|  \\    /   O peration     | Version:  2412                                  |
|   \\  /    A nd           | Website:  www.openfoam.com                      |
|    \\/     M anipulation  |                                                 |
\*---------------------------------------------------------------------------*/
FoamFile
{
    version     2.0;
    format      ascii;
    arch        "LSB;label=32;scalar=64";
    class       surfaceScalarField;
    location    "0.0999";
    object      phi;
}
// * * * * * * * * * * * * * * * * * * * * * * * * * * * * * * * * * * * * * //

dimensions      [1 0 -1 0 0 0 0];

oriented        oriented;

internalField   nonuniform List<scalar> 
29750
(
13.8651
2.44249e-15
13.8651
8.77076e-15
13.8651
2.19824e-14
13.8651
4.51861e-14
13.8651
8.82627e-14
13.8651
1.67644e-13
13.8651
3.10196e-13
13.8651
5.69322e-13
13.8651
1.04194e-12
13.8651
1.90281e-12
13.8651
3.47145e-12
13.8651
6.33094e-12
13.8651
1.1548e-11
13.8651
2.1079e-11
13.8651
3.85102e-11
13.8651
7.04284e-11
13.8651
1.28944e-10
13.8651
2.36355e-10
13.8651
4.33788e-10
13.8651
7.97201e-10
13.8651
1.46712e-09
13.8651
2.70405e-09
13.8651
4.9918e-09
13.8651
9.23069e-09
13.8651
1.70992e-08
13.8651
3.17337e-08
13.8651
5.90091e-08
13.8651
1.09967e-07
13.8651
2.05399e-07
13.8651
3.84538e-07
13.8651
7.21589e-07
13.8651
1.35759e-06
13.8651
2.56167e-06
13.8651
4.84884e-06
13.8651
9.20588e-06
13.8651
1.75237e-05
13.865
3.34622e-05
13.865
6.41496e-05
13.8649
0.000123598
13.8646
0.000238809
13.8642
0.000462969
13.8633
0.000899201
13.8615
0.00176138
13.858
0.00346495
13.8512
0.00689582
13.8378
0.013645
13.8115
0.0274945
13.7565
0.0554159
13.6325
0.118609
0.248553
13.3842
13.8651
5.10703e-15
13.8651
1.70974e-14
13.8651
3.9968e-14
13.8651
8.30447e-14
13.8651
1.61537e-13
13.8651
3.04423e-13
13.8651
5.65548e-13
13.8651
1.03828e-12
13.8651
1.89404e-12
13.8651
3.44791e-12
13.8651
6.2691e-12
13.8651
1.1393e-11
13.8651
2.0709e-11
13.8651
3.7653e-11
13.8651
6.85048e-11
13.8651
1.24714e-10
13.8651
2.27221e-10
13.8651
4.14293e-10
13.8651
7.56052e-10
13.8651
1.38087e-09
13.8651
2.52445e-09
13.8651
4.61916e-09
13.8651
8.46058e-09
13.8651
1.55113e-08
13.8651
2.84683e-08
13.8651
5.22999e-08
13.8651
9.61881e-08
13.8651
1.7709e-07
13.8651
3.26427e-07
13.8651
6.02339e-07
13.8651
1.11276e-06
13.8651
2.05783e-06
13.8651
3.81026e-06
13.8651
7.06326e-06
13.8651
1.31104e-05
13.8651
2.43556e-05
13.8651
4.52905e-05
13.8651
8.43014e-05
13.865
0.000157157
13.865
0.000293265
13.8649
0.000547654
13.8648
0.00102241
13.8647
0.00191074
13.8645
0.00357744
13.8647
0.00671805
13.8657
0.0126066
13.87
0.0236561
13.881
0.0444474
13.9148
0.0844452
0.161565
13.9983
13.8651
7.10543e-15
13.8651
2.28706e-14
13.8651
5.29576e-14
13.8651
1.0858e-13
13.8651
2.10831e-13
13.8651
3.97016e-13
13.8651
7.33191e-13
13.8651
1.34115e-12
13.8651
2.43983e-12
13.8651
4.42302e-12
13.8651
8.00593e-12
13.8651
1.44829e-11
13.8651
2.61945e-11
13.8651
4.73799e-11
13.8651
8.57203e-11
13.8651
1.55136e-10
13.8651
2.80883e-10
13.8651
5.0876e-10
13.8651
9.2194e-10
13.8651
1.67139e-09
13.8651
3.0315e-09
13.8651
5.50074e-09
13.8651
9.98588e-09
13.8651
1.81355e-08
13.8651
3.29509e-08
13.8651
5.98919e-08
13.8651
1.08903e-07
13.8651
1.98085e-07
13.8651
3.60423e-07
13.8651
6.55975e-07
13.8651
1.19419e-06
13.8651
2.17426e-06
13.8651
3.95903e-06
13.8651
7.20879e-06
13.8651
1.31261e-05
13.8651
2.3896e-05
13.8651
4.34865e-05
13.8651
7.90872e-05
13.8651
0.000143739
13.8652
0.000261053
13.8652
0.000473684
13.8654
0.000858124
13.8658
0.00155127
13.8666
0.00279812
13.8682
0.00503786
13.8718
0.00905205
13.8791
0.0162084
13.8948
0.0288766
13.9282
0.0511868
0.0903999
13.999
13.8651
7.99361e-15
13.8651
2.4758e-14
13.8651
5.80647e-14
13.8651
1.19793e-13
13.8651
2.32037e-13
13.8651
4.36096e-13
13.8651
8.04135e-13
13.8651
1.46638e-12
13.8651
2.65576e-12
13.8651
4.79317e-12
13.8651
8.63398e-12
13.8651
1.55332e-11
13.8651
2.79319e-11
13.8651
5.02136e-11
13.8651
9.0268e-11
13.8651
1.62268e-10
13.8651
2.91726e-10
13.8651
5.24481e-10
13.8651
9.43049e-10
13.8651
1.69568e-09
13.8651
3.04923e-09
13.8651
5.48303e-09
13.8651
9.85966e-09
13.8651
1.77279e-08
13.8651
3.18736e-08
13.8651
5.72955e-08
13.8651
1.02977e-07
13.8651
1.85023e-07
13.8651
3.32341e-07
13.8651
5.96683e-07
13.8651
1.0708e-06
13.8651
1.92041e-06
13.8651
3.44175e-06
13.8651
6.1627e-06
13.8651
1.10243e-05
13.8651
1.96982e-05
13.8651
3.51516e-05
13.8652
6.26253e-05
13.8652
0.000111367
13.8652
0.000197627
13.8654
0.000349919
13.8656
0.000617923
13.8661
0.00108767
13.867
0.0019071
13.8687
0.00332967
13.8719
0.00578839
13.8781
0.0100137
13.8896
0.0172163
13.9115
0.0293527
0.0495542
13.9523
13.8651
7.32747e-15
13.8651
2.39808e-14
13.8651
5.75096e-14
13.8651
1.19238e-13
13.8651
2.30704e-13
13.8651
4.31433e-13
13.8651
7.93254e-13
13.8651
1.44007e-12
13.8651
2.59603e-12
13.8651
4.65961e-12
13.8651
8.34566e-12
13.8651
1.49272e-11
13.8651
2.66757e-11
13.8651
4.76438e-11
13.8651
8.50628e-11
13.8651
1.51827e-10
13.8651
2.70931e-10
13.8651
4.83345e-10
13.8651
8.62089e-10
13.8651
1.53715e-09
13.8651
2.74e-09
13.8651
4.88225e-09
13.8651
8.69604e-09
13.8651
1.54815e-08
13.8651
2.75476e-08
13.8651
4.89879e-08
13.8651
8.70592e-08
13.8651
1.54599e-07
13.8651
2.74308e-07
13.8651
4.86243e-07
13.8651
8.61031e-07
13.8651
1.52288e-06
13.8651
2.68999e-06
13.8651
4.74442e-06
13.8651
8.35421e-06
13.8651
1.46834e-05
13.8651
2.57557e-05
13.8652
4.50738e-05
13.8652
7.86787e-05
13.8652
0.000136939
13.8654
0.000237579
13.8656
0.000410738
13.8659
0.000707291
13.8666
0.00121239
13.8679
0.00206726
13.8702
0.00350482
13.8743
0.00590486
13.8816
0.00987905
13.8945
0.0163831
0.0268915
13.9172
13.8651
6.88338e-15
13.8651
2.28706e-14
13.8651
5.30687e-14
13.8651
1.09246e-13
13.8651
2.11053e-13
13.8651
3.94906e-13
13.8651
7.23199e-13
13.8651
1.30684e-12
13.8651
2.34346e-12
13.8651
4.18587e-12
13.8651
7.45559e-12
13.8651
1.32535e-11
13.8651
2.3533e-11
13.8651
4.17506e-11
13.8651
7.40266e-11
13.8651
1.31176e-10
13.8651
2.32334e-10
13.8651
4.11275e-10
13.8651
7.27668e-10
13.8651
1.28667e-09
13.8651
2.27378e-09
13.8651
4.01534e-09
13.8651
7.08587e-09
13.8651
1.2494e-08
13.8651
2.20114e-08
13.8651
3.87403e-08
13.8651
6.81151e-08
13.8651
1.19624e-07
13.8651
2.09829e-07
13.8651
3.67546e-07
13.8651
6.42879e-07
13.8651
1.12262e-06
13.8651
1.95696e-06
13.8651
3.40471e-06
13.8651
5.91111e-06
13.8651
1.02386e-05
13.8651
1.76895e-05
13.8652
3.04776e-05
13.8652
5.23508e-05
13.8652
8.9617e-05
13.8653
0.000152843
13.8655
0.000259615
13.8657
0.000439007
13.8662
0.000738674
13.867
0.00123596
13.8685
0.00205536
13.871
0.00339469
13.8753
0.0055653
13.8826
0.0090435
0.0145548
13.8949
13.8651
5.9952e-15
13.8651
1.93179e-14
13.8651
4.60743e-14
13.8651
9.4813e-14
13.8651
1.83409e-13
13.8651
3.40949e-13
13.8651
6.20171e-13
13.8651
1.11577e-12
13.8651
1.9923e-12
13.8651
3.53806e-12
13.8651
6.26299e-12
13.8651
1.10655e-11
13.8651
1.95245e-11
13.8651
3.44096e-11
13.8651
6.0589e-11
13.8651
1.066e-10
13.8651
1.87415e-10
13.8651
3.29241e-10
13.8651
5.77952e-10
13.8651
1.01369e-09
13.8651
1.77644e-09
13.8651
3.11015e-09
13.8651
5.43985e-09
13.8651
9.50429e-09
13.8651
1.65867e-08
13.8651
2.89104e-08
13.8651
5.03241e-08
13.8651
8.74718e-08
13.8651
1.51808e-07
13.8651
2.6302e-07
13.8651
4.54892e-07
13.8651
7.85197e-07
13.8651
1.35252e-06
13.8651
2.32444e-06
13.8651
3.98506e-06
13.8651
6.81384e-06
13.8651
1.16173e-05
13.8651
1.97451e-05
13.8652
3.34463e-05
13.8652
5.64463e-05
13.8653
9.48819e-05
13.8654
0.000158795
13.8655
0.000264498
13.8658
0.000438279
13.8663
0.000722086
13.8672
0.00118232
13.8687
0.00192262
13.8711
0.00310336
13.8752
0.00496588
0.00787449
13.8819
13.8651
4.66294e-15
13.8651
1.56541e-14
13.8651
3.73035e-14
13.8651
7.80487e-14
13.8651
1.50324e-13
13.8651
2.78555e-13
13.8651
5.06151e-13
13.8651
9.06386e-13
13.8651
1.61049e-12
13.8651
2.84561e-12
13.8651
5.0101e-12
13.8651
8.79963e-12
13.8651
1.54285e-11
13.8651
2.70139e-11
13.8651
4.72486e-11
13.8651
8.25537e-11
13.8651
1.44103e-10
13.8651
2.5129e-10
13.8651
4.37787e-10
13.8651
7.61889e-10
13.8651
1.32453e-09
13.8651
2.29998e-09
13.8651
3.98904e-09
13.8651
6.90939e-09
13.8651
1.19516e-08
13.8651
2.06424e-08
13.8651
3.55981e-08
13.8651
6.12854e-08
13.8651
1.05322e-07
13.8651
1.80654e-07
13.8651
3.09239e-07
13.8651
5.28184e-07
13.8651
9.00053e-07
13.8651
1.52987e-06
13.8651
2.59347e-06
13.8651
4.38377e-06
13.8651
7.3871e-06
13.8651
1.24065e-05
13.8651
2.0762e-05
13.8652
3.46104e-05
13.8652
5.74564e-05
13.8653
9.49552e-05
13.8654
0.000156167
13.8656
0.000255489
13.8659
0.000415585
13.8664
0.00067187
13.8672
0.00107893
13.8686
0.00172025
13.8708
0.00272006
0.00426447
13.8745
13.8651
4.21885e-15
13.8651
1.25455e-14
13.8651
2.90878e-14
13.8651
6.06182e-14
13.8651
1.18128e-13
13.8651
2.19491e-13
13.8651
3.96461e-13
13.8651
7.06879e-13
13.8651
1.24989e-12
13.8651
2.19691e-12
13.8651
3.84748e-12
13.8651
6.71918e-12
13.8651
1.17105e-11
13.8651
2.03768e-11
13.8651
3.5409e-11
13.8651
6.14548e-11
13.8651
1.06536e-10
13.8651
1.84472e-10
13.8651
3.1906e-10
13.8651
5.51167e-10
13.8651
9.50942e-10
13.8651
1.63849e-09
13.8651
2.81927e-09
13.8651
4.84378e-09
13.8651
8.30923e-09
13.8651
1.42303e-08
13.8651
2.43285e-08
13.8651
4.15151e-08
13.8651
7.07044e-08
13.8651
1.20164e-07
13.8651
2.03771e-07
13.8651
3.44731e-07
13.8651
5.81743e-07
13.8651
9.79078e-07
13.8651
1.64312e-06
13.8651
2.74914e-06
13.8651
4.5848e-06
13.8651
7.61972e-06
13.8651
1.26169e-05
13.8652
2.08086e-05
13.8652
3.4174e-05
13.8652
5.58702e-05
13.8653
9.08973e-05
13.8654
0.000147113
13.8656
0.00023675
13.8659
0.000378726
13.8663
0.000601909
13.8671
0.000950084
13.8683
0.00148787
0.00231154
13.8703
13.8651
2.88658e-15
13.8651
1.04361e-14
13.8651
2.39808e-14
13.8651
4.71845e-14
13.8651
9.01501e-14
13.8651
1.66422e-13
13.8651
3.00204e-13
13.8651
5.33573e-13
13.8651
9.38472e-13
13.8651
1.64102e-12
13.8651
2.85827e-12
13.8651
4.96347e-12
13.8651
8.59912e-12
13.8651
1.48723e-11
13.8651
2.56831e-11
13.8651
4.42891e-11
13.8651
7.62775e-11
13.8651
1.31194e-10
13.8651
2.25356e-10
13.8651
3.86568e-10
13.8651
6.6219e-10
13.8651
1.13265e-09
13.8651
1.9344e-09
13.8651
3.29829e-09
13.8651
5.61438e-09
13.8651
9.53955e-09
13.8651
1.61786e-08
13.8651
2.7383e-08
13.8651
4.62502e-08
13.8651
7.79421e-08
13.8651
1.31044e-07
13.8651
2.19773e-07
13.8651
3.67615e-07
13.8651
6.13191e-07
13.8651
1.01981e-06
13.8651
1.69074e-06
13.8651
2.79379e-06
13.8651
4.60017e-06
13.8651
7.54618e-06
13.8651
1.23294e-05
13.8652
2.00593e-05
13.8652
3.24882e-05
13.8652
5.23654e-05
13.8653
8.39711e-05
13.8654
0.00013391
13.8655
0.000212306
13.8658
0.000334492
13.8662
0.000523555
13.8669
0.000813362
0.00125416
13.868
13.8651
2.22045e-15
13.8651
7.10543e-15
13.8651
1.73195e-14
13.8651
3.58602e-14
13.8651
6.82787e-14
13.8651
1.24123e-13
13.8651
2.21489e-13
13.8651
3.90576e-13
13.8651
6.83342e-13
13.8651
1.18983e-12
13.8651
2.06224e-12
13.8651
3.56204e-12
13.8651
6.13776e-12
13.8651
1.05538e-11
13.8651
1.81175e-11
13.8651
3.10544e-11
13.8651
5.31499e-11
13.8651
9.0835e-11
13.8651
1.55018e-10
13.8651
2.64156e-10
13.8651
4.49451e-10
13.8651
7.63504e-10
13.8651
1.29487e-09
13.8651
2.19223e-09
13.8651
3.70478e-09
13.8651
6.24896e-09
13.8651
1.05194e-08
13.8651
1.76708e-08
13.8651
2.96189e-08
13.8651
4.95299e-08
13.8651
8.26242e-08
13.8651
1.37475e-07
13.8651
2.28121e-07
13.8651
3.77451e-07
13.8651
6.22653e-07
13.8651
1.02387e-06
13.8651
1.67796e-06
13.8651
2.74013e-06
13.8651
4.45785e-06
13.8651
7.22351e-06
13.8651
1.16557e-05
13.8652
1.87236e-05
13.8652
2.99352e-05
13.8652
4.76201e-05
13.8653
7.53459e-05
13.8654
0.000118544
13.8655
0.000185384
13.8657
0.000288098
13.8661
0.000444534
0.000681082
13.8667
13.8651
1.66533e-15
13.8651
5.55112e-15
13.8651
1.28786e-14
13.8651
2.58682e-14
13.8651
4.79616e-14
13.8651
8.83738e-14
13.8651
1.58651e-13
13.8651
2.7911e-13
13.8651
4.86833e-13
13.8651
8.43103e-13
13.8651
1.45362e-12
13.8651
2.49667e-12
13.8651
4.27747e-12
13.8651
7.31504e-12
13.8651
1.24869e-11
13.8651
2.12791e-11
13.8651
3.62048e-11
13.8651
6.15019e-11
13.8651
1.04314e-10
13.8651
1.76646e-10
13.8651
2.98654e-10
13.8651
5.04071e-10
13.8651
8.49307e-10
13.8651
1.42837e-09
13.8651
2.39771e-09
13.8651
4.01683e-09
13.8651
6.71543e-09
13.8651
1.12024e-08
13.8651
1.86451e-08
13.8651
3.09579e-08
13.8651
5.12735e-08
13.8651
8.46965e-08
13.8651
1.39521e-07
13.8651
2.29165e-07
13.8651
3.75262e-07
13.8651
6.12519e-07
13.8651
9.96415e-07
13.8651
1.61515e-06
13.8651
2.6083e-06
13.8651
4.19549e-06
13.8651
6.72046e-06
13.8651
1.07178e-05
13.8652
1.70137e-05
13.8652
2.68756e-05
13.8652
4.22326e-05
13.8653
6.60037e-05
13.8653
0.000102555
13.8655
0.000158392
13.8657
0.000242965
0.000370203
13.866
13.8651
1.22125e-15
13.8651
3.10862e-15
13.8651
7.88258e-15
13.8651
1.66533e-14
13.8651
3.25295e-14
13.8651
6.05072e-14
13.8651
1.0969e-13
13.8651
1.94289e-13
13.8651
3.38063e-13
13.8651
5.82978e-13
13.8651
1.00098e-12
13.8651
1.71163e-12
13.8651
2.91889e-12
13.8651
4.96658e-12
13.8651
8.43337e-12
13.8651
1.42929e-11
13.8651
2.41812e-11
13.8651
4.08438e-11
13.8651
6.88741e-11
13.8651
1.15947e-10
13.8651
1.94861e-10
13.8651
3.26907e-10
13.8651
5.47438e-10
13.8651
9.15e-10
13.8651
1.52636e-09
13.8651
2.54095e-09
13.8651
4.22094e-09
13.8651
6.996e-09
13.8651
1.15685e-08
13.8651
1.90829e-08
13.8651
3.13981e-08
13.8651
5.15228e-08
13.8651
8.4311e-08
13.8651
1.37561e-07
13.8651
2.23756e-07
13.8651
3.6279e-07
13.8651
5.86237e-07
13.8651
9.43957e-07
13.8651
1.51432e-06
13.8651
2.41984e-06
13.8651
3.851e-06
13.8651
6.10224e-06
13.8651
9.62572e-06
13.8652
1.51113e-05
13.8652
2.36029e-05
13.8652
3.66721e-05
13.8652
5.66584e-05
13.8653
8.70333e-05
13.8654
0.000132819
0.000201397
13.8656
13.8651
5.55112e-16
13.8651
2.55351e-15
13.8651
5.88418e-15
13.8651
1.23235e-14
13.8651
2.37588e-14
13.8651
4.24105e-14
13.8651
7.43849e-14
13.8651
1.31006e-13
13.8651
2.28928e-13
13.8651
3.94462e-13
13.8651
6.74572e-13
13.8651
1.14997e-12
13.8651
1.95444e-12
13.8651
3.31146e-12
13.8651
5.5953e-12
13.8651
9.43468e-12
13.8651
1.58807e-11
13.8651
2.66812e-11
13.8651
4.47486e-11
13.8651
7.4917e-11
13.8651
1.25201e-10
13.8651
2.08853e-10
13.8651
3.47745e-10
13.8651
5.7787e-10
13.8651
9.58357e-10
13.8651
1.58601e-09
13.8651
2.61905e-09
13.8651
4.31506e-09
13.8651
7.09259e-09
13.8651
1.16291e-08
13.8651
1.90183e-08
13.8651
3.10187e-08
13.8651
5.04499e-08
13.8651
8.18125e-08
13.8651
1.32267e-07
13.8651
2.13151e-07
13.8651
3.42352e-07
13.8651
5.47939e-07
13.8651
8.73774e-07
13.8651
1.38801e-06
13.8651
2.19604e-06
13.8651
3.45981e-06
13.8651
5.42674e-06
13.8651
8.47237e-06
13.8651
1.31622e-05
13.8652
2.03439e-05
13.8652
3.12737e-05
13.8652
4.7809e-05
13.8653
7.26274e-05
0.000109655
13.8654
13.8651
1.44329e-15
13.8651
3.33067e-15
13.8651
5.66214e-15
13.8651
9.32587e-15
13.8651
1.59872e-14
13.8651
2.87548e-14
13.8651
5.14033e-14
13.8651
8.89289e-14
13.8651
1.53322e-13
13.8651
2.63456e-13
13.8651
4.49196e-13
13.8651
7.62279e-13
13.8651
1.28919e-12
13.8651
2.17393e-12
13.8651
3.65685e-12
13.8651
6.1372e-12
13.8651
1.02779e-11
13.8651
1.71801e-11
13.8651
2.8665e-11
13.8651
4.77409e-11
13.8651
7.9366e-11
13.8651
1.31691e-10
13.8651
2.18096e-10
13.8651
3.60468e-10
13.8651
5.94559e-10
13.8651
9.78571e-10
13.8651
1.60705e-09
13.8651
2.6331e-09
13.8651
4.30394e-09
13.8651
7.01751e-09
13.8651
1.14124e-08
13.8651
1.85097e-08
13.8651
2.99366e-08
13.8651
4.82764e-08
13.8651
7.76146e-08
13.8651
1.24385e-07
13.8651
1.98681e-07
13.8651
3.16254e-07
13.8651
5.01588e-07
13.8651
7.92528e-07
13.8651
1.24728e-06
13.8651
1.95489e-06
13.8651
3.05072e-06
13.8651
4.73927e-06
13.8651
7.32724e-06
13.8651
1.12724e-05
13.8652
1.72508e-05
13.8652
2.62586e-05
13.8652
3.97273e-05
5.97515e-05
13.8653
13.8651
-2.22045e-16
13.8651
6.66134e-16
13.8651
2.44249e-15
13.8651
5.21805e-15
13.8651
1.03251e-14
13.8651
1.89848e-14
13.8651
3.35287e-14
13.8651
5.86198e-14
13.8651
1.0103e-13
13.8651
1.72973e-13
13.8651
2.94542e-13
13.8651
4.98379e-13
13.8651
8.39107e-13
13.8651
1.40887e-12
13.8651
2.35922e-12
13.8651
3.94029e-12
13.8651
6.56752e-12
13.8651
1.09264e-11
13.8651
1.81427e-11
13.8651
3.00675e-11
13.8651
4.97383e-11
13.8651
8.21183e-11
13.8651
1.35311e-10
13.8651
2.22509e-10
13.8651
3.65142e-10
13.8651
5.97905e-10
13.8651
9.76871e-10
13.8651
1.59232e-09
13.8651
2.58932e-09
13.8651
4.20004e-09
13.8651
6.79516e-09
13.8651
1.09641e-08
13.8651
1.76415e-08
13.8651
2.83029e-08
13.8651
4.52704e-08
13.8651
7.21819e-08
13.8651
1.14715e-07
13.8651
1.81688e-07
13.8651
2.8674e-07
13.8651
4.50855e-07
13.8651
7.0616e-07
13.8651
1.10158e-06
13.8651
1.71116e-06
13.8651
2.64636e-06
13.8651
4.07366e-06
13.8651
6.24063e-06
13.8651
9.51173e-06
13.8652
1.44223e-05
13.8652
2.17396e-05
3.25839e-05
13.8652
13.8651
1.11022e-16
13.8651
2.23253e-31
13.8651
1.11022e-15
13.8651
3.33067e-15
13.8651
6.55032e-15
13.8651
1.23235e-14
13.8651
2.23155e-14
13.8651
3.88578e-14
13.8651
6.67244e-14
13.8651
1.13465e-13
13.8651
1.91513e-13
13.8651
3.22187e-13
13.8651
5.40457e-13
13.8651
9.02611e-13
13.8651
1.50358e-12
13.8651
2.50067e-12
13.8651
4.15068e-12
13.8651
6.87317e-12
13.8651
1.13592e-11
13.8651
1.87382e-11
13.8651
3.08529e-11
13.8651
5.07002e-11
13.8651
8.31478e-11
13.8651
1.36081e-10
13.8651
2.22246e-10
13.8651
3.62184e-10
13.8651
5.8891e-10
13.8651
9.55339e-10
13.8651
1.54605e-09
13.8651
2.49577e-09
13.8651
4.01851e-09
13.8651
6.45298e-09
13.8651
1.03335e-08
13.8651
1.65e-08
13.8651
2.62675e-08
13.8651
4.16869e-08
13.8651
6.59442e-08
13.8651
1.03966e-07
13.8651
1.63338e-07
13.8651
2.55682e-07
13.8651
3.98716e-07
13.8651
6.19315e-07
13.8651
9.58004e-07
13.8651
1.47555e-06
13.8651
2.26239e-06
13.8651
3.45263e-06
13.8651
5.24304e-06
13.8651
7.92189e-06
13.8651
1.19013e-05
1.77819e-05
13.8652
13.8651
-6.43998e-32
13.8651
4.44089e-16
13.8651
6.66134e-16
13.8651
1.9984e-15
13.8651
5.44009e-15
13.8651
9.4369e-15
13.8651
1.55431e-14
13.8651
2.59792e-14
13.8651
4.39648e-14
13.8651
7.37188e-14
13.8651
1.23679e-13
13.8651
2.06946e-13
13.8651
3.44724e-13
13.8651
5.72542e-13
13.8651
9.49574e-13
13.8651
1.57241e-12
13.8651
2.59748e-12
13.8651
4.28191e-12
13.8651
7.04636e-12
13.8651
1.15739e-11
13.8651
1.89712e-11
13.8651
3.10352e-11
13.8651
5.06726e-11
13.8651
8.25641e-11
13.8651
1.34243e-10
13.8651
2.17788e-10
13.8651
3.52538e-10
13.8651
5.6933e-10
13.8651
9.17239e-10
13.8651
1.47407e-09
13.8651
2.36288e-09
13.8651
3.77749e-09
13.8651
6.02243e-09
13.8651
9.57406e-09
13.8651
1.51752e-08
13.8651
2.39794e-08
13.8651
3.7771e-08
13.8651
5.92978e-08
13.8651
9.2774e-08
13.8651
1.4463e-07
13.8651
2.24635e-07
13.8651
3.4755e-07
13.8651
5.35556e-07
13.8651
8.21803e-07
13.8651
1.25548e-06
13.8651
1.9093e-06
13.8651
2.88966e-06
13.8651
4.35206e-06
13.8651
6.51831e-06
9.71098e-06
13.8651
13.8651
2.22045e-16
13.8651
7.77156e-16
13.8651
1.11022e-15
13.8651
1.88738e-15
13.8651
3.10862e-15
13.8651
5.44009e-15
13.8651
9.4369e-15
13.8651
1.64313e-14
13.8651
2.78666e-14
13.8651
4.68514e-14
13.8651
7.89369e-14
13.8651
1.31006e-13
13.8651
2.16827e-13
13.8651
3.5949e-13
13.8651
5.94191e-13
13.8651
9.78662e-13
13.8651
1.60894e-12
13.8651
2.64211e-12
13.8651
4.33165e-12
13.8651
7.086e-12
13.8651
1.15691e-11
13.8651
1.88507e-11
13.8651
3.06516e-11
13.8651
4.97352e-11
13.8651
8.05278e-11
13.8651
1.301e-10
13.8651
2.09713e-10
13.8651
3.3726e-10
13.8651
5.41083e-10
13.8651
8.6594e-10
13.8651
1.38231e-09
13.8651
2.20075e-09
13.8651
3.49425e-09
13.8651
5.53231e-09
13.8651
8.73353e-09
13.8651
1.37453e-08
13.8651
2.15654e-08
13.8651
3.37244e-08
13.8651
5.25611e-08
13.8651
8.16318e-08
13.8651
1.2632e-07
13.8651
1.94733e-07
13.8651
2.99018e-07
13.8651
4.57268e-07
13.8651
6.9626e-07
13.8651
1.05546e-06
13.8651
1.59249e-06
13.8651
2.39136e-06
13.8651
3.57166e-06
5.30699e-06
13.8651
13.8651
3.33067e-16
13.8651
3.33067e-16
13.8651
6.66134e-16
13.8651
6.66134e-16
13.8651
1.66533e-15
13.8651
3.21965e-15
13.8651
5.88418e-15
13.8651
1.04361e-14
13.8651
1.76525e-14
13.8651
2.95319e-14
13.8651
4.90719e-14
13.8651
8.16014e-14
13.8651
1.35447e-13
13.8651
2.23488e-13
13.8651
3.67484e-13
13.8651
6.03184e-13
13.8651
9.89209e-13
13.8651
1.61982e-12
13.8651
2.64477e-12
13.8651
4.30955e-12
13.8651
7.00895e-12
13.8651
1.13752e-11
13.8651
1.84243e-11
13.8651
2.97775e-11
13.8651
4.80243e-11
13.8651
7.72813e-11
13.8651
1.24083e-10
13.8651
1.98764e-10
13.8651
3.17639e-10
13.8651
5.06362e-10
13.8651
8.05176e-10
13.8651
1.27697e-09
13.8651
2.01975e-09
13.8651
3.18567e-09
13.8651
5.01014e-09
13.8651
7.85597e-09
13.8651
1.22803e-08
13.8651
1.91348e-08
13.8651
2.97166e-08
13.8651
4.59915e-08
13.8651
7.09258e-08
13.8651
1.08974e-07
13.8651
1.66787e-07
13.8651
2.54251e-07
13.8651
3.85951e-07
13.8651
5.83337e-07
13.8651
8.77647e-07
13.8651
1.31433e-06
13.8651
1.95798e-06
2.90219e-06
13.8651
13.8651
-7.77156e-16
13.8651
-4.44089e-16
13.8651
6.66134e-16
13.8651
1.55431e-15
13.8651
1.55431e-15
13.8651
1.55431e-15
13.8651
2.55351e-15
13.8651
4.88498e-15
13.8651
9.32587e-15
13.8651
1.70974e-14
13.8651
2.9865e-14
13.8651
5.08482e-14
13.8651
8.35998e-14
13.8651
1.37668e-13
13.8651
2.26041e-13
13.8651
3.70481e-13
13.8651
6.05849e-13
13.8651
9.86322e-13
13.8651
1.60372e-12
13.8651
2.60403e-12
13.8651
4.21996e-12
13.8651
6.82443e-12
13.8651
1.10115e-11
13.8651
1.77297e-11
13.8651
2.84872e-11
13.8651
4.56714e-11
13.8651
7.30588e-11
13.8651
1.166e-10
13.8651
1.85649e-10
13.8651
2.94871e-10
13.8651
4.67176e-10
13.8651
7.38251e-10
13.8651
1.1635e-09
13.8651
1.82866e-09
13.8651
2.86589e-09
13.8651
4.47823e-09
13.8651
6.97641e-09
13.8651
1.0834e-08
13.8651
1.67699e-08
13.8651
2.58703e-08
13.8651
3.97696e-08
13.8651
6.0915e-08
13.8651
9.29518e-08
13.8651
1.41282e-07
13.8651
2.13858e-07
13.8651
3.22349e-07
13.8651
4.83712e-07
13.8651
7.22573e-07
13.8651
1.07386e-06
1.58812e-06
13.8651
13.8651
1.11022e-16
13.8651
-2.22045e-16
13.8651
-2.22045e-16
13.8651
-2.22045e-16
13.8651
-4.12158e-31
13.8651
8.88178e-16
13.8651
2.22045e-15
13.8651
4.55191e-15
13.8651
7.43849e-15
13.8651
1.17684e-14
13.8651
1.86517e-14
13.8651
3.03091e-14
13.8651
5.09592e-14
13.8651
8.42659e-14
13.8651
1.38001e-13
13.8651
2.25597e-13
13.8651
3.67262e-13
13.8651
5.96967e-13
13.8651
9.67892e-13
13.8651
1.56541e-12
13.8651
2.52742e-12
13.8651
4.07152e-12
13.8651
6.54587e-12
13.8651
1.05034e-11
13.8651
1.68184e-11
13.8651
2.687e-11
13.8651
4.28327e-11
13.8651
6.81246e-11
13.8651
1.08097e-10
13.8651
1.71104e-10
13.8651
2.70164e-10
13.8651
4.25481e-10
13.8651
6.68326e-10
13.8651
1.04692e-09
13.8651
1.63537e-09
13.8651
2.54718e-09
13.8651
3.95549e-09
13.8651
6.12344e-09
13.8651
9.4493e-09
13.8651
1.45332e-08
13.8651
2.22756e-08
13.8651
3.40214e-08
13.8651
5.17688e-08
13.8651
7.84719e-08
13.8651
1.18471e-07
13.8651
1.78118e-07
13.8651
2.66631e-07
13.8651
3.97366e-07
13.8651
5.89242e-07
8.69596e-07
13.8651
13.8651
4.44089e-16
13.8651
-2.22045e-16
13.8651
-4.44089e-16
13.8651
1.11022e-16
13.8651
3.33067e-16
13.8651
3.33067e-16
13.8651
1.44329e-15
13.8651
2.55351e-15
13.8651
3.66374e-15
13.8651
6.32827e-15
13.8651
1.09912e-14
13.8651
1.89848e-14
13.8651
3.11973e-14
13.8651
5.08482e-14
13.8651
8.30447e-14
13.8651
1.35336e-13
13.8651
2.2049e-13
13.8651
3.58269e-13
13.8651
5.80425e-13
13.8651
9.36584e-13
13.8651
1.50646e-12
13.8651
2.41818e-12
13.8651
3.87435e-12
13.8651
6.19527e-12
13.8651
9.88576e-12
13.8651
1.57429e-11
13.8651
2.50152e-11
13.8651
3.96561e-11
13.8651
6.27197e-11
13.8651
9.89595e-11
13.8651
1.55755e-10
13.8651
2.44525e-10
13.8651
3.82885e-10
13.8651
5.9792e-10
13.8651
9.31139e-10
13.8651
1.44592e-09
13.8651
2.23868e-09
13.8651
3.45554e-09
13.8651
5.31706e-09
13.8651
8.15475e-09
13.8651
1.24648e-08
13.8651
1.89864e-08
13.8651
2.88154e-08
13.8651
4.35684e-08
13.8651
6.56152e-08
13.8651
9.84186e-08
13.8651
1.46992e-07
13.8651
2.18591e-07
13.8651
3.23475e-07
4.76449e-07
13.8651
13.8651
-6.66134e-16
13.8651
-2.57599e-32
13.8651
4.44089e-16
13.8651
5.55112e-16
13.8651
8.88178e-16
13.8651
1.77636e-15
13.8651
2.44249e-15
13.8651
2.44249e-15
13.8651
2.9976e-15
13.8651
4.44089e-15
13.8651
7.54952e-15
13.8651
1.26565e-14
13.8651
1.92069e-14
13.8651
3.11973e-14
13.8651
5.12923e-14
13.8651
8.28226e-14
13.8651
1.33116e-13
13.8651
2.15161e-13
13.8651
3.46723e-13
13.8651
5.57221e-13
13.8651
8.93174e-13
13.8651
1.42852e-12
13.8651
2.28217e-12
13.8651
3.6392e-12
13.8651
5.79048e-12
13.8651
9.19231e-12
13.8651
1.45601e-11
13.8651
2.30118e-11
13.8651
3.62852e-11
13.8651
5.70773e-11
13.8651
8.95647e-11
13.8651
1.4019e-10
13.8651
2.18866e-10
13.8651
3.40789e-10
13.8651
5.29184e-10
13.8651
8.19411e-10
13.8651
1.26513e-09
13.8651
1.94746e-09
13.8651
2.98851e-09
13.8651
4.5714e-09
13.8651
6.96956e-09
13.8651
1.05894e-08
13.8651
1.60322e-08
13.8651
2.41832e-08
13.8651
3.63373e-08
13.8651
5.43834e-08
13.8651
8.10518e-08
13.8651
1.20287e-07
13.8651
1.77661e-07
2.61201e-07
13.8651
13.8651
7.77156e-16
13.8651
3.33067e-16
13.8651
-3.33067e-16
13.8651
-5.55112e-16
13.8651
3.33067e-16
13.8651
5.55112e-16
13.8651
4.44089e-16
13.8651
5.55112e-16
13.8651
1.22125e-15
13.8651
2.77556e-15
13.8651
3.77476e-15
13.8651
5.77316e-15
13.8651
1.06581e-14
13.8651
1.84297e-14
13.8651
3.0087e-14
13.8651
4.87388e-14
13.8651
7.9492e-14
13.8651
1.27787e-13
13.8651
2.05058e-13
13.8651
3.28515e-13
13.8651
5.26024e-13
13.8651
8.40994e-13
13.8651
1.34048e-12
13.8651
2.13052e-12
13.8651
3.37952e-12
13.8651
5.34994e-12
13.8651
8.45035e-12
13.8651
1.33161e-11
13.8651
2.09358e-11
13.8651
3.2838e-11
13.8651
5.1381e-11
13.8651
8.01962e-11
13.8651
1.24854e-10
13.8651
1.93871e-10
13.8651
3.0023e-10
13.8651
4.63649e-10
13.8651
7.13976e-10
13.8651
1.09622e-09
13.8651
1.67798e-09
13.8651
2.5604e-09
13.8651
3.89418e-09
13.8651
5.90287e-09
13.8651
8.91648e-09
13.8651
1.34199e-08
13.8651
2.01215e-08
13.8651
3.00524e-08
13.8651
4.47009e-08
13.8651
6.62142e-08
13.8651
9.76206e-08
1.4328e-07
13.8651
13.8651
-5.55112e-16
13.8651
-2.22045e-16
13.8651
-2.22045e-16
13.8651
-5.55112e-16
13.8651
-1.55431e-15
13.8651
-2.22045e-15
13.8651
-2.55351e-15
13.8651
-1.9984e-15
13.8651
-1.55431e-15
13.8651
-9.99201e-16
13.8651
2.22045e-16
13.8651
2.10942e-15
13.8651
5.32907e-15
13.8651
1.0103e-14
13.8651
1.77636e-14
13.8651
2.9643e-14
13.8651
4.68514e-14
13.8651
7.53841e-14
13.8651
1.21569e-13
13.8651
1.944e-13
13.8651
3.10085e-13
13.8651
4.93272e-13
13.8651
7.84262e-13
13.8651
1.24356e-12
13.8651
1.96687e-12
13.8651
3.10496e-12
13.8651
4.89109e-12
13.8651
7.68619e-12
13.8651
1.20509e-11
13.8651
1.88498e-11
13.8651
2.94149e-11
13.8651
4.57892e-11
13.8651
7.10999e-11
13.8651
1.10116e-10
13.8651
1.70089e-10
13.8651
2.6201e-10
13.8651
4.02474e-10
13.8651
6.16447e-10
13.8651
9.41354e-10
13.8651
1.43306e-09
13.8651
2.17465e-09
13.8651
3.28909e-09
13.8651
4.95763e-09
13.8651
7.44608e-09
13.8651
1.11421e-08
13.8651
1.6609e-08
13.8651
2.46588e-08
13.8651
3.64615e-08
13.8651
5.36652e-08
7.86398e-08
13.8651
13.8651
6.66134e-16
13.8651
2.22045e-16
13.8651
-5.55112e-16
13.8651
-1.44329e-15
13.8651
-1.33227e-15
13.8651
-1.33227e-15
13.8651
-1.44329e-15
13.8651
-8.88178e-16
13.8651
7.77156e-16
13.8651
1.44329e-15
13.8651
2.10942e-15
13.8651
3.21965e-15
13.8651
4.996e-15
13.8651
6.88338e-15
13.8651
1.03251e-14
13.8651
1.67644e-14
13.8651
2.78666e-14
13.8651
4.50751e-14
13.8651
7.13873e-14
13.8651
1.14242e-13
13.8651
1.82077e-13
13.8651
2.89213e-13
13.8651
4.57967e-13
13.8651
7.24198e-13
13.8651
1.14309e-12
13.8651
1.79867e-12
13.8651
2.82407e-12
13.8651
4.42635e-12
13.8651
6.92113e-12
13.8651
1.07966e-11
13.8651
1.68053e-11
13.8651
2.60957e-11
13.8651
4.04199e-11
13.8651
6.24476e-11
13.8651
9.62282e-11
13.8651
1.47882e-10
13.8651
2.26634e-10
13.8651
3.4633e-10
13.8651
5.27686e-10
13.8651
8.01565e-10
13.8651
1.21377e-09
13.8651
1.83198e-09
13.8651
2.75577e-09
13.8651
4.13094e-09
13.8651
6.16974e-09
13.8651
9.18027e-09
13.8651
1.36059e-08
13.8651
2.00848e-08
13.8651
2.95147e-08
4.31855e-08
13.8651
13.8651
-4.44089e-16
13.8651
0
13.8651
1.11022e-16
13.8651
3.33067e-16
13.8651
3.33067e-16
13.8651
3.33067e-16
13.8651
5.55112e-16
13.8651
6.66134e-16
13.8651
8.88178e-16
13.8651
1.66533e-15
13.8651
2.10942e-15
13.8651
2.44249e-15
13.8651
3.55271e-15
13.8651
4.88498e-15
13.8651
6.66134e-15
13.8651
1.04361e-14
13.8651
1.74305e-14
13.8651
2.75335e-14
13.8651
4.30767e-14
13.8651
6.75016e-14
13.8651
1.06248e-13
13.8651
1.68199e-13
13.8651
2.66454e-13
13.8651
4.19664e-13
13.8651
6.60805e-13
13.8651
1.0375e-12
13.8651
1.62526e-12
13.8651
2.54086e-12
13.8651
3.9645e-12
13.8651
6.17195e-12
13.8651
9.58478e-12
13.8651
1.48473e-11
13.8651
2.29435e-11
13.8651
3.53672e-11
13.8651
5.43776e-11
13.8651
8.33807e-11
13.8651
1.27502e-10
13.8651
1.94425e-10
13.8651
2.95613e-10
13.8651
4.48115e-10
13.8651
6.77194e-10
13.8651
1.02011e-09
13.8651
1.5316e-09
13.8651
2.29166e-09
13.8651
3.41661e-09
13.8651
5.07505e-09
13.8651
7.50932e-09
13.8651
1.10677e-08
13.8651
1.62398e-08
2.37284e-08
13.8651
13.8651
0
13.8651
-5.15198e-32
13.8651
5.55112e-16
13.8651
1.22125e-15
13.8651
1.44329e-15
13.8651
1.22125e-15
13.8651
7.77156e-16
13.8651
7.77156e-16
13.8651
4.44089e-16
13.8651
2.22045e-16
13.8651
6.66134e-16
13.8651
1.55431e-15
13.8651
2.10942e-15
13.8651
2.9976e-15
13.8651
4.55191e-15
13.8651
6.43929e-15
13.8651
9.65894e-15
13.8651
1.4988e-14
13.8651
2.36478e-14
13.8651
3.79696e-14
13.8651
6.07292e-14
13.8651
9.65894e-14
13.8651
1.52989e-13
13.8651
2.41585e-13
13.8651
3.7903e-13
13.8651
5.95746e-13
13.8651
9.33253e-13
13.8651
1.45639e-12
13.8651
2.26663e-12
13.8651
3.52007e-12
13.8651
5.45541e-12
13.8651
8.43448e-12
13.8651
1.30075e-11
13.8651
2.00076e-11
13.8651
3.06943e-11
13.8651
4.69672e-11
13.8651
7.16739e-11
13.8651
1.0907e-10
13.8651
1.65504e-10
13.8651
2.50398e-10
13.8651
3.77685e-10
13.8651
5.67885e-10
13.8651
8.51095e-10
13.8651
1.27124e-09
13.8651
1.89211e-09
13.8651
2.80603e-09
13.8651
4.14554e-09
13.8651
6.10095e-09
13.8651
8.93953e-09
1.30445e-08
13.8651
13.8651
4.44089e-16
13.8651
4.44089e-16
13.8651
6.66134e-16
13.8651
1.22125e-15
13.8651
1.55431e-15
13.8651
2.10942e-15
13.8651
2.66454e-15
13.8651
2.66454e-15
13.8651
2.22045e-15
13.8651
1.88738e-15
13.8651
1.66533e-15
13.8651
1.11022e-15
13.8651
7.77156e-16
13.8651
7.77156e-16