/*--------------------------------*- C++ -*----------------------------------*\
| =========                 |                                                 |
| \\      /  F ield         | OpenFOAM: The Open Source CFD Toolbox           |
|  \\    /   O peration     | Version:  2412                                  |
|   \\  /    A nd           | Website:  www.openfoam.com                      |
|    \\/     M anipulation  |                                                 |
\*---------------------------------------------------------------------------*/
FoamFile
{
    version     2.0;
    format      ascii;
    arch        "LSB;label=32;scalar=64";
    class       volVectorField;
    location    "0.0999";
    object      U;
}
// * * * * * * * * * * * * * * * * * * * * * * * * * * * * * * * * * * * * * //

dimensions      [0 1 -1 0 0 0 0];

internalField   nonuniform List<vector> 
15000
(
(694.73 9.24142e-14 0)
(694.73 3.60657e-13 0)
(694.73 9.51343e-13 0)
(694.73 1.98881e-12 0)
(694.73 3.86413e-12 0)
(694.73 7.3038e-12 0)
(694.73 1.35461e-11 0)
(694.73 2.48509e-11 0)
(694.73 4.54933e-11 0)
(694.73 8.31749e-11 0)
(694.73 1.51911e-10 0)
(694.73 2.77297e-10 0)
(694.73 5.06246e-10 0)
(694.73 9.24935e-10 0)
(694.73 1.69157e-09 0)
(694.73 3.09706e-09 0)
(694.73 5.67725e-09 0)
(694.73 1.04201e-08 0)
(694.73 1.91516e-08 0)
(694.73 3.52499e-08 0)
(694.73 6.49799e-08 0)
(694.73 1.19978e-07 0)
(694.73 2.21914e-07 0)
(694.73 4.11214e-07 0)
(694.73 7.6348e-07 0)
(694.73 1.42038e-06 0)
(694.73 2.64825e-06 0)
(694.73 4.94931e-06 0)
(694.73 9.27343e-06 0)
(694.73 1.742e-05 0)
(694.729 3.28086e-05 0)
(694.729 6.19672e-05 0)
(694.728 0.000117424 0)
(694.726 0.00022328 0)
(694.723 0.000426008 0)
(694.718 0.000815192 0)
(694.709 0.00156528 0)
(694.691 0.00301827 0)
(694.66 0.00585126 0)
(694.603 0.0113811 0)
(694.499 0.0222121 0)
(694.309 0.0434392 0)
(693.96 0.0856103 0)
(693.316 0.169487 0)
(692.138 0.338684 0)
(689.962 0.672869 0)
(685.971 1.35 0)
(678.324 2.6995 0)
(664.365 5.58484 0)
(637.012 11.3292 0)
(694.73 3.2546e-13 0)
(694.73 1.10573e-12 0)
(694.73 2.67632e-12 0)
(694.73 5.54604e-12 0)
(694.73 1.08636e-11 0)
(694.73 2.05503e-11 0)
(694.73 3.81464e-11 0)
(694.73 7.00675e-11 0)
(694.73 1.28028e-10 0)
(694.73 2.33447e-10 0)
(694.73 4.25238e-10 0)
(694.73 7.74314e-10 0)
(694.73 1.4102e-09 0)
(694.73 2.56953e-09 0)
(694.73 4.68559e-09 0)
(694.73 8.55133e-09 0)
(694.73 1.56212e-08 0)
(694.73 2.85636e-08 0)
(694.73 5.22852e-08 0)
(694.73 9.58103e-08 0)
(694.73 1.75775e-07 0)
(694.73 3.22862e-07 0)
(694.73 5.93805e-07 0)
(694.73 1.09356e-06 0)
(694.73 2.01676e-06 0)
(694.73 3.7246e-06 0)
(694.73 6.88926e-06 0)
(694.73 1.27631e-05 0)
(694.73 2.36864e-05 0)
(694.73 4.40331e-05 0)
(694.729 8.20023e-05 0)
(694.729 0.000152988 0)
(694.728 0.000286023 0)
(694.727 0.000535903 0)
(694.724 0.00100632 0)
(694.72 0.00189318 0)
(694.712 0.00356915 0)
(694.699 0.00674575 0)
(694.674 0.0127924 0)
(694.631 0.0243134 0)
(694.554 0.0463106 0)
(694.417 0.0882988 0)
(694.175 0.169106 0)
(693.746 0.324893 0)
(692.994 0.62816 0)
(691.679 1.20967 0)
(689.407 2.34016 0)
(685.483 4.50791 0)
(678.851 8.86469 0)
(667.918 17.1148 0)
(694.73 5.24792e-13 0)
(694.73 1.72769e-12 0)
(694.73 4.03396e-12 0)
(694.73 8.30053e-12 0)
(694.73 1.61465e-11 0)
(694.73 3.04504e-11 0)
(694.73 5.64035e-11 0)
(694.73 1.03372e-10 0)
(694.73 1.88367e-10 0)
(694.73 3.42249e-10 0)
(694.73 6.20945e-10 0)
(694.73 1.12601e-09 0)
(694.73 2.04199e-09 0)
(694.73 3.70373e-09 0)
(694.73 6.7206e-09 0)
(694.73 1.22008e-08 0)
(694.73 2.21627e-08 0)
(694.73 4.02821e-08 0)
(694.73 7.32642e-08 0)
(694.73 1.33335e-07 0)
(694.73 2.4283e-07 0)
(694.73 4.42532e-07 0)
(694.73 8.07055e-07 0)
(694.73 1.47284e-06 0)
(694.73 2.68987e-06 0)
(694.73 4.91586e-06 0)
(694.73 8.99057e-06 0)
(694.73 1.64538e-05 0)
(694.73 3.01346e-05 0)
(694.73 5.52264e-05 0)
(694.73 0.00010128 0)
(694.729 0.000185841 0)
(694.729 0.000341213 0)
(694.728 0.000626816 0)
(694.726 0.00115214 0)
(694.723 0.00211834 0)
(694.717 0.0038957 0)
(694.707 0.0071648 0)
(694.69 0.0131808 0)
(694.66 0.0242469 0)
(694.608 0.0445912 0)
(694.518 0.0819018 0)
(694.363 0.150281 0)
(694.097 0.275451 0)
(693.644 0.504662 0)
(692.878 0.921354 0)
(691.599 1.67508 0)
(689.504 3.02342 0)
(686.144 5.43966 0)
(680.899 9.68107 0)
(694.73 6.40959e-13 0)
(694.73 2.05982e-12 0)
(694.73 4.8025e-12 0)
(694.73 9.87661e-12 0)
(694.73 1.91561e-11 0)
(694.73 3.60552e-11 0)
(694.73 6.65575e-11 0)
(694.73 1.21542e-10 0)
(694.73 2.20643e-10 0)
(694.73 3.99153e-10 0)
(694.73 7.20832e-10 0)
(694.73 1.30053e-09 0)
(694.73 2.34562e-09 0)
(694.73 4.2301e-09 0)
(694.73 7.62953e-09 0)
(694.73 1.37628e-08 0)
(694.73 2.48329e-08 0)
(694.73 4.4817e-08 0)
(694.73 8.09062e-08 0)
(694.73 1.46089e-07 0)
(694.73 2.63858e-07 0)
(694.73 4.76659e-07 0)
(694.73 8.61289e-07 0)
(694.73 1.55652e-06 0)
(694.73 2.81349e-06 0)
(694.73 5.08596e-06 0)
(694.73 9.19497e-06 0)
(694.73 1.66236e-05 0)
(694.73 3.00544e-05 0)
(694.73 5.43306e-05 0)
(694.73 9.82056e-05 0)
(694.729 0.000177464 0)
(694.729 0.000320587 0)
(694.728 0.000578864 0)
(694.727 0.0010447 0)
(694.725 0.0018841 0)
(694.721 0.00339508 0)
(694.714 0.00611059 0)
(694.703 0.0109837 0)
(694.684 0.0197131 0)
(694.652 0.0353217 0)
(694.596 0.0631439 0)
(694.504 0.112554 0)
(694.349 0.199916 0)
(694.092 0.35376 0)
(693.669 0.623263 0)
(692.98 1.09185 0)
(691.879 1.89629 0)
(690.155 3.25634 0)
(687.524 5.50888 0)
(694.73 6.56205e-13 0)
(694.73 2.08987e-12 0)
(694.73 4.95946e-12 0)
(694.73 1.02706e-11 0)
(694.73 1.99179e-11 0)
(694.73 3.73702e-11 0)
(694.73 6.88166e-11 0)
(694.73 1.25263e-10 0)
(694.73 2.26399e-10 0)
(694.73 4.0758e-10 0)
(694.73 7.32187e-10 0)
(694.73 1.31358e-09 0)
(694.73 2.35493e-09 0)
(694.73 4.22004e-09 0)
(694.73 7.56078e-09 0)
(694.73 1.35439e-08 0)
(694.73 2.42602e-08 0)
(694.73 4.34501e-08 0)
(694.73 7.78141e-08 0)
(694.73 1.39335e-07 0)
(694.73 2.49468e-07 0)
(694.73 4.46555e-07 0)
(694.73 7.99194e-07 0)
(694.73 1.42988e-06 0)
(694.73 2.55753e-06 0)
(694.73 4.57259e-06 0)
(694.73 8.17191e-06 0)
(694.73 1.45963e-05 0)
(694.73 2.60564e-05 0)
(694.73 4.64802e-05 0)
(694.73 8.28497e-05 0)
(694.73 0.000147538 0)
(694.729 0.000262465 0)
(694.729 0.000466342 0)
(694.728 0.000827481 0)
(694.727 0.00146601 0)
(694.724 0.00259285 0)
(694.72 0.00457651 0)
(694.713 0.00805934 0)
(694.701 0.0141555 0)
(694.682 0.0247923 0)
(694.649 0.04328 0)
(694.595 0.0752663 0)
(694.507 0.130294 0)
(694.364 0.22437 0)
(694.132 0.384153 0)
(693.764 0.653384 0)
(693.184 1.10222 0)
(692.289 1.8392 0)
(690.938 3.02676 0)
(694.73 5.98995e-13 0)
(694.73 1.99709e-12 0)
(694.73 4.73652e-12 0)
(694.73 9.80129e-12 0)
(694.73 1.89849e-11 0)
(694.73 3.55109e-11 0)
(694.73 6.51513e-11 0)
(694.73 1.18015e-10 0)
(694.73 2.12191e-10 0)
(694.73 3.79895e-10 0)
(694.73 6.7847e-10 0)
(694.73 1.20979e-09 0)
(694.73 2.15506e-09 0)
(694.73 3.8362e-09 0)
(694.73 6.82549e-09 0)
(694.73 1.21387e-08 0)
(694.73 2.15804e-08 0)
(694.73 3.83503e-08 0)
(694.73 6.81261e-08 0)
(694.73 1.20964e-07 0)
(694.73 2.14687e-07 0)
(694.73 3.80817e-07 0)
(694.73 6.75128e-07 0)
(694.73 1.19609e-06 0)
(694.73 2.11762e-06 0)
(694.73 3.74609e-06 0)
(694.73 6.62131e-06 0)
(694.73 1.16918e-05 0)
(694.73 2.0624e-05 0)
(694.73 3.63365e-05 0)
(694.73 6.3939e-05 0)
(694.73 0.000112347 0)
(694.73 0.0001971 0)
(694.729 0.00034518 0)
(694.729 0.000603364 0)
(694.728 0.00105241 0)
(694.726 0.00183141 0)
(694.724 0.00317874 0)
(694.72 0.00550149 0)
(694.713 0.00949069 0)
(694.701 0.0163145 0)
(694.682 0.0279344 0)
(694.652 0.0476216 0)
(694.602 0.0807785 0)
(694.523 0.136237 0)
(694.398 0.22831 0)
(694.201 0.379858 0)
(693.896 0.626871 0)
(693.429 1.02408 0)
(692.728 1.65316 0)
(694.73 5.38759e-13 0)
(694.73 1.78773e-12 0)
(694.73 4.216e-12 0)
(694.73 8.70846e-12 0)
(694.73 1.68473e-11 0)
(694.73 3.1431e-11 0)
(694.73 5.74237e-11 0)
(694.73 1.03574e-10 0)
(694.73 1.85368e-10 0)
(694.73 3.30222e-10 0)
(694.73 5.86441e-10 0)
(694.73 1.03935e-09 0)
(694.73 1.83966e-09 0)
(694.73 3.25295e-09 0)
(694.73 5.74768e-09 0)
(694.73 1.01484e-08 0)
(694.73 1.79076e-08 0)
(694.73 3.15782e-08 0)
(694.73 5.56489e-08 0)
(694.73 9.79957e-08 0)
(694.73 1.72442e-07 0)
(694.73 3.03188e-07 0)
(694.73 5.32615e-07 0)
(694.73 9.34743e-07 0)
(694.73 1.63884e-06 0)
(694.73 2.87004e-06 0)
(694.73 5.02027e-06 0)
(694.73 8.7698e-06 0)
(694.73 1.52985e-05 0)
(694.73 2.6646e-05 0)
(694.73 4.63342e-05 0)
(694.73 8.04225e-05 0)
(694.73 0.000139319 0)
(694.73 0.000240829 0)
(694.729 0.000415342 0)
(694.729 0.000714488 0)
(694.728 0.00122573 0)
(694.726 0.00209645 0)
(694.724 0.00357399 0)
(694.72 0.00607086 0)
(694.713 0.0102715 0)
(694.702 0.0173037 0)
(694.685 0.0290125 0)
(694.658 0.0483893 0)
(694.614 0.0802351 0)
(694.547 0.132185 0)
(694.441 0.2162 0)
(694.28 0.350813 0)
(694.034 0.563861 0)
(693.669 0.896958 0)
(694.73 4.63095e-13 0)
(694.73 1.49003e-12 0)
(694.73 3.5702e-12 0)
(694.73 7.4099e-12 0)
(694.73 1.42705e-11 0)
(694.73 2.64628e-11 0)
(694.73 4.80484e-11 0)
(694.73 8.62005e-11 0)
(694.73 1.53518e-10 0)
(694.73 2.71943e-10 0)
(694.73 4.80026e-10 0)
(694.73 8.45528e-10 0)
(694.73 1.48711e-09 0)
(694.73 2.6122e-09 0)
(694.73 4.58391e-09 0)
(694.73 8.03641e-09 0)
(694.73 1.40774e-08 0)
(694.73 2.46374e-08 0)
(694.73 4.30817e-08 0)
(694.73 7.52617e-08 0)
(694.73 1.31352e-07 0)
(694.73 2.28999e-07 0)
(694.73 3.988e-07 0)
(694.73 6.93662e-07 0)
(694.73 1.20502e-06 0)
(694.73 2.09044e-06 0)
(694.73 3.62119e-06 0)
(694.73 6.26288e-06 0)
(694.73 1.08137e-05 0)
(694.73 1.8637e-05 0)
(694.73 3.20585e-05 0)
(694.73 5.50294e-05 0)
(694.73 9.42494e-05 0)
(694.73 0.000161029 0)
(694.729 0.000274413 0)
(694.729 0.000466315 0)
(694.729 0.00079003 0)
(694.728 0.00133408 0)
(694.726 0.00224484 0)
(694.724 0.00376288 0)
(694.72 0.00628136 0)
(694.714 0.0104383 0)
(694.705 0.0172613 0)
(694.689 0.028392 0)
(694.666 0.0464264 0)
(694.629 0.0754365 0)
(694.573 0.121716 0)
(694.487 0.194902 0)
(694.357 0.309321 0)
(694.165 0.486347 0)
(694.73 3.71913e-13 0)
(694.73 1.1923e-12 0)
(694.73 2.81142e-12 0)
(694.73 5.85711e-12 0)
(694.73 1.13938e-11 0)
(694.73 2.11641e-11 0)
(694.73 3.83589e-11 0)
(694.73 6.8531e-11 0)
(694.73 1.2145e-10 0)
(694.73 2.13995e-10 0)
(694.73 3.75721e-10 0)
(694.73 6.57979e-10 0)
(694.73 1.1501e-09 0)
(694.73 2.00729e-09 0)
(694.73 3.49917e-09 0)
(694.73 6.0929e-09 0)
(694.73 1.05979e-08 0)
(694.73 1.84139e-08 0)
(694.73 3.19605e-08 0)
(694.73 5.5409e-08 0)
(694.73 9.59497e-08 0)
(694.73 1.65942e-07 0)
(694.73 2.86621e-07 0)
(694.73 4.9436e-07 0)
(694.73 8.51421e-07 0)
(694.73 1.46404e-06 0)
(694.73 2.51329e-06 0)
(694.73 4.30675e-06 0)
(694.73 7.36615e-06 0)
(694.73 1.25732e-05 0)
(694.73 2.14153e-05 0)
(694.73 3.63912e-05 0)
(694.73 6.16892e-05 0)
(694.73 0.000104298 0)
(694.73 0.000175847 0)
(694.729 0.000295587 0)
(694.729 0.000495276 0)
(694.729 0.000827008 0)
(694.728 0.00137586 0)
(694.726 0.00227988 0)
(694.724 0.00376188 0)
(694.721 0.00617887 0)
(694.716 0.0100988 0)
(694.707 0.0164179 0)
(694.694 0.0265364 0)
(694.675 0.042627 0)
(694.644 0.0680129 0)
(694.598 0.107741 0)
(694.53 0.169257 0)
(694.428 0.263636 0)
(694.73 3.16468e-13 0)
(694.73 9.9172e-13 0)
(694.73 2.24035e-12 0)
(694.73 4.5684e-12 0)
(694.73 8.79656e-12 0)
(694.73 1.63028e-11 0)
(694.73 2.94359e-11 0)
(694.73 5.24271e-11 0)
(694.73 9.25175e-11 0)
(694.73 1.62235e-10 0)
(694.73 2.83358e-10 0)
(694.73 4.9348e-10 0)
(694.73 8.5749e-10 0)
(694.73 1.48745e-09 0)
(694.73 2.57652e-09 0)
(694.73 4.45692e-09 0)
(694.73 7.70021e-09 0)
(694.73 1.32869e-08 0)
(694.73 2.28988e-08 0)
(694.73 3.94124e-08 0)
(694.73 6.77453e-08 0)
(694.73 1.1628e-07 0)
(694.73 1.99297e-07 0)
(694.73 3.41044e-07 0)
(694.73 5.82659e-07 0)
(694.73 9.93704e-07 0)
(694.73 1.69165e-06 0)
(694.73 2.87417e-06 0)
(694.73 4.87336e-06 0)
(694.73 8.24502e-06 0)
(694.73 1.39174e-05 0)
(694.73 2.34345e-05 0)
(694.73 3.93579e-05 0)
(694.73 6.59178e-05 0)
(694.73 0.000110079 0)
(694.73 0.000183252 0)
(694.73 0.000304057 0)
(694.729 0.000502718 0)
(694.729 0.000828058 0)
(694.728 0.00135846 0)
(694.727 0.00221909 0)
(694.725 0.00360841 0)
(694.722 0.00583888 0)
(694.717 0.0093986 0)
(694.71 0.015043 0)
(694.7 0.0239335 0)
(694.683 0.0378319 0)
(694.659 0.0593957 0)
(694.622 0.0925212 0)
(694.569 0.14299 0)
(694.73 2.09122e-13 0)
(694.73 7.29294e-13 0)
(694.73 1.77103e-12 0)
(694.73 3.53775e-12 0)
(694.73 6.72395e-12 0)
(694.73 1.23286e-11 0)
(694.73 2.20795e-11 0)
(694.73 3.9038e-11 0)
(694.73 6.8431e-11 0)
(694.73 1.19359e-10 0)
(694.73 2.07345e-10 0)
(694.73 3.59023e-10 0)
(694.73 6.20211e-10 0)
(694.73 1.0694e-09 0)
(694.73 1.84103e-09 0)
(694.73 3.16471e-09 0)
(694.73 5.43268e-09 0)
(694.73 9.31294e-09 0)
(694.73 1.59426e-08 0)
(694.73 2.72525e-08 0)
(694.73 4.65179e-08 0)
(694.73 7.9279e-08 0)
(694.73 1.34898e-07 0)
(694.73 2.29147e-07 0)
(694.73 3.88562e-07 0)
(694.73 6.57644e-07 0)
(694.73 1.1109e-06 0)
(694.73 1.87266e-06 0)
(694.73 3.14996e-06 0)
(694.73 5.28625e-06 0)
(694.73 8.85004e-06 0)
(694.73 1.47784e-05 0)
(694.73 2.46119e-05 0)
(694.73 4.08712e-05 0)
(694.73 6.76683e-05 0)
(694.73 0.000111677 0)
(694.73 0.000183687 0)
(694.73 0.00030105 0)
(694.729 0.000491532 0)
(694.729 0.000799309 0)
(694.728 0.00129427 0)
(694.727 0.00208624 0)
(694.726 0.00334665 0)
(694.723 0.00534106 0)
(694.719 0.00847717 0)
(694.713 0.0133771 0)
(694.705 0.020978 0)
(694.691 0.0326856 0)
(694.672 0.0505501 0)
(694.643 0.0776059 0)
(694.73 1.6957e-13 0)
(694.73 5.43041e-13 0)
(694.73 1.26771e-12 0)
(694.73 2.60606e-12 0)
(694.73 4.91568e-12 0)
(694.73 8.96655e-12 0)
(694.73 1.60372e-11 0)
(694.73 2.82202e-11 0)
(694.73 4.9232e-11 0)
(694.73 8.54646e-11 0)
(694.73 1.47706e-10 0)
(694.73 2.54356e-10 0)
(694.73 4.36983e-10 0)
(694.73 7.49216e-10 0)
(694.73 1.28235e-09 0)
(694.73 2.19132e-09 0)
(694.73 3.73884e-09 0)
(694.73 6.36944e-09 0)
(694.73 1.08348e-08 0)
(694.73 1.84019e-08 0)
(694.73 3.12048e-08 0)
(694.73 5.28275e-08 0)
(694.73 8.92815e-08 0)
(694.73 1.50619e-07 0)
(694.73 2.53625e-07 0)
(694.73 4.26234e-07 0)
(694.73 7.14855e-07 0)
(694.73 1.19632e-06 0)
(694.73 1.99755e-06 0)
(694.73 3.32744e-06 0)
(694.73 5.52898e-06 0)
(694.73 9.16292e-06 0)
(694.73 1.51436e-05 0)
(694.73 2.49548e-05 0)
(694.73 4.09973e-05 0)
(694.73 6.71354e-05 0)
(694.73 0.000109566 0)
(694.73 0.00017817 0)
(694.73 0.000288639 0)
(694.729 0.00046573 0)
(694.729 0.000748308 0)
(694.728 0.00119698 0)
(694.728 0.00190565 0)
(694.726 0.00301872 0)
(694.724 0.00475644 0)
(694.721 0.00745273 0)
(694.716 0.0116077 0)
(694.709 0.0179678 0)
(694.699 0.0276168 0)
(694.683 0.0421544 0)
(694.73 1.20149e-13 0)
(694.73 3.72999e-13 0)
(694.73 8.78024e-13 0)
(694.73 1.78681e-12 0)
(694.73 3.36595e-12 0)
(694.73 6.20985e-12 0)
(694.73 1.12115e-11 0)
(694.73 1.9833e-11 0)
(694.73 3.4587e-11 0)
(694.73 5.97731e-11 0)
(694.73 1.0282e-10 0)
(694.73 1.76186e-10 0)
(694.73 3.01116e-10 0)
(694.73 5.13525e-10 0)
(694.73 8.74145e-10 0)
(694.73 1.48533e-09 0)
(694.73 2.51963e-09 0)
(694.73 4.26719e-09 0)
(694.73 7.21531e-09 0)
(694.73 1.21801e-08 0)
(694.73 2.05272e-08 0)
(694.73 3.4534e-08 0)
(694.73 5.79952e-08 0)
(694.73 9.72119e-08 0)
(694.73 1.62633e-07 0)
(694.73 2.71523e-07 0)
(694.73 4.52364e-07 0)
(694.73 7.51969e-07 0)
(694.73 1.24712e-06 0)
(694.73 2.06325e-06 0)
(694.73 3.40483e-06 0)
(694.73 5.60369e-06 0)
(694.73 9.19688e-06 0)
(694.73 1.50497e-05 0)
(694.73 2.45515e-05 0)
(694.73 3.99227e-05 0)
(694.73 6.46976e-05 0)
(694.73 0.000104472 0)
(694.73 0.000168068 0)
(694.73 0.000269308 0)
(694.729 0.00042974 0)
(694.729 0.000682748 0)
(694.729 0.00107972 0)
(694.728 0.00169919 0)
(694.727 0.00266024 0)
(694.725 0.00414246 0)
(694.722 0.00641346 0)
(694.719 0.00987087 0)
(694.713 0.0150898 0)
(694.705 0.0229171 0)
(694.73 6.84498e-14 0)
(694.73 2.27556e-13 0)
(694.73 5.5945e-13 0)
(694.73 1.19668e-12 0)
(694.73 2.33798e-12 0)
(694.73 4.30975e-12 0)
(694.73 7.71211e-12 0)
(694.73 1.36191e-11 0)
(694.73 2.37269e-11 0)
(694.73 4.08882e-11 0)
(694.73 7.00244e-11 0)
(694.73 1.19509e-10 0)
(694.73 2.03371e-10 0)
(694.73 3.45253e-10 0)
(694.73 5.847e-10 0)
(694.73 9.88209e-10 0)
(694.73 1.66729e-09 0)
(694.73 2.80814e-09 0)
(694.73 4.72155e-09 0)
(694.73 7.92496e-09 0)
(694.73 1.32786e-08 0)
(694.73 2.22085e-08 0)
(694.73 3.70753e-08 0)
(694.73 6.17741e-08 0)
(694.73 1.02722e-07 0)
(694.73 1.70453e-07 0)
(694.73 2.82234e-07 0)
(694.73 4.66254e-07 0)
(694.73 7.68444e-07 0)
(694.73 1.26335e-06 0)
(694.73 2.07167e-06 0)
(694.73 3.38798e-06 0)
(694.73 5.5251e-06 0)
(694.73 8.98371e-06 0)
(694.73 1.45624e-05 0)
(694.73 2.35292e-05 0)
(694.73 3.78891e-05 0)
(694.73 6.07968e-05 0)
(694.73 9.7193e-05 0)
(694.73 0.000154773 0)
(694.73 0.00024546 0)
(694.729 0.000387616 0)
(694.729 0.000609349 0)
(694.729 0.000953389 0)
(694.728 0.00148419 0)
(694.727 0.0022985 0)
(694.726 0.00353985 0)
(694.724 0.0054207 0)
(694.721 0.00824726 0)
(694.716 0.0124693 0)
(694.73 8.78713e-14 0)
(694.73 2.62535e-13 0)
(694.73 5.07759e-13 0)
(694.73 9.18217e-13 0)
(694.73 1.67161e-12 0)
(694.73 2.98082e-12 0)
(694.73 5.22851e-12 0)
(694.73 9.14239e-12 0)
(694.73 1.58774e-11 0)
(694.73 2.73643e-11 0)
(694.73 4.67651e-11 0)
(694.73 7.95646e-11 0)
(694.73 1.34934e-10 0)
(694.73 2.28116e-10 0)
(694.73 3.84589e-10 0)
(694.73 6.46915e-10 0)
(694.73 1.08604e-09 0)
(694.73 1.81973e-09 0)
(694.73 3.04357e-09 0)
(694.73 5.08121e-09 0)
(694.73 8.46762e-09 0)
(694.73 1.40845e-08 0)
(694.73 2.33827e-08 0)
(694.73 3.87421e-08 0)
(694.73 6.40596e-08 0)
(694.73 1.05695e-07 0)
(694.73 1.74009e-07 0)
(694.73 2.85813e-07 0)
(694.73 4.68337e-07 0)
(694.73 7.65504e-07 0)
(694.73 1.24799e-06 0)
(694.73 2.02907e-06 0)
(694.73 3.28972e-06 0)
(694.73 5.31788e-06 0)
(694.73 8.5701e-06 0)
(694.73 1.37669e-05 0)
(694.73 2.20412e-05 0)
(694.73 3.51649e-05 0)
(694.73 5.58978e-05 0)
(694.73 8.85144e-05 0)
(694.73 0.000139602 0)
(694.73 0.000219254 0)
(694.73 0.000342842 0)
(694.729 0.000533623 0)
(694.729 0.000826524 0)
(694.729 0.00127374 0)
(694.728 0.00195243 0)
(694.727 0.00297639 0)
(694.725 0.00450912 0)
(694.723 0.00679028 0)
(694.73 5.66198e-14 0)
(694.73 1.70133e-13 0)
(694.73 3.64691e-13 0)
(694.73 6.43632e-13 0)
(694.73 1.11757e-12 0)
(694.73 2.01545e-12 0)
(694.73 3.58819e-12 0)
(694.73 6.20432e-12 0)
(694.73 1.06619e-11 0)
(694.73 1.82181e-11 0)
(694.73 3.09849e-11 0)
(694.73 5.24661e-11 0)
(694.73 8.85024e-11 0)
(694.73 1.48838e-10 0)
(694.73 2.49705e-10 0)
(694.73 4.17942e-10 0)
(694.73 6.98051e-10 0)
(694.73 1.16376e-09 0)
(694.73 1.93661e-09 0)
(694.73 3.2167e-09 0)
(694.73 5.3331e-09 0)
(694.73 8.82498e-09 0)
(694.73 1.45747e-08 0)
(694.73 2.4022e-08 0)
(694.73 3.95109e-08 0)
(694.73 6.48461e-08 0)
(694.73 1.0619e-07 0)
(694.73 1.73489e-07 0)
(694.73 2.82759e-07 0)
(694.73 4.59696e-07 0)
(694.73 7.45415e-07 0)
(694.73 1.20544e-06 0)
(694.73 1.94391e-06 0)
(694.73 3.12556e-06 0)
(694.73 5.01022e-06 0)
(694.73 8.00576e-06 0)
(694.73 1.275e-05 0)
(694.73 2.02357e-05 0)
(694.73 3.20007e-05 0)
(694.73 5.04157e-05 0)
(694.73 7.91163e-05 0)
(694.73 0.000123647 0)
(694.73 0.000192415 0)
(694.73 0.000298085 0)
(694.729 0.000459602 0)
(694.729 0.000705173 0)
(694.729 0.00107634 0)
(694.728 0.00163421 0)
(694.727 0.00246631 0)
(694.726 0.00370064 0)
(694.73 2.59498e-15 0)
(694.73 1.32803e-14 0)
(694.73 1.14214e-13 0)
(694.73 3.33958e-13 0)
(694.73 6.86505e-13 0)
(694.73 1.27412e-12 0)
(694.73 2.29226e-12 0)
(694.73 4.01054e-12 0)
(694.73 6.92076e-12 0)
(694.73 1.18437e-11 0)
(694.73 2.01156e-11 0)
(694.73 3.39752e-11 0)
(694.73 5.71214e-11 0)
(694.73 9.56931e-11 0)
(694.73 1.59867e-10 0)
(694.73 2.66452e-10 0)
(694.73 4.43138e-10 0)
(694.73 7.35479e-10 0)
(694.73 1.2182e-09 0)
(694.73 2.01383e-09 0)
(694.73 3.32288e-09 0)
(694.73 5.47206e-09 0)
(694.73 8.99325e-09 0)
(694.73 1.47499e-08 0)
(694.73 2.41409e-08 0)
(694.73 3.94247e-08 0)
(694.73 6.42408e-08 0)
(694.73 1.04433e-07 0)
(694.73 1.69362e-07 0)
(694.73 2.73971e-07 0)
(694.73 4.42047e-07 0)
(694.73 7.11306e-07 0)
(694.73 1.14138e-06 0)
(694.73 1.82616e-06 0)
(694.73 2.91297e-06 0)
(694.73 4.63196e-06 0)
(694.73 7.34135e-06 0)
(694.73 1.1596e-05 0)
(694.73 1.82515e-05 0)
(694.73 2.86211e-05 0)
(694.73 4.47097e-05 0)
(694.73 6.95625e-05 0)
(694.73 0.000107778 0)
(694.73 0.000166258 0)
(694.73 0.000255287 0)
(694.73 0.000390131 0)
(694.729 0.0005932 0)
(694.729 0.000897359 0)
(694.729 0.00134957 0)
(694.728 0.00201839 0)
(694.73 1.13949e-16 0)
(694.73 1.1024e-14 0)
(694.73 6.19092e-14 0)
(694.73 2.0915e-13 0)
(694.73 5.08452e-13 0)
(694.73 9.31077e-13 0)
(694.73 1.58447e-12 0)
(694.73 2.71935e-12 0)
(694.73 4.62071e-12 0)
(694.73 7.8055e-12 0)
(694.73 1.31164e-11 0)
(694.73 2.19743e-11 0)
(694.73 3.67134e-11 0)
(694.73 6.11066e-11 0)
(694.73 1.01482e-10 0)
(694.73 1.68326e-10 0)
(694.73 2.78675e-10 0)
(694.73 4.60296e-10 0)
(694.73 7.58842e-10 0)
(694.73 1.24878e-09 0)
(694.73 2.05103e-09 0)
(694.73 3.362e-09 0)
(694.73 5.50006e-09 0)
(694.73 8.97921e-09 0)
(694.73 1.46282e-08 0)
(694.73 2.3779e-08 0)
(694.73 3.85674e-08 0)
(694.73 6.24065e-08 0)
(694.73 1.00738e-07 0)
(694.73 1.62207e-07 0)
(694.73 2.6051e-07 0)
(694.73 4.17264e-07 0)
(694.73 6.66489e-07 0)
(694.73 1.0615e-06 0)
(694.73 1.68558e-06 0)
(694.73 2.66827e-06 0)
(694.73 4.21028e-06 0)
(694.73 6.62119e-06 0)
(694.73 1.03765e-05 0)
(694.73 1.62027e-05 0)
(694.73 2.52052e-05 0)
(694.73 3.90559e-05 0)
(694.73 6.02709e-05 0)
(694.73 9.26134e-05 0)
(694.73 0.000141673 0)
(694.73 0.000215721 0)
(694.73 0.000326865 0)
(694.729 0.000492816 0)
(694.729 0.000738825 0)
(694.729 0.00110168 0)
(694.73 1.00046e-14 0)
(694.73 4.49121e-14 0)
(694.73 8.64806e-14 0)
(694.73 1.78984e-13 0)
(694.73 3.60122e-13 0)
(694.73 6.24692e-13 0)
(694.73 1.04902e-12 0)
(694.73 1.75897e-12 0)
(694.73 2.98085e-12 0)
(694.73 4.99215e-12 0)
(694.73 8.37457e-12 0)
(694.73 1.39818e-11 0)
(694.73 2.31986e-11 0)
(694.73 3.84628e-11 0)
(694.73 6.37094e-11 0)
(694.73 1.05229e-10 0)
(694.73 1.73389e-10 0)
(694.73 2.85181e-10 0)
(694.73 4.68306e-10 0)
(694.73 7.67488e-10 0)
(694.73 1.25523e-09 0)
(694.73 2.04884e-09 0)
(694.73 3.33754e-09 0)
(694.73 5.42544e-09 0)
(694.73 8.80063e-09 0)
(694.73 1.42441e-08 0)
(694.73 2.30026e-08 0)
(694.73 3.70598e-08 0)
(694.73 5.95644e-08 0)
(694.73 9.54963e-08 0)
(694.73 1.52711e-07 0)
(694.73 2.43555e-07 0)
(694.73 3.87374e-07 0)
(694.73 6.14357e-07 0)
(694.73 9.71473e-07 0)
(694.73 1.53147e-06 0)
(694.73 2.40662e-06 0)
(694.73 3.76942e-06 0)
(694.73 5.88379e-06 0)
(694.73 9.15154e-06 0)
(694.73 1.41817e-05 0)
(694.73 2.18925e-05 0)
(694.73 3.36608e-05 0)
(694.73 5.154e-05 0)
(694.73 7.8571e-05 0)
(694.73 0.00011924 0)
(694.73 0.000180098 0)
(694.73 0.000270706 0)
(694.73 0.000404666 0)
(694.729 0.000601758 0)
(694.73 2.89626e-14 0)
(694.73 6.41499e-14 0)
(694.73 7.96441e-14 0)
(694.73 1.04337e-13 0)
(694.73 1.69595e-13 0)
(694.73 3.38121e-13 0)
(694.73 6.28157e-13 0)
(694.73 1.10824e-12 0)
(694.73 1.8825e-12 0)
(694.73 3.16005e-12 0)
(694.73 5.30222e-12 0)
(694.73 8.78942e-12 0)
(694.73 1.45289e-11 0)
(694.73 2.40198e-11 0)
(694.73 3.9625e-11 0)
(694.73 6.51305e-11 0)
(694.73 1.06894e-10 0)
(694.73 1.75228e-10 0)
(694.73 2.8667e-10 0)
(694.73 4.67961e-10 0)
(694.73 7.62408e-10 0)
(694.73 1.23959e-09 0)
(694.73 2.01125e-09 0)
(694.73 3.25631e-09 0)
(694.73 5.26081e-09 0)
(694.73 8.4804e-09 0)
(694.73 1.36394e-08 0)
(694.73 2.18857e-08 0)
(694.73 3.50337e-08 0)
(694.73 5.59417e-08 0)
(694.73 8.91001e-08 0)
(694.73 1.41538e-07 0)
(694.73 2.24225e-07 0)
(694.73 3.54216e-07 0)
(694.73 5.5794e-07 0)
(694.73 8.76181e-07 0)
(694.73 1.37165e-06 0)
(694.73 2.14035e-06 0)
(694.73 3.32865e-06 0)
(694.73 5.15865e-06 0)
(694.73 7.96584e-06 0)
(694.73 1.22545e-05 0)
(694.73 1.87786e-05 0)
(694.73 2.86589e-05 0)
(694.73 4.35513e-05 0)
(694.73 6.58919e-05 0)
(694.73 9.92305e-05 0)
(694.73 0.000148736 0)
(694.73 0.000221746 0)
(694.73 0.000328919 0)
(694.73 -2.42085e-14 0)
(694.73 -9.41501e-15 0)
(694.73 5.76496e-14 0)
(694.73 1.12321e-13 0)
(694.73 1.54895e-13 0)
(694.73 1.94261e-13 0)
(694.73 3.35941e-13 0)
(694.73 6.32068e-13 0)
(694.73 1.10194e-12 0)
(694.73 1.90867e-12 0)
(694.73 3.23798e-12 0)
(694.73 5.46022e-12 0)
(694.73 9.05872e-12 0)
(694.73 1.48948e-11 0)
(694.73 2.44245e-11 0)
(694.73 4.00139e-11 0)
(694.73 6.55217e-11 0)
(694.73 1.07034e-10 0)
(694.73 1.7439e-10 0)
(694.73 2.83603e-10 0)
(694.73 4.60334e-10 0)
(694.73 7.45606e-10 0)
(694.73 1.20507e-09 0)
(694.73 1.94349e-09 0)
(694.73 3.12773e-09 0)
(694.73 5.02249e-09 0)
(694.73 8.047e-09 0)
(694.73 1.2863e-08 0)
(694.73 2.05124e-08 0)
(694.73 3.26305e-08 0)
(694.73 5.17768e-08 0)
(694.73 8.19426e-08 0)
(694.73 1.29335e-07 0)
(694.73 2.03568e-07 0)
(694.73 3.19489e-07 0)
(694.73 4.99929e-07 0)
(694.73 7.79875e-07 0)
(694.73 1.21271e-06 0)
(694.73 1.87956e-06 0)
(694.73 2.90314e-06 0)
(694.73 4.46827e-06 0)
(694.73 6.85193e-06 0)
(694.73 1.04671e-05 0)
(694.73 1.5926e-05 0)
(694.73 2.41311e-05 0)
(694.73 3.64067e-05 0)
(694.73 5.46784e-05 0)
(694.73 8.17444e-05 0)
(694.73 0.000121571 0)
(694.73 0.000179908 0)
(694.73 -3.95112e-14 0)
(694.73 -5.37138e-14 0)
(694.73 2.26113e-15 0)
(694.73 3.97776e-14 0)
(694.73 5.10856e-14 0)
(694.73 1.01253e-13 0)
(694.73 1.87125e-13 0)
(694.73 3.63403e-13 0)
(694.73 6.69492e-13 0)
(694.73 1.16892e-12 0)
(694.73 1.99365e-12 0)
(694.73 3.30547e-12 0)
(694.73 5.50795e-12 0)
(694.73 9.10909e-12 0)
(694.73 1.49489e-11 0)
(694.73 2.45149e-11 0)
(694.73 4.0015e-11 0)
(694.73 6.50312e-11 0)
(694.73 1.05477e-10 0)
(694.73 1.70862e-10 0)
(694.73 2.76304e-10 0)
(694.73 4.45893e-10 0)
(694.73 7.17969e-10 0)
(694.73 1.15371e-09 0)
(694.73 1.85007e-09 0)
(694.73 2.96015e-09 0)
(694.73 4.72576e-09 0)
(694.73 7.52715e-09 0)
(694.73 1.19609e-08 0)
(694.73 1.896e-08 0)
(694.73 2.99793e-08 0)
(694.73 4.72804e-08 0)
(694.73 7.43681e-08 0)
(694.73 1.16653e-07 0)
(694.73 1.82463e-07 0)
(694.73 2.84562e-07 0)
(694.73 4.42452e-07 0)
(694.73 6.85793e-07 0)
(694.73 1.05953e-06 0)
(694.73 1.63145e-06 0)
(694.73 2.50336e-06 0)
(694.73 3.82742e-06 0)
(694.73 5.82992e-06 0)
(694.73 8.84559e-06 0)
(694.73 1.33665e-05 0)
(694.73 2.01134e-05 0)
(694.73 3.01321e-05 0)
(694.73 4.49395e-05 0)
(694.73 6.6682e-05 0)
(694.73 9.84674e-05 0)
(694.73 3.34387e-14 0)
(694.73 5.30434e-15 0)
(694.73 -1.18292e-14 0)
(694.73 6.76881e-15 0)
(694.73 1.02007e-14 0)
(694.73 5.74638e-14 0)
(694.73 1.78445e-13 0)
(694.73 3.30279e-13 0)
(694.73 5.20863e-13 0)
(694.73 7.87201e-13 0)
(694.73 1.26155e-12 0)
(694.73 2.06923e-12 0)
(694.73 3.41538e-12 0)
(694.73 5.59299e-12 0)
(694.73 9.11307e-12 0)
(694.73 1.48519e-11 0)
(694.73 2.41256e-11 0)
(694.73 3.91586e-11 0)
(694.73 6.3431e-11 0)
(694.73 1.02434e-10 0)
(694.73 1.65021e-10 0)
(694.73 2.65295e-10 0)
(694.73 4.25664e-10 0)
(694.73 6.81675e-10 0)
(694.73 1.08942e-09 0)
(694.73 1.73727e-09 0)
(694.73 2.7642e-09 0)
(694.73 4.3881e-09 0)
(694.73 6.94965e-09 0)
(694.73 1.09799e-08 0)
(694.73 1.73042e-08 0)
(694.73 2.72015e-08 0)
(694.73 4.26473e-08 0)
(694.73 6.66821e-08 0)
(694.73 1.03971e-07 0)
(694.73 1.61645e-07 0)
(694.73 2.50563e-07 0)
(694.73 3.87198e-07 0)
(694.73 5.96439e-07 0)
(694.73 9.15725e-07 0)
(694.73 1.40114e-06 0)
(694.73 2.13631e-06 0)
(694.73 3.24527e-06 0)
(694.73 4.91112e-06 0)
(694.73 7.40244e-06 0)
(694.73 1.11118e-05 0)
(694.73 1.66079e-05 0)
(694.73 2.4714e-05 0)
(694.73 3.65933e-05 0)
(694.73 5.39278e-05 0)
(694.73 -2.23822e-14 0)
(694.73 -2.0242e-14 0)
(694.73 -1.13214e-14 0)
(694.73 1.84501e-14 0)
(694.73 4.63451e-14 0)
(694.73 5.7655e-14 0)
(694.73 1.15781e-13 0)
(694.73 1.64896e-13 0)
(694.73 2.23642e-13 0)
(694.73 3.82758e-13 0)
(694.73 7.00423e-13 0)
(694.73 1.24921e-12 0)
(694.73 2.03336e-12 0)
(694.73 3.29776e-12 0)
(694.73 5.43571e-12 0)
(694.73 8.87087e-12 0)
(694.73 1.44107e-11 0)
(694.73 2.33956e-11 0)
(694.73 3.78786e-11 0)
(694.73 6.1056e-11 0)
(694.73 9.80552e-11 0)
(694.73 1.57085e-10 0)
(694.73 2.51276e-10 0)
(694.73 4.0114e-10 0)
(694.73 6.38991e-10 0)
(694.73 1.01572e-09 0)
(694.73 1.61103e-09 0)
(694.73 2.54939e-09 0)
(694.73 4.02491e-09 0)
(694.73 6.33919e-09 0)
(694.73 9.9597e-09 0)
(694.73 1.56083e-08 0)
(694.73 2.43971e-08 0)
(694.73 3.80323e-08 0)
(694.73 5.91249e-08 0)
(694.73 9.16537e-08 0)
(694.73 1.41663e-07 0)
(694.73 2.18295e-07 0)
(694.73 3.35331e-07 0)
(694.73 5.13447e-07 0)
(694.73 7.83541e-07 0)
(694.73 1.19158e-06 0)
(694.73 1.80559e-06 0)
(694.73 2.72578e-06 0)
(694.73 4.09886e-06 0)
(694.73 6.13888e-06 0)
(694.73 9.15531e-06 0)
(694.73 1.35956e-05 0)
(694.73 2.00909e-05 0)
(694.73 2.95527e-05 0)
(694.73 1.45883e-14 0)
(694.73 1.71046e-14 0)
(694.73 9.92913e-15 0)
(694.73 2.08584e-14 0)
(694.73 7.5845e-14 0)
(694.73 1.59803e-13 0)
(694.73 2.06375e-13 0)
(694.73 2.08409e-13 0)
(694.73 2.56624e-13 0)
(694.73 3.83743e-13 0)
(694.73 5.55637e-13 0)
(694.73 8.21082e-13 0)
(694.73 1.29073e-12 0)
(694.73 2.10275e-12 0)
(694.73 3.39554e-12 0)
(694.73 5.44285e-12 0)
(694.73 8.75096e-12 0)
(694.73 1.40758e-11 0)
(694.73 2.25942e-11 0)
(694.73 3.61933e-11 0)
(694.73 5.7924e-11 0)
(694.73 9.25908e-11 0)
(694.73 1.47703e-10 0)
(694.73 2.35103e-10 0)
(694.73 3.73445e-10 0)
(694.73 5.91888e-10 0)
(694.73 9.3599e-10 0)
(694.73 1.47677e-09 0)
(694.73 2.32463e-09 0)
(694.73 3.65055e-09 0)
(694.73 5.71869e-09 0)
(694.73 8.93604e-09 0)
(694.73 1.39278e-08 0)
(694.73 2.16505e-08 0)
(694.73 3.3564e-08 0)
(694.73 5.18873e-08 0)
(694.73 7.99825e-08 0)
(694.73 1.22923e-07 0)
(694.73 1.88336e-07 0)
(694.73 2.87641e-07 0)
(694.73 4.37864e-07 0)
(694.73 6.64276e-07 0)
(694.73 1.00421e-06 0)
(694.73 1.51254e-06 0)
(694.73 2.26947e-06 0)
(694.73 3.39178e-06 0)
(694.73 5.0481e-06 0)
(694.73 7.4818e-06 0)
(694.73 1.10358e-05 0)
(694.73 1.62048e-05 0)
(694.73 2.6553e-15 0)
(694.73 7.10133e-15 0)
(694.73 -2.61181e-14 0)
(694.73 -5.43906e-14 0)
(694.73 -5.85691e-14 0)
(694.73 -8.55489e-14 0)
(694.73 -1.16995e-13 0)
(694.73 -1.08015e-13 0)
(694.73 -6.61484e-14 0)
(694.73 9.234e-15 0)
(694.73 1.01116e-13 0)
(694.73 2.69567e-13 0)
(694.73 6.04431e-13 0)
(694.73 1.14496e-12 0)
(694.73 1.9469e-12 0)
(694.73 3.19072e-12 0)
(694.73 5.15416e-12 0)
(694.73 8.28201e-12 0)
(694.73 1.33242e-11 0)
(694.73 2.1349e-11 0)
(694.73 3.41107e-11 0)
(694.73 5.4409e-11 0)
(694.73 8.6582e-11 0)
(694.73 1.37426e-10 0)
(694.73 2.17605e-10 0)
(694.73 3.4389e-10 0)
(694.73 5.42333e-10 0)
(694.73 8.53255e-10 0)