/*--------------------------------*- C++ -*----------------------------------*\
| =========                 |                                                 |
| \\      /  F ield         | OpenFOAM: The Open Source CFD Toolbox           |
|  \\    /   O peration     | Version:  2412                                  |
|   \\  /    A nd           | Website:  www.openfoam.com                      |
|    \\/     M anipulation  |                                                 |
\*---------------------------------------------------------------------------*/
FoamFile
{
    version     2.0;
    format      ascii;
    arch        "LSB;label=32;scalar=64";
    class       volScalarField;
    location    "9";
    object      p;
}
// * * * * * * * * * * * * * * * * * * * * * * * * * * * * * * * * * * * * * //

dimensions      [0 2 -2 0 0 0 0];

internalField   nonuniform List<scalar> 
20000
(
6.40694e+07
-3.74402e+07
-1.42882e+07
-8.03124e+06
-4.83791e+06
-3.2656e+06
-2.40637e+06
-1.904e+06
-1.58854e+06
-1.37477e+06
-1.2192e+06
-1.09844e+06
-999428
-914626
-839564
-771535
-708880
-650569
-595955
-544628
-496320
-450844
-408063
-367860
-330131
-294775
-261688
-230766
-201901
-174986
-149915
-126581
-104881
-84712.3
-65973.1
-48562.2
-32380
-17330.2
-3321.38
9729.48
21894.9
33234.6
43794.9
53609
62699
71079.6
78762.6
85761.8
92098.1
97803.2
102922
107513
111646
115395
118837
122041
125067
127964
130765
133492
136159
138769
141312
143761
146075
148213
150147
151865
153376
154705
155884
156938
157880
158712
159435
160050
160558
160958
161250
161434
161517
161507
161415
161253
161038
160798
160575
160434
160443
160652
161066
161656
162379
163187
164052
164927
165773
166598
167375
168028
-4.87652e+06
-4.61421e+06
-2.81179e+06
-2.05223e+06
-1.58754e+06
-1.42298e+06
-1.33539e+06
-1.26293e+06
-1.19741e+06
-1.13306e+06
-1.06893e+06
-1.00513e+06
-942014
-879993
-819423
-760597
-703745
-649042
-596621
-546572
-498954
-453791
-411086
-370813
-332928
-297368
-264056
-232905
-203817
-176692
-151426
-127913
-106049
-85728.4
-66848.6
-49308.3
-33009
-17856.5
-3762.54
9352.81
21559.4
32915.8
43468.5
53253.5
62298.1
70624.6
78254.8
85214.1
91535
97259.5
102439
107132
111404
115319
118940
122325
125522
128570
131492
134301
137003
139594
142064
144397
146572
148571
150384
152012
153465
154761
155919
156954
157873
158679
159372
159951
160420
160780
161029
161169
161204
161145
161007
160811
160590
160385
160251
160241
160401
160749
161277
161954
162733
163580
164462
165314
166141
166936
167637
168227
22628.6
-592042
-979938
-767043
-723248
-807245
-902304
-957880
-982811
-983428
-965813
-935044
-895163
-849287
-799774
-748384
-696418
-644831
-594313
-545353
-498288
-453338
-410636
-370247
-332186
-296428
-262920
-231588
-202345
-175093
-149727
-126140
-104224
-83871.8
-64976.3
-47435.4
-31151.1
-16031
-1990.08
11048.4
23151.9
34378
44775.4
54385.3
63243.8
71385.3
78846
85666.9
91894.8
97582.7
102787
107565
111973
116062
119879
123465
126848
130051
133085
135954
138656
141188
143543
145715
147704
149512
151147
152622
153951
155144
156213
157162
157995
158714
159318
159807
160182
160445
160602
160659
160627
160524
160376
160214
160077
160012
160060
160255
160619
161147
161825
162602
163448
164331
165182
165998
166781
167471
168055
168552
348627
-698959
-984651
-901149
-861666
-913898
-958842
-983703
-991910
-985531
-966723
-937334
-899375
-855074
-806496
-755396
-703193
-650992
-599625
-549697
-501634
-455717
-412118
-370924
-332158
-295798
-261786
-230042
-200468
-172956
-147395
-123667
-101656
-81248.4
-62333.2
-44804
-28561
-13510.8
431.942
13344.4
25295.7
36346.7
46552.1
55961.6
64622.5
72582
79889.5
86597.1
92759.5
98432.4
103670
108522
113035
117247
121193
124896
128375
131638
134691
137534
140168
142596
144818
146841
148675
150329
151818
153155
154353
155422
156367
157193
157901
158495
158978
159352
159624
159800
159892
159916
159893
159848
159812
159817
159895
160074
160378
160815
161390
162085
162863
163706
164560
165375
166158
166889
167517
168044
168499
168896
502247
-935031
-1.20314e+06
-1.18198e+06
-1.18055e+06
-1.16885e+06
-1.15795e+06
-1.14498e+06
-1.12441e+06
-1.09328e+06
-1.05324e+06
-1.00676e+06
-955214
-899949
-842412
-783904
-725527
-668158
-612466
-558933
-507880
-459505
-413905
-371101
-331060
-293704
-258931
-226620
-196637
-168847
-143111
-119294
-97262.6
-76889.9
-58055
-40644.2
-24551.8
-9679.85
4061.54
16754.4
28473.4
39286.5
49256.9
58443.5
66903.6
74693.2
81868.1
88483.3
94591.7
100243
105484
110354
114888
119117
123063
126741
130165
133343
136281
138986
141467
143732
145790
147655
149338
150851
152207
153416
154488
155431
156249
156951
157541
158028
158418
158723
158954
159127
159259
159371
159487
159631
159825
160092
160445
160894
161443
162084
162799
163575
164376
165157
165906
166614
167229
167743
168185
168567
168878
169111
580626
-1.57132e+06
-1.68438e+06
-1.65377e+06
-1.6385e+06
-1.58198e+06
-1.51152e+06
-1.43608e+06
-1.35924e+06
-1.28459e+06
-1.21143e+06
-1.13702e+06
-1.06127e+06
-985281
-910165
-836915
-766307
-698891
-635021
-574889
-518558
-466000
-417118
-371771
-329785
-290969
-255124
-222050
-191550
-163435
-137525
-113650
-91651
-71380.4
-52700.5
-35484.7
-19617
-4990.84
8491.2
20918.6
32373.5
42931.3
52662
61631
69900.2
77528
84569.8
91077
97096.8
102672
107840
112634
117082
121207
125028
128559
131817
134812
137560
140071
142361
144441
146327
148029
149562
150936
152162
153251
154211
155052
155783
156415
156956
157421
157822
158173
158491
158793
159096
159419
159777
160185
160649
161176
161765
162406
163090
163806
164530
165236
165913
166546
167097
167567
167968
168312
168588
168811
169000
169173
650612
-3.78545e+06
-3.35312e+06
-3.26736e+06
-3.00346e+06
-2.66176e+06
-2.32997e+06
-2.05557e+06
-1.83981e+06
-1.66351e+06
-1.50869e+06
-1.36849e+06
-1.24053e+06
-1.12315e+06
-1.01528e+06
-916152
-825154
-741734
-665362
-595519
-531698
-473409
-420187
-371593
-327216
-286678
-249629
-215750
-184751
-156370
-130369
-106536
-84675
-64612.4
-46189.7
-29264.1
-13707.1
597.903
13756.9
25866.8
37015.7
47283.9
56744.6
65465.1
73506.8
80926.2
87775.2
94101.2
99946.4
105348
110341
114952
119209
123133
126746
130065
133110
135896
138441
140761
142870
144784
146516
148080
149489
150754
151887
152899
153804
154611
155334
155987
156581
157131
157651
158155
158655
159164
159692
160246
160829
161443
162083
162742
163411
164080
164729
165348
165932
166465
166935
167344
167698
168002
168264
168495
168706
168904
169087
169263
5.23662e+06
-1.18188e+07
-7.26571e+06
-5.7805e+06
-4.54373e+06
-3.72423e+06
-3.1865e+06
-2.80231e+06
-2.47533e+06
-2.18233e+06
-1.9206e+06
-1.68897e+06
-1.4853e+06
-1.30699e+06
-1.15115e+06
-1.01485e+06
-895403
-790437
-697885
-615991
-543269
-478463
-420526
-368574
-321857
-279741
-241682
-207215
-175939
-147508
-121621
-98015.5
-76462.6
-56760
-38729.4
-22213.4
-7072.47
6818.49
19572.3
31290.9
42065.7
51979
61104.4
69508.5
77251.2
84386.4
90963.3
97026.3
102615
107766
112510
116877
120893
124584
127971
131076
133918
136517
138890
141055
143027
144822
146454
147938
149287
150514
151631
152651
153589
154455
155262
156025
156753
157455
158144
158826
159505
160185
160867
161548
162224
162889
163536
164157
164744
165293
165798
166256
166666
167030
167358
167654
167924
168175
168410
168628
168837
169038
169233
169425
1.14833e+08
-8.99369e+07
-3.8802e+07
-2.46861e+07
-1.55835e+07
-1.05389e+07
-7.49056e+06
-5.52578e+06
-4.21235e+06
-3.30146e+06
-2.64877e+06
-2.16669e+06
-1.8002e+06
-1.51473e+06
-1.28757e+06
-1.10327e+06
-951243
-823994
-716148
-623761
-543872
-474220
-413068
-359057
-311105
-268336
-230039
-195627
-164610
-136577
-111178
-88116
-67136
-48017.2
-30568.1
-14622.3
-33.9763
13326.1
25573.4
36811
47130.4
56613.4
65332.8
73354.3
80736.3
87531.4
93787.1
99546.3
104848
109726
114214
118341
122133
125615
128813
131746
134435
136900
139160
141231
143130
144874
146477
147954
149317
150580
151753
152850
153880
154854
155781
156671
157527
158353
159155
159932
160682
161405
162099
162759
163383
163968
164511
165015
165480
165902
166291
166653
166987
167298
167590
167863
168119
168364
168598
168825
169044
169256
169464
169669
4.97029e+07
-6.98153e+07
-3.96916e+07
-2.56245e+07
-1.61518e+07
-1.08155e+07
-7.6727e+06
-5.65368e+06
-4.30392e+06
-3.36451e+06
-2.68925e+06
-2.19035e+06
-1.81076e+06
-1.51509e+06
-1.28041e+06
-1.09071e+06
-934928
-805226
-695933
-602881
-522923
-453612
-393081
-339885
-292871
-251111
-213855
-180490
-150506
-123481
-99056.8
-76929.6
-56840
-38564.4
-21909
-6706.42
7189.28
19905.7
31555.6
42238.4
52042.4
61046.4
69321
76929.6
83929.6
90372.3
96303.8
101766
106795
111426
115692
119619
123233
126561
129624
132444
135041
137434
139640
141677
143561
145307
146929
148441
149854
151178
152422
153595
154703
155750
156743
157687
158581
159427
160228
160980
161686
162347
162962
163536
164071
164567
165029
165462
165867
166246
166603
166939
167257
167558
167844
168116
168378
168629
168872
169107
169335
169558
169776
169992
-1.43559e+07
-1.99214e+07
-1.37302e+07
-9.66873e+06
-7.50621e+06
-6.01077e+06
-4.87015e+06
-3.94317e+06
-3.21664e+06
-2.65072e+06
-2.20687e+06
-1.85657e+06
-1.57378e+06
-1.34125e+06
-1.14868e+06
-987752
-852146
-736993
-638510
-553757
-480392
-416426
-360293
-310782
-266902
-227841
-192933
-161625
-133462
-108057
-85086.4
-64271.8
-45373.7
-28183.4
-12517.3
1784.19
14861.2
26835
37811.2
47882.4
57130.7
65628.9
73442.6
80631.5
87250.2
93347.8
98968.5
104151
108933
113345
117419
121181
124654
127862
130827
133568
136104
138452
140628
142648
144526
146273
147905
149431
150860
152198
153456
154635
155739
156774
157742
158646
159490
160279
161014
161700
162341
162939
163499
164023
164515
164978
165414
165827
166217
166586
166937
167270
167588
167891
168181
168459
168726
168984
169234
169476
169712
169942
170168
170391
-4.41337e+06
-7.31099e+06
-6.81186e+06
-5.65195e+06
-4.60372e+06
-3.75153e+06
-3.15527e+06
-2.6953e+06
-2.31669e+06
-1.99822e+06
-1.72708e+06
-1.49587e+06
-1.29755e+06
-1.12583e+06
-977760
-850079
-739714
-643997
-560685
-487957
-424311
-368280
-318654
-274520
-235126
-199845
-168150
-139594
-113804
-90459.9
-69290.2
-50060.8
-32568.7
-16634.4
-2095.31
11193
23359.4
34515.8
44758.6
54171.8
62829.7
70797.7
78134.9
84895.2
91128
96878.5
102187
107091
111624
115816
119696
123289
126616
129698
132554
135203
137660
139939
142056
144022
145850
147550
149134
150611
151989
153274
154473
155592
156636
157610
158520
159371
160164
160904
161597
162245
162854
163427
163967
164478
164960
165415
165846
166254
166642
167010
167361
167696
168016
168322
168615
168897
169169
169432
169686
169932
170173
170407
170636
170863
-2.80347e+06
-4.78967e+06
-4.24503e+06
-3.51001e+06
-3.0461e+06
-2.67617e+06
-2.33533e+06
-2.03346e+06
-1.77462e+06
-1.55243e+06
-1.36015e+06
-1.19289e+06
-1.04799e+06
-921179
-809675
-711386
-624575
-547765
-479691
-419273
-365555
-317634
-274704
-236156
-201467
-170181
-141903
-116290
-93043.5
-71908.5
-52664.3
-35119.7
-19109
-4484.08
8892.26
21142.6
32379.5
42702.6
52197.6
60939.5
68994.7
76422.6
83275.7
89601.3
95442.5
100839
105827
110439
114707
118661
122325
125723
128874
131798
134511
137028
139365
141534
143548
145420
147160
148780
150288
151692
153001
154223
155362
156424
157416
158343
159212
160027
160793
161513
162191
162830
163431
163997
164531
165035
165512
165964
166392
166797
167183
167550
167900
168234
168554
168860
169154
169437
169710
169973
170229
170476
170717
170952
171182
171409
-1.60838e+06
-2.77459e+06
-2.49119e+06
-2.15787e+06
-1.9888e+06
-1.83498e+06
-1.65724e+06
-1.48254e+06
-1.32492e+06
-1.18328e+06
-1.05503e+06
-939376
-835766
-742993
-659711
-584772
-517260
-456409
-401538
-352015
-307287
-266922
-230435
-197395
-167424
-140193
-115413
-92826.4
-72208.6
-53361.2
-36111.9
-20310.4
-5823.6
7471.18
19685
30914.9
41247.5
50763
59534.1
67626
75097.1
81999.3
88379.3
94278.6
99735
104783
109456
113782
117790
121506
124952
128152
131123
133883
136448
138831
141046
143104
145017
146795
148449
149990
151427
152767
154018
155188
156284
157311
158275
159179
160029
160827
161578
162284
162949
163575
164165
164722
165247
165743
166213
166657
167078
167478
167857
168219
168564
168893
169208
169511
169801
170081
170350
170611
170863
171107
171345
171577
171803
172027
-1.02966e+06
-1.82028e+06
-1.66427e+06
-1.47097e+06
-1.38419e+06
-1.30468e+06
-1.20234e+06
-1.09506e+06
-994612
-901449
-814214
-733003
-658292
-590005
-527610
-470505
-418203
-370327
-326554
-286572
-250077
-216772
-186367
-158585
-133173
-109901
-88565
-68980.6
-50982.6
-34423.6
-19173
-5115.87
7849.9
19813.4
30851.5
41036.9
50437.3
59117.9
67139.7
74558.8
81425.4
87784.4
93676.1
99136.4
104198
108890
113241
117276
121021
124497
127726
130727
133518
136116
138535
140789
142888
144844
146667
148366
149950
151428
152806
154093
155296
156422
157477
158465
159393
160265
161085
161857
162583
163267
163911
164518
165091
165631
166141
166622
167078
167509
167917
168305
168673
169023
169358
169677
169982
170275
170557
170828
171090
171342
171587
171824
172054
172278
172496
172713
-664918
-1.2047e+06
-1.10845e+06
-992173
-951845
-915341
-858769
-794613
-732320
-672748
-614990
-559359
-506698
-457443
-411535
-368724
-328794
-291613
-257089
-225123
-195593
-168355
-143252
-120121
-98799.2
-79133.7
-60981.9
-44213.2
-28707.7
-14357
-1064.3
11255.5
22676.4
33262.9
43073
52160.9
60578.7
68377.4
75605.9
82310.6
88533.8
94313.9
99684.9
104677
109317
113630
117639
121366
124830
128052
131050
133842
136443
138868
141131
143243
145213
147053
148769
150371
151867
153262
154565
155782
156920
157985
158983
159920
160799
161626
162405
163138
163829
164480
165094
165672
166218
166733
167219
167679
168112
168523
168912
169281
169631
169964
170282
170585
170875
171153
171421
171678
171926
172166
172397
172622
172840
173052
173258
173463
-437478
-820776
-761023
-689195
-670636
-652730
-618260
-576960
-536293
-496886
-457798
-419164
-381756
-346115
-312346
-280337
-249984
-221260
-194186
-168781
-145037
-122912
-102338
-83229.2
-65488.9
-49018.1
-33720.3
-19503.8
-6282.92
6021.56
17481.2
28158.7
38108.3
47376.3
56003.5
64028.1
71487.7
78420
84863.2
90854.6
96429.6
101621
106457
110964
115164
119078
122723
126119
129281
132227
134973
137533
139922
142153
144238
146187
148010
149713
151306
152794
154184
155481
156693
157826
158885
159875
160804
161674
162493
163262
163987
164670
165315
165922
166495
167036
167546
168028
168482
168910
169315
169698
170060
170403
170729
171038
171333
171614
171883
172140
172388
172626
172855
173077
173291
173499
173700
173896
174086
174275
-283371
-558706
-520217
-475026
-467909
-459721
-438093
-410858
-383953
-357754
-331273
-304462
-277949
-252264
-227565
-203794
-180886
-158854
-137769
-117713
-98745
-80888.6
-64137.1
-48458.8
-33804.3
-20114.5
-7326.39
4623.01
15794.6
26245.8
36029.6
45192.5
53774
61806.6
69318.3
76334.1
82879
88979.7
94664.2
99961.7
104901
109510
113814
117833
121588
125094
128367
131421
134270
136928
139408
141723
143886
145908
147801
149573
151232
152785
154239
155599
156870
158057
159165
160201
161168
162072
162919
163712
164458
165159
165819
166442
167029
167583
168106
168600
169065
169505
169919
170309
170678
171025
171354
171665
171959
172239
172505
172758
173000
173231
173453
173667
173873
174071
174263
174449
174629
174804
174974
175143
-176484
-376485
-351946
-324154
-323439
-320154
-305620
-286521
-267797
-249706
-231256
-212248
-193156
-174439
-156246
-138524
-121202
-104290
-87872.4
-72053.9
-56925.6
-42548.3
-28951.7
-16138.5
-4090.81
7223.72
17845.2
27816.9
37182.9
45985.6
54264.7
62055.3
69386.7
76281.9
82759
88833.4
94520.3
99836.5
104801
109437
113766
117812
121596
125137
128450
131551
134450
137160
139691
142055
144263
146326
148254
150059
151750
153334
154820
156213
157517
158739
159880
160947
161942
162870
163736
164544
165300
166007
166670
167293
167879
168431
168953
169445
169909
170348
170761
171151
171518
171863
172189
172495
172784
173056
173313
173557
173788
174008
174218
174418
174610
174794
174971
175142
175307
175467
175622
175772
175917
176064
-99633.5
-245002
-229650
-213416
-216246
-215389
-204934
-190784
-177162
-164263
-151114
-137404
-123470
-109695
-96203.6
-82930.6
-69789.8
-56776.6
-43967.2
-31472.6
-19398
-7823.43
3200.59
13650.1
23523.1
32834.4
41609.1
49877.7
57673.1
65028.1
71973.6
78537.2
84741.2
90602.1
96131.6
101338
106229
110815
115106
119119
122870
126380
129665
132743
135627
138330
140861
143229
145444
147514
149448
151255
152946
154529
156013
157404
158710
159935
161084
162160
163165
164104
164978
165792
166550
167255
167912
168525
169098
169635
170140
170615
171063
171485
171884
172260
172615
172948
173262
173556
173833
174092
174335
174564
174779
174982
175173
175355
175527
175691
175848
175999
176143
176282
176416
176546
176672
176794
176911
177030
-43369.9
-148515
-139498
-131264
-136129
-136409
-128273
-117076
-106541
-96858.5
-87103.8
-76897
-66462.2
-56110
-45938.3
-35864.7
-25784.5
-15672.8
-5591.73
4352.02
14049.6
23412.5
32379.1
40913.7
49002.8
56650.7
63873.6
70694.9
77141.3
83240.1
89017.2
94495.6
99693.4
104624
109294
113707
117868
121778
125444
128876
132086
135090
137903
140539
143010
145327
147499
149533
151437
153216
154878
156432
157884
159244
160519
161716
162839
163893
164881
165807
166672
167478
168228
168923
169568
170165
170718
171231
171709
172155
172572
172964
173333
173680
174007
174315
174605
174877
175132
175370
175593
175800
175994
176174
176342
176500
176647
176786
176917
177041
177159
177272
177380
177483
177583
177679
177772
177862
177949
178038
-1532.53
-76584.8
-71952.9
-69296.3
-75257
-75923.4
-69028.4
-59533.8
-50814.1
-43087.9
-35492.4
-27600
-19541.8
-11562.7
-3730.78
4051.63
11906.5
19878
27918.6
35929.1
43801
51442.1
58785.2
65788.1
72430.9
78712.1
84643.9
90246.2
95543.4
100560
105321
109847
114153
118251
122147
125841
129333
132623
135712
138605
141312
143843
146211
148428
150506
152454
154279
155989
157588
159082
160477
161780
162998
164136
165203
166204
167144
168026
168854
169628
170351
171022
171644
172218
172747
173232
173679
174089
174468
174819
175145
175449
175734
176001
176252
176488
176709
176915
177108
177286
177451
177602
177742
177870
177988
178096
178196
178289
178375
178455
178531
178603
178671
178736
178798
178858
178915
178971
179024
179080
29746
-22674.4
-21089.9
-22341.7
-28835.4
-29466.6
-23133.5
-14512.3
-6742.22
-99.07
6207.39
12635
19130.7
25509.7
31732.6
37912.2
44185.4
50613
57161.5
63738.9
70238.4
76566.2
82651.7
88449.3
93935.9
99107.9
103976
108560
112885
116976
120857
124550
128070
131427
134628
137671
140555
143276
145834
148230
150470
152560
154511
156335
158040
159635
161128
162523
163827
165044
166178
167235
168221
169142
170004
170812
171570
172281
172948
173571
174150
174687
175181
175633
176045
176418
176756
177062
177340
177593
177825
178039
178238
178422
178594
178754
178903
179041
179167
179282
179386
179479
179562
179635
179699
179756
179805
179849
179887
179922
179953
179981
180007
180031
180053
180074
180094
180112
180129
180150
53036.8
17593.3
17124.2
13196.2
6548.47
6219.4
12462.6
20808.4
28259.1
34454.5
40104.2
45684.3
51209.7
56552.6
61703.9
66791.9
71968
77307.8
82789.5
88327.6
93816.4
99160.3
104287
109147
113718
117995
121989
125724
129226
132523
135643
138607
141432
144130
146706
149160
151489
153690
155758
157694
159499
161179
162741
164194
165547
166807
167982
169076
170095
171042
171921
172738
173498
174205
174865
175483
176062
176605
177113
177587
178025
178428
178795
179125
179420
179682
179911
180112
180289
180444
180581
180703
180814
180914
181005
181088
181162
181229
181287
181337
181378
181410
181434
181451
181460
181462
181459
181452
181441
181427
181411
181393
181375
181356
181337
181317
181298
181278
181258
181242
70009.7
47066.1
45319.8
39667.5
33125.3
33266
39763.4
48294.5
55920.8
62168.7
67656.9
72870.1
77884.4
82628.4
87125.8
91523.2
95986
100603
105364
110185
114962
119595
124009
128154
132007
135564
138840
141862
144661
147273
149726
152047
154254
156361
158372
160289
162110
163830
165445
166953
168354
169650
170848
171953
172974
173917
174789
175594
176337
177023
177655
178237
178775
179273
179736
180168
180572
180950
181303
181630
181930
182202
182443
182654
182835
182985
183107
183205
183280
183337
183380
183411
183433
183448
183458
183462
183462
183457
183446
183429
183406
183377
183341
183299
183251
183198
183142
183082
183020
182957
182893
182828
182765
182702
182640
182579
182519
182460
182401
182348
81716.5
67556.2
65208.6
58644
52421.7
53164.5
60208.3
69329.6
77569.1
84301.9
90040.3
95268.4
100121
104589
108736
112735
116770
120946
125258
129628
133945
138104
142024
145652
148963
151955
154649
157076
159277
161292
163158
164906
166558
168129
169626
171051
172402
173676
174868
175975
176996
177932
178787
179565
180273
180916
181499
182028
182507
182940
183331
183685
184006
184300
184570
184820
185054
185271
185473
185657
185822
185966
186086
186181
186249
186291
186309
186304
186280
186241
186190
186131
186066
185997
185925
185852
185777
185700
185620
185537
185449
185358
185261
185160
185055
184947
184836
184724
184610
184497
184384
184273
184164
184056
183951
183849
183748
183650
183552
183461
88681.6
79969.3
77652
70924.3
65222.1
66697
74585
84725.5
94059
101764
108221
113893
118961
123473
127545
131383
135198
139118
143154
147234
151247
155084
158658
161910
164812
167363
169584
171515
173202
174695
176037
177267
178412
179489
180508
181473
182381
183232
184020
184744
185402
185995
186523
186990
187401
187758
188068
188333
188558
188747
188905
189037
189148
189241
189323
189396
189463
189525
189580
189626
189662
189682
189685
189667
189626
189564
189479
189376
189256
189123
188981
188833
188682
188531
188380
188230
188082
187934
187786
187637
187486
187333
187176
187017
186855
186691
186526
186361
186196
186033
185872
185714
185559
185408
185260
185116
184975
184838
184703
184574
90992.7
84502.1
82895.7
76775.4
71827.6
74206.8
83247.4
94785.8
105587
114612
122118
128558
134170
139069
143413
147437
151368
155335
159348
163341
167207
170842
174163
177116
179680
181860
183682
185189
186434
187472
188353
189121
189808
190433
191009
191540
192029
192473
192871
193224
193529
193789
194002
194172
194300
194387
194437
194452
194436
194392
194327
194245
194151
194051
193950
193852
193758
193668
193582
193496
193407
193310
193200
193074
192930
192767
192585
192387
192174
191951
191721
191488
191255
191023
190795
190572
190352
190135
189921
189708
189495
189281
189066
188849
188632
188414
188196
187979
187764
187551
187343
187139
186939
186745
186556
186371
186191
186016
185844
185680
88125.8
80341
80349.1
75885.1
72211.2
76032.1
86970.8
100723
113731
124677
133666
141137
147413
152726
157342
161573
165697
169861
174065
178209
182155
185772
188964
191691
193950
195769
197194
198284
199102
199711
200165
200509
200775
200985
201149
201272
201357
201406
201421
201404
201359
201288
201191
201070
200924
200753
200556
200334
200090
199826
199548
199261
198972
198686
198409
198145
197896
197662
197441
197229
197021
196812
196595
196368
196126
195868
195594
195305
195004
194695
194382
194067
193755
193447
193146
192851
192562
192280
192002
191727
191454
191182
190910
190639
190367
190097
189827
189560
189297
189037
188783
188535
188292
188057
187827
187604
187387
187176
186969
186771
78705
65139.5
67910.9
66493.2
64833.3
70888.8
84846.6
102078
118480
132346
143617
152741
160142
166199
171311
175873
180194
184442
188658
192779
196691
200258
203357
205913
207910
209380
210390
211025
211374
211515
211517
211429
211281
211090
210861
210596
210295
209961
209600
209219
208825
208425
208022
207615
207204
206785
206354
205911
205453
204983
204506
204027
203553
203092
202649
202228
201833
201463
201114
200784
200465
200150
199834
199511
199178
198831
198470
198097
197715
197326
196934
196543
196156
195777
195405
195043
194690
194344
194005
193672
193342
193015
192690
192366
192043
191723
191405
191091
190782
190478
190180
189890
189607
189331
189064
188805
188553
188308
188069
187839
60009.1
34326.6
41549.1
45234.1
46719.5
56172.5
74706.9
97115
118441
136461
150957
162448
171545
178839
184902
190233
195171
199866
204314
208424
212092
215260
217921
220074
221698
222787
223373
223537
223382
223011
222510
221941
221340
220723
220091
219438
218760
218056
217332
216598
215866
215146
214444
213762
213096
212441
211791
211139
210484
209824
209162
208505
207860
207235
206637
206070
205538
205040
204573
204131
203708
203295
202886
202474
202055
201626
201185
200735
200276
199813
199349
198888
198433
197987
197551
197125
196711
196306
195911
195522
195139
194760
194385
194012
193643
193276
192914
192556
192204
191859
191521
191192
190871
190559
190257
189964
189679
189403
189134
188877
26659
-21074.2
-6349.41
6601.31
14325
30208.3
56450.4
86788.2
115103
138659
157253
171667
182850
191691
198966
205273
210975
216206
220945
225098
228576
231334
233381
234782
235639
236043
236038
235653
234952
234035
232998
231910
230816
229734
228667
227608
226548
225485
224419
223360
222318
221306
220330
219395
218495
217625
216775
215935
215101
214270
213444
212627
211829
211056
210318
209620
208963
208349
207773
207230
206710
206207
205712
205219
204721
204216
203703
203182
202656
202127
201598
201074
200558
200051
199556
199074
198603
198144
197696
197256
196824
196398
195977
195561
195149
194741
194338
193941
193551
193169
192795
192430
192075
191730
191395
191071
190757
190452
190156
189873
-32384.1
-121399
-96349.7
-67329.2
-46458.5
-16793.6
24357.7
68656.9
108292
140090
164273
182364
196018
206635
215268
222614
229038
234654
239441
243337
246310
248380
249616
250119
250019
249458
248560
247405
246029
244478
242833
241170
239536
237954
236425
234944
233501
232090
230708
229358
228048
226785
225575
224421
223318
222258
221231
220227
219236
218257
217288
216336
215407
214509
213652
212840
212076
211360
210688
210053
209447
208862
208288
207719
207149
206575
205996
205412
204825
204238
203653
203075
202504
201945
201398
200865
200345
199837
199342
198857
198381
197913
197452
196997
196547
196104
195666
195236
194812
194397
193991
193595
193209
192835
192471
192118
191777
191446
191126
190819
-134652
-299811
-261550
-201022
-152155
-97033.3
-31532.1
34426.7
91270.6
135494
168132
191888
209432
222821
233439
242111
249251
255030
259512
262746
264815
265840
265964
265340
264124
262475
260537
258422
256192
253872
251513
249190
246963
244865
242900
241053
239300
237622
236005
234445
232940
231492
230104
228777
227506
226285
225105
223957
222832
221727
220642
219579
218547
217551
216600
215698
214848
214048
213294
212580
211897
211237
210591
209952
209316
208679
208040
207400
206759
206121
205488
204862
204246
203643
203052
202475
201913
201364
200829
200306
199793
199290
198796
198309
197829
197356
196890
196431
195980
195537
195104
194681
194269
193868
193478
193100
192734
192379
192035
191706
-320122
-650955
-586850
-437891
-316802
-206683
-96583
2354.61
80649
137912
178540
207454
228487
244228
256286
265595
272661
277776
281163
283039
283628
283159
281828
279807
277265
274378
271319
268216
265111
261952
258740
255616
252717
250113
247790
245693
243759
241936
240194
238515
236893
235327
233818
232366
230969
229623
228323
227060
225831
224632
223463
222326
221226
220169
219158
218197
217286
216425
215607
214827
214078
213350
212638
211934
211235
210539
209843
209150
208460
207775
207097
206430
205774
205131
204504
203891
203294
202712
202145
201592
201051
200522
200003
199492
198989
198494
198006
197525
197052
196587
196131
195685
195250
194825
194413
194012
193623
193247
192881
192529
-649060
-1.83848e+06
-1.47495e+06
-935466
-602971
-383360
-207263
-67816.8
36592.1
112933
168399
208585
237702
258856
274249
285341
292998
297840
300396
301162
300501
298774
296221
292968
289137
284964
280764
276786
273039
269206
265025
260913
257199
253998
251277
248906
246771
244796
242937
241174
239491
237880
236334
234847
233413
232027
230683
229378
228108
226874
225677
224517
223399
222325
221297
220316
219380
218486
217629
216803
216001
215217
214446
213684
212926
212173
211424
210680
209942
209212
208493
207785
207092
206415
205754
205111
204486
203878
203288
202715
202155
201609
201074
200549
200032
199522
199019
198522
198032
197549
197075
196609
196153
195708
195275
194853
194444
194046
193657
193280
1.07948e+06
-5.0884e+06
-3.39949e+06
-2.36091e+06
-1.50516e+06
-891117
-477743
-210001
-36753.3
77905.6
155529
208737
245306
270328
287312
298847
306621
311428
313763
314073
312707
310240
307049
303293
298722
293225
287713
282794
278348
274138
269307
264353
260284
256855
253811
251158
248821
246711
244768
242955
241247
239626
238079
236592
235157
233765
232412
231096
229816
228576
227376
226219
225107
224041
223020
222042
221104
220201
219328
218478
217646
216826
216015
215210
214409
213612
212819
212032
211253
210482
209723
208977
208247
207534
206841
206168
205517
204887
204279
203690
203120
202565
202022
201490
200966
200449
199937
199430
198927
198430
197940
197457
196983
196519
196066
195624
195193
194771
194358
193956
1.07868e+07
-9.17959e+06
-4.36421e+06
-2.81666e+06
-1.68827e+06
-957119
-488009
-191277
-3506.58
116300
193370
243100
275031
295239
307697
315093
319248
321296
322048
321808
320593
318096
314341
309719
304773
299579
293755
287907
282727
278042
273417
268460
263786
259558
255981
253003
250478
248272
246288
244460
242749
241128
239577
238085
236640
235235
233867
232534
231240
229985
228774
227610
226494
225427
224406
223428
222489
221583
220705
219846
219003
218171
217344
216521
215701
214882
214065
213252
212443
211640
210847
210064
209295
208544
207814
207107
206426
205772
205145
204544
203965
203406
202862
202329
201805
201286
200770
200257
199746
199238
198734
198236
197744
197261
196787
196321
195865
195418
194981
194557
9.04725e+06
-5.67971e+06
-2.42484e+06
-1.51005e+06
-860853
-441328
-161091
24772.5
146508
224880
274257
304414
321892
331105
335105
335940
334954
332966
330613
328062
325165
321614
317133
312227
307282
302311
296776
290872
285255
280315
275511
270647
266064
261975
258437
255392
252741
250391
248267
246316
244501
242796
241179
239635
238150
236714
235322
233969
232656
231384
230155
228972
227836
226747
225705
224706
223746
222820