/*--------------------------------*- C++ -*----------------------------------*\
| =========                 |                                                 |
| \\      /  F ield         | OpenFOAM: The Open Source CFD Toolbox           |
|  \\    /   O peration     | Version:  2412                                  |
|   \\  /    A nd           | Website:  www.openfoam.com                      |
|    \\/     M anipulation  |                                                 |
\*---------------------------------------------------------------------------*/
FoamFile
{
    version     2.0;
    format      ascii;
    arch        "LSB;label=32;scalar=64";
    class       surfaceScalarField;
    location    "9";
    object      phi;
}
// * * * * * * * * * * * * * * * * * * * * * * * * * * * * * * * * * * * * * //

dimensions      [0 3 -1 0 0 0 0];

oriented        oriented;

internalField   nonuniform List<scalar> 
39700
(
-92.8407
-26.3953
-70.2236
-22.6171
-51.3411
-18.8824
-39.4297
-11.9114
-31.7956
-7.63408
-26.7543
-5.04122
-23.3115
-3.44281
-20.9004
-2.41108
-19.1675
-1.73278
-17.8845
-1.28294
-16.9009
-0.983553
-16.1164
-0.784377
-15.4641
-0.652231
-14.8991
-0.564876
-14.3916
-0.507294
-13.9222
-0.469306
-13.478
-0.444016
-13.0511
-0.426766
-12.6365
-0.414431
-12.2313
-0.404936
-11.8342
-0.396929
-11.4444
-0.389551
-11.0619
-0.382274
-10.6868
-0.374801
-10.3196
-0.36698
-9.96053
-0.358759
-9.61008
-0.350143
-9.26858
-0.341178
-8.93631
-0.331924
-8.6135
-0.322452
-8.30028
-0.312835
-7.99674
-0.30314
-7.70289
-0.29343
-7.41868
-0.28376
-7.14404
-0.274177
-6.87883
-0.26472
-6.62289
-0.255421
-6.37604
-0.246305
-6.13809
-0.237391
-5.9088
-0.228693
-5.68795
-0.220221
-5.47532
-0.211983
-5.27066
-0.203983
-5.07372
-0.196226
-4.88426
-0.188713
-4.70203
-0.181448
-4.52679
-0.174432
-4.35827
-0.167669
-4.19622
-0.161166
-4.04036
-0.154931
-3.89043
-0.148972
-3.74613
-0.143299
-3.60716
-0.137915
-3.47325
-0.132821
-3.34411
-0.128006
-3.21947
-0.123458
-3.09908
-0.119156
-2.98271
-0.115079
-2.87018
-0.111198
-2.7613
-0.107478
-2.65598
-0.103872
-2.55414
-0.100328
-2.45576
-0.0967971
-2.36087
-0.0932453
-2.2695
-0.0896588
-2.18166
-0.0860512
-2.09734
-0.0824594
-2.01647
-0.0789317
-1.93893
-0.075515
-1.86457
-0.0722469
-1.79322
-0.0691521
-1.72469
-0.0662465
-1.65876
-0.0635394
-1.59525
-0.0610265
-1.53397
-0.0586976
-1.47473
-0.056545
-1.41736
-0.0545659
-1.36168
-0.0527556
-1.30753
-0.051097
-1.25481
-0.0495507
-1.20344
-0.0480539
-1.15346
-0.0465319
-1.10495
-0.0448969
-1.05812
-0.0430711
-1.01316
-0.0410199
-0.970266
-0.0387756
-0.929532
-0.0364279
-0.890933
-0.0340935
-0.854368
-0.0318488
-0.819691
-0.029738
-0.78681
-0.0277054
-0.755656
-0.0257257
-0.726172
-0.0237886
-0.698403
-0.0217894
-0.672332
-0.0197877
-0.647863
-0.0178551
-0.625032
-0.0158472
-0.603619
-0.0140154
-0.583075
-0.0126896
-0.0126141
-0.56213
14.4522
-3.91561
-1.88337
-6.28154
-8.73706
-12.0287
-11.7349
-8.91351
-13.322
-6.047
-14.4397
-3.92339
-15.0923
-2.7902
-15.395
-2.10831
-15.465
-1.66266
-15.3839
-1.36403
-15.2032
-1.16411
-14.9558
-1.03171
-14.6624
-0.945437
-14.3369
-0.890212
-13.9887
-0.855389
-13.6244
-0.833479
-13.249
-0.819267
-12.8663
-0.809187
-12.4797
-0.800852
-12.0917
-0.792725
-11.7046
-0.783865
-11.3201
-0.773751
-10.94
-0.762146
-10.5655
-0.749007
-10.1978
-0.734408
-9.83773
-0.718502
-9.48607
-0.701477
-9.14336
-0.68354
-8.81002
-0.664896
-8.48634
-0.645741
-8.17251
-0.626256
-7.86862
-0.606601
-7.57467
-0.586918
-7.29063
-0.567327
-7.01638
-0.547928
-6.75176
-0.528804
-6.49661
-0.510023
-6.25069
-0.491636
-6.01379
-0.473685
-5.78565
-0.456198
-5.566
-0.439197
-5.35458
-0.422696
-5.15113
-0.406702
-4.95537
-0.39122
-4.76702
-0.376249
-4.58584
-0.361788
-4.41156
-0.347834
-4.24393
-0.334384
-4.0827
-0.321436
-3.92764
-0.308991
-3.77851
-0.297047
-3.63512
-0.285605
-3.49723
-0.274662
-3.36465
-0.264213
-3.23717
-0.254248
-3.11458
-0.244749
-2.9967
-0.235693
-2.88333
-0.227046
-2.77429
-0.218769
-2.66943
-0.210816
-2.56857
-0.203136
-2.47156
-0.195683
-2.37821
-0.188421
-2.28834
-0.181322
-2.20177
-0.174364
-2.11833
-0.167539
-2.0379
-0.160854
-1.96039
-0.154331
-1.8857
-0.148
-1.81375
-0.141902
-1.74443
-0.136079
-1.67762
-0.130564
-1.61319
-0.125381
-1.55097
-0.120539
-1.49082
-0.116036
-1.43257
-0.111859
-1.37611
-0.10797
-1.32137
-0.104317
-1.26831
-0.100835
-1.21695
-0.0974549
-1.16729
-0.0941008
-1.11936
-0.0907072
-1.0731
-0.0872266
-1.02844
-0.0836304
-0.985259
-0.0799115
-0.943475
-0.0760728
-0.903114
-0.0720891
-0.864316
-0.0679625
-0.827275
-0.0637186
-0.792116
-0.0594677
-0.758794
-0.0553263
-0.727245
-0.0512809
-0.697385
-0.0473419
-0.668985
-0.0435433
-0.641868
-0.0398938
-0.615939
-0.0363875
-0.591024
-0.0329631
-0.567487
-0.0293382
-0.545528
-0.0259309
-0.023824
-0.524959
10.6861
-6.62048
11.3195
-6.91497
5.62439
-6.33357
-0.45375
-2.83532
-5.83813
-0.662509
-9.21271
-0.548694
-11.3183
-0.684573
-12.6504
-0.77612
-13.4717
-0.841194
-13.9431
-0.892575
-14.1649
-0.942153
-14.2067
-0.989863
-14.1177
-1.03434
-13.9336
-1.07412
-13.6808
-1.10805
-13.3788
-1.13537
-13.0421
-1.15574
-12.682
-1.16916
-12.3067
-1.17589
-11.9229
-1.17638
-11.5353
-1.17119
-11.1479
-1.16094
-10.7635
-1.14629
-10.3844
-1.12787
-10.0122
-1.10632
-9.64818
-1.08219
-9.29331
-1.05603
-8.94822
-1.02829
-8.61335
-0.999404
-8.28898
-0.969738
-7.97523
-0.939606
-7.67213
-0.909279
-7.37962
-0.878984
-7.09757
-0.848906
-6.8258
-0.8192
-6.5641
-0.789985
-6.31222
-0.761359
-6.06989
-0.733396
-5.83683
-0.706149
-5.61273
-0.679661
-5.39731
-0.653958
-5.19026
-0.629058
-4.99127
-0.60497
-4.80003
-0.581698
-4.61625
-0.55924
-4.43962
-0.537591
-4.26984
-0.516741
-4.10664
-0.496682
-3.94973
-0.477398
-3.79885
-0.458876
-3.65377
-0.441097
-3.51425
-0.42404
-3.38011
-0.407685
-3.25114
-0.392007
-3.12718
-0.376983
-3.00806
-0.362587
-2.89363
-0.348788
-2.78373
-0.335552
-2.67822
-0.322836
-2.57693
-0.310598
-2.47969
-0.298796
-2.38634
-0.287401
-2.29666
-0.276393
-2.21044
-0.265761
-2.12746
-0.255495
-2.04748
-0.245585
-1.97031
-0.236022
-1.89575
-0.226799
-1.82366
-0.217913
-1.75392
-0.209375
-1.68643
-0.201205
-1.6211
-0.193427
-1.55786
-0.186058
-1.49663
-0.179094
-1.43736
-0.172516
-1.38002
-0.166292
-1.32458
-0.160385
-1.27099
-0.154741
-1.21924
-0.149293
-1.16928
-0.143969
-1.12109
-0.138702
-1.07461
-0.133441
-1.02976
-0.128162
-0.986452
-0.12284
-0.944636
-0.117443
-0.904278
-0.111943
-0.865374
-0.106289
-0.827955
-0.100446
-0.792004
-0.0944874
-0.757619
-0.0884042
-0.724925
-0.0822905
-0.693832
-0.0763446
-0.664357
-0.0704729
-0.636773
-0.064449
-0.611057
-0.0585752
-0.58721
-0.0528051
-0.565632
-0.0466708
-0.546128
-0.0404731
-0.528757
-0.0342706
-0.0312486
-0.511659
5.92423
-9.68821
5.22271
-6.21343
-1.05703
-0.0537816
-6.07825
2.18601
-9.03319
2.29253
-10.881
1.29925
-12.2059
0.640347
-13.1431
0.161153
-13.767
-0.217217
-14.1345
-0.524943
-14.2961
-0.780414
-14.296
-0.989834
-14.1716
-1.15863
-13.9537
-1.29187
-13.6672
-1.39441
-13.3317
-1.47071
-12.9626
-1.52472
-12.5716
-1.55993
-12.168
-1.57937
-11.7585
-1.58565
-11.3484
-1.58104
-10.9416
-1.56749
-10.541
-1.54666
-10.1486
-1.51998
-9.76599
-1.48867
-9.39411
-1.45378
-9.03364
-1.41617
-8.685
-1.3766
-8.34836
-1.33569
-8.02375
-1.29396
-7.71111
-1.25186
-7.41024
-1.20973
-7.1209
-1.16787
-6.84282
-1.12652
-6.57568
-1.08585
-6.31912
-1.04602
-6.0728
-1.00714
-5.83635
-0.969273
-5.6094
-0.932491
-5.39161
-0.896829
-5.18259
-0.862313
-4.982
-0.828955
-4.78948
-0.796759
-4.6047
-0.765721
-4.42731
-0.735832
-4.25699
-0.707076
-4.09343
-0.679434
-3.93632
-0.652879
-3.78538
-0.627383
-3.64035
-0.602912
-3.50098
-0.57943
-3.36704
-0.556898
-3.23831
-0.53528
-3.1146
-0.514537
-2.99572
-0.494631
-2.88149
-0.475523
-2.77176
-0.457173
-2.66638
-0.439542
-2.56516
-0.422594
-2.46794
-0.406296
-2.37453
-0.390619
-2.28474
-0.375538
-2.19838
-0.361035
-2.11526
-0.347092
-2.03519
-0.333694
-1.95801
-0.320823
-1.88355
-0.308466
-1.81163
-0.296608
-1.74211
-0.285238
-1.67485
-0.274351
-1.60972
-0.263947
-1.54664
-0.25402
-1.48555
-0.244565
-1.42637
-0.235568
-1.36907
-0.227002
-1.3136
-0.218828
-1.25991
-0.211003
-1.20798
-0.203472
-1.15776
-0.196178
-1.10917
-0.189066
-1.06215
-0.182072
-1.01664
-0.175134
-0.972611
-0.168197
-0.930063
-0.161203
-0.889033
-0.154085
-0.849564
-0.146809
-0.811626
-0.139394
-0.775183
-0.131812
-0.740241
-0.124094
-0.706681
-0.116354
-0.674507
-0.108562
-0.64416
-0.100477
-0.615621
-0.0924672
-0.58839
-0.0847754
-0.562731
-0.0769182
-0.539382
-0.0683513
-0.518193
-0.059518
-0.494475
-0.0552301
-0.468504
-0.0509671
-0.0450112
-0.444861
2.75621
-12.017
-5.04681
1.58962
-10.1375
5.03696
-12.1812
4.22977
-13.1134
3.22476
-14.0344
2.22034
-14.7493
1.35525
-15.2058
0.617763
-15.4215
-0.00145517
-15.4357
-0.510689
-15.2978
-0.918115
-15.0457
-1.2419
-14.7104
-1.49375
-14.3169
-1.68523
-13.8845
-1.82666
-13.4282
-1.9269
-12.9593
-1.99344
-12.4865
-2.0326
-12.016
-2.04962
-11.5526
-2.04889
-11.0994
-2.03401
-10.6587
-2.00795
-10.2319
-1.97317
-9.82
-1.93166
-9.42331
-1.88508
-9.04199
-1.83479
-8.67594
-1.7819
-8.3249
-1.7273
-7.98849
-1.67173
-7.66627
-1.6158
-7.35775
-1.55998
-7.0624
-1.50465
-6.77971
-1.45012
-6.50913
-1.39662
-6.25014
-1.34434
-6.00224
-1.29341
-5.76491
-1.24391
-5.53767
-1.19593
-5.32006
-1.14949
-5.11163
-1.10462
-4.91194
-1.06133
-4.72057
-1.01962
-4.53713
-0.979461
-4.36124
-0.940844
-4.19253
-0.903737
-4.03065
-0.868107
-3.87529
-0.833911
-3.72614
-0.801103
-3.58292
-0.769632
-3.44538
-0.739447
-3.31326
-0.710495
-3.18633
-0.682724
-3.06437
-0.656084
-2.94719
-0.630523
-2.83457
-0.605992
-2.72634
-0.582447
-2.62231
-0.559845
-2.52228
-0.538148
-2.42607
-0.51732
-2.33349
-0.497328
-2.24435
-0.478142
-2.15848
-0.459731
-2.0757
-0.442064
-1.99586
-0.425113
-1.9188
-0.408846
-1.84441
-0.393238
-1.77254
-0.378264
-1.70309
-0.363905
-1.63594
-0.350148
-1.57097
-0.336981
-1.50808
-0.324393
-1.44719
-0.312368
-1.38821
-0.300889
-1.33108
-0.289929
-1.27574
-0.279451
-1.22213
-0.269412
-1.17021
-0.259771
-1.11991
-0.250465
-1.07121
-0.241428
-1.02406
-0.232602
-0.978428
-0.223914
-0.93432
-0.215274
-0.891748
-0.206605
-0.850726
-0.197854
-0.811266
-0.188952
-0.773412
-0.179832
-0.737188
-0.170533
-0.702543
-0.161099
-0.669499
-0.151488
-0.638132
-0.14176
-0.608245
-0.132166
-0.579493
-0.122613
-0.552312
-0.112654
-0.528232
-0.101432
-0.506249
-0.0910348
-0.480203
-0.0861085
-0.449011
-0.0822545
-0.41815
-0.0767215
-0.384
-0.0727188
-0.0569897
-0.353424
-1.90544
-11.8024
-11.413
11.0972
-14.319
7.94293
-16.1882
6.09898
-17.3247
4.36136
-17.9525
2.84812
-18.1723
1.57512
-18.0806
0.526129
-17.7656
-0.316331
-17.3002
-0.976047
-16.7343
-1.48393
-16.1114
-1.86467
-15.4615
-2.14356
-14.805
-2.34159
-14.1557
-2.47579
-13.5226
-2.55983
-12.9113
-2.60459
-12.325
-2.61873
-11.7653
-2.60916
-11.2326
-2.58135
-10.7267
-2.53967
-10.2469
-2.48757
-9.79202
-2.42778
-9.36094
-2.36247
-8.95237
-2.29336
-8.56502
-2.22184
-8.19762
-2.14898
-7.84893
-2.07564
-7.5178
-2.0025
-7.20313
-1.93008
-6.9039
-1.85879
-6.61916
-1.78895
-6.34804
-1.72078
-6.08971
-1.65447
-5.84341
-1.59013
-5.60844
-1.52784
-5.38414
-1.46764
-5.16991
-1.40956
-4.96518
-1.3536
-4.76941
-1.29973
-4.58212
-1.24794
-4.40284
-1.19817
-4.23115
-1.1504
-4.06663
-1.10457
-3.90892
-1.06062
-3.75766
-1.01849
-3.61254
-0.978124
-3.47325
-0.93944
-3.33952
-0.902371
-3.21108
-0.866847
-3.08769
-0.832799
-2.96912
-0.80016
-2.85516
-0.768864
-2.7456
-0.738853
-2.64023
-0.710075
-2.53885
-0.682482
-2.44126
-0.656029
-2.34727
-0.630672
-2.2567
-0.606368
-2.16936
-0.583076
-2.08509
-0.560755
-2.00373
-0.539361
-1.92513
-0.518853
-1.84917
-0.49919
-1.77573
-0.480332
-1.70467
-0.462244
-1.6359
-0.444897
-1.56931
-0.428268
-1.5048
-0.412338
-1.44227
-0.397088
-1.38163
-0.382494
-1.32282
-0.368533
-1.26576
-0.355179
-1.2104
-0.342395
-1.1567
-0.330124
-1.10462
-0.318323
-1.05412
-0.306952
-1.00517
-0.295929
-0.957793
-0.285159
-0.911977
-0.274586
-0.867738
-0.264128
-0.825118
-0.253662
-0.784156
-0.243114
-0.744858
-0.232462
-0.707242
-0.221627
-0.67138
-0.21048
-0.637323
-0.199084
-0.604948
-0.187657
-0.574116
-0.176173
-0.544917
-0.164459
-0.517797
-0.152381
-0.493126
-0.139955
-0.468665
-0.129415
-0.439762
-0.122408
-0.406629
-0.11587
-0.37299
-0.10955
-0.344767
-0.0955121
-0.317088
-0.0805665
-0.270181
-0.0748105
-0.0662009
-0.190077
-8.89272
-6.82971
-18.417
20.6215
-23.3123
12.8382
-25.534
8.32074
-25.9899
4.81726
-25.3397
2.19796
-24.0759
0.311364
-22.6255
-0.924154
-21.1622
-1.77959
-19.765
-2.37315
-18.4651
-2.78379
-17.2675
-3.06219
-16.1691
-3.24182
-15.1641
-3.34643
-14.2453
-3.39445
-13.4051
-3.39991
-12.636
-3.37354
-11.9309
-3.32361
-11.2834
-3.25649
-10.6874
-3.17713
-10.1375
-3.08936
-9.62881
-2.99606
-9.15693
-2.8994
-8.7181
-2.80103
-8.30894
-2.70222
-7.92651
-2.60395
-7.5682
-2.50694
-7.23175
-2.41173
-6.91516
-2.31871
-6.61667
-2.22817
-6.33473
-2.1403
-6.068
-2.05523
-5.81527
-1.97304
-5.57546
-1.89377
-5.34762
-1.81744
-5.13088
-1.74401
-4.92448
-1.67346
-4.72771
-1.60571
-4.53994
-1.54071
-4.36061
-1.47838
-4.18918
-1.41864
-4.02519
-1.36141
-3.8682
-1.3066
-3.71781
-1.25413
-3.57365
-1.20391
-3.43538
-1.15586
-3.30268
-1.10987
-3.17528
-1.06586
-3.05288
-1.02373
-2.93523
-0.983409
-2.82211
-0.944797
-2.71327
-0.907817
-2.6085
-0.872396
-2.5076
-0.838467
-2.41036
-0.80597
-2.3166
-0.774849
-2.22611
-0.745049
-2.13875
-0.716512
-2.05434
-0.689186
-1.97273
-0.663018
-1.89379
-0.637957
-1.81739
-0.613954
-1.7434
-0.590958
-1.67169
-0.568923
-1.60217
-0.5478
-1.53472
-0.527545
-1.46925
-0.508123
-1.40566
-0.489504
-1.34388
-0.471669
-1.28381
-0.454585
-1.22541
-0.438211
-1.16862
-0.422514
-1.11338
-0.407473
-1.05966
-0.393022
-1.00746
-0.379078
-0.956787
-0.365589
-0.907635
-0.352523
-0.86002
-0.339775
-0.814014
-0.327196
-0.769669
-0.314745
-0.727013
-0.302368
-0.686128
-0.289882
-0.647082
-0.277226
-0.609814
-0.264506
-0.574204
-0.251698
-0.540272
-0.238535
-0.507997
-0.225116
-0.477131
-0.211863
-0.447802
-0.198359
-0.41971
-0.184871
-0.390559
-0.173315
-0.35793
-0.163778
-0.322196
-0.155011
-0.288712
-0.142299
-0.254506
-0.129647
-0.209071
-0.121002
-0.146334
-0.111528
-0.0838063
-0.10343
-0.0324216
-0.0982786
-0.0941395
0.0171381
-31.6062
-0.95023
-40.3341
29.3495
-40.3224
12.8264
-38.0498
6.04816
-34.9256
1.69308
-31.8042
-0.923363
-28.8371
-2.6557
-26.0652
-3.69604
-23.5636
-4.28111
-21.3434
-4.59321
-19.3923
-4.73488
-17.6867
-4.7677
-16.1977
-4.73065
-14.8979
-4.6462
-13.7608
-4.53134
-12.7629
-4.39766
-11.8833
-4.25296
-11.1043
-4.10252
-10.4106
-3.94998
-9.78957
-3.79791
-9.2305
-3.64819
-8.7243
-3.50201
-8.26349
-3.35993
-7.84188
-3.22235
-7.45427
-3.08951
-7.09634
-2.96154
-6.76445
-2.83848
-6.45553
-2.72027
-6.16698
-2.60685
-5.89661
-2.49811
-5.64256
-2.3939
-5.40323
-2.29408
-5.17724
-2.19852
-4.96342
-2.10706
-4.7607
-2.01959
-4.56818
-1.93594
-4.38505
-1.85597
-4.21059
-1.77952
-4.04417
-1.70644
-3.88524
-1.63659
-3.73328
-1.56984
-3.58785
-1.50604
-3.44855
-1.44507
-3.315
-1.38681
-3.18687
-1.33113
-3.06383
-1.27793
-2.94561
-1.22709
-2.83193
-1.17849
-2.72253
-1.13203
-2.61718
-1.08761
-2.51566
-1.04512
-2.41775
-1.00447
-2.32326
-0.965582
-2.232
-0.928362
-2.14381
-0.892745
-2.0585
-0.858665
-1.97595
-0.826055
-1.89599
-0.794847
-1.81851
-0.764978
-1.74337
-0.736389
-1.67046
-0.709026
-1.59965
-0.682838
-1.53082
-0.657775
-1.46386
-0.633778
-1.39867
-0.610789
-1.33516
-0.588752
-1.27326
-0.567612
-1.21292
-0.547322
-1.15408
-0.527864
-1.09669
-0.5092
-1.04073
-0.491254
-0.986183
-0.474
-0.933009
-0.457426
-0.881228
-0.441414
-0.830902
-0.425831
-0.782109
-0.410611
-0.734908
-0.395738
-0.689326
-0.381142
-0.645444
-0.366612
-0.603309
-0.35214
-0.562931
-0.33771
-0.524427
-0.323022
-0.48776
-0.30817
-0.452516
-0.293626
-0.418351
-0.279289
-0.385676
-0.264099
-0.354374
-0.248656
-0.322117
-0.235642
-0.287145
-0.224038
-0.250984
-0.210433
-0.215062
-0.196028
-0.176735
-0.18418
-0.131643
-0.173738
-0.0793966
-0.162487
-0.0294093
-0.152364
0.0146559
-0.143814
0.0574463
-0.136272
0.0982867
-0.129654
0.136703
-0.123747
-0.118457
0.172573
-158.678
8.44243
-116.941
-12.3883
-90.9868
-13.1274
-70.5001
-14.4385
-55.0324
-13.7747
-43.7901
-12.1656
-35.6543
-10.7914
-29.6321
-9.71826
-25.0789
-8.83423
-21.5751
-8.09698
-18.834
-7.47582
-16.6561
-6.94555
-14.895
-6.49162
-13.4505
-6.09057
-12.2497
-5.732
-11.2388
-5.40849
-10.3774
-5.11417
-9.63532
-4.84438
-8.98963
-4.59545
-8.42272
-4.3646
-7.92062
-4.15003
-7.47203
-3.95033
-7.06818
-3.76349
-6.70207
-3.58814
-6.36807
-3.42318
-6.06157
-3.26768
-5.7788
-3.12086
-5.51665
-2.98202
-5.27252
-2.85054
-5.04428
-2.72588
-4.83013
-2.60756
-4.62856
-2.49513
-4.43832
-2.38821
-4.25833
-2.28648
-4.08764
-2.18967
-3.92541
-2.09752
-3.77092
-2.00978
-3.62354
-1.92619
-3.48271
-1.84651
-3.34797
-1.77055
-3.21887
-1.69811
-3.09505
-1.629
-2.97615
-1.56306
-2.86188
-1.50013
-2.75196
-1.44006
-2.64613
-1.38273
-2.54414
-1.328
-2.44577
-1.27573
-2.35081
-1.22581
-2.25906
-1.17812
-2.17035
-1.13255
-2.08448
-1.08899
-2.00131
-1.04734
-1.92069
-1.00751
-1.84248
-0.969417
-1.76655
-0.93299
-1.69277
-0.898152
-1.62104
-0.864822
-1.55126
-0.832932
-1.48332
-0.802412
-1.41714
-0.773206
-1.3526
-0.745274
-1.28962
-0.718568
-1.22808
-0.693019
-1.1679
-0.668557
-1.10902
-0.645112
-1.05138
-0.622599
-0.994992
-0.600929
-0.939844
-0.580084
-0.885956
-0.560006
-0.833378
-0.540584
-0.782117
-0.521832
-0.732147
-0.503773
-0.683529
-0.486196
-0.636354
-0.468938
-0.590758
-0.451887
-0.54691
-0.434991
-0.504796
-0.418356
-0.464354
-0.401814
-0.425333
-0.385542
-0.387575
-0.369427
-0.351471
-0.352601
-0.316962
-0.335563
-0.282845
-0.319919
-0.247833
-0.305679
-0.212288
-0.29006
-0.176212
-0.273713
-0.139347
-0.259085
-0.100389
-0.245734
-0.0579219
-0.232038
-0.014276
-0.219066
0.0268589
-0.20738
0.0655899
-0.196447
0.103565
-0.186296
0.140353
-0.176909
0.175945
-0.168193
0.210168
-0.160082
0.242848
-0.152513
0.273852
-0.145424
-0.138812
0.302931
-76.0846
-16.1942
-65.6378
-22.835
-53.8628
-24.9025
-42.658
-25.6432
-33.7224
-22.7102
-27.6097
-18.2783
-23.1977
-15.2034
-19.8423
-13.0736
-17.224
-11.4525
-15.1463
-10.1746
-13.4736
-9.14837
-12.1152
-8.30389
-10.9882
-7.61845
-10.0422
-7.03643
-9.23942
-6.53463
-8.55117
-6.09655
-7.95539
-5.70975
-7.43495
-5.3646
-6.97667
-5.0535
-6.57053
-4.77048
-6.20829
-4.51198
-5.88236
-4.27595
-5.58709
-4.05843
-5.31789
-3.85698
-5.07099
-3.66969
-4.84328
-3.49498
-4.63216
-3.33154
-4.43547
-3.17825
-4.25138
-3.03413
-4.07839
-2.89836
-3.91521
-2.77018
-3.76081
-2.64895
-3.61434
-2.53406
-3.4751
-2.42507
-3.34241
-2.32168
-3.21569
-2.22353
-3.09439
-2.13032
-2.97809
-2.0417
-2.86639
-1.95739
-2.75895
-1.87713
-2.65547
-1.80068
-2.55569
-1.72783
-2.45938
-1.65837
-2.36633
-1.59213
-2.27636
-1.52895
-2.18928
-1.46866
-2.10494
-1.41114
-2.02319
-1.35623
-1.94388
-1.30382
-1.86688
-1.25376
-1.79205
-1.20595
-1.71927
-1.16028
-1.64843
-1.11663
-1.57942
-1.0749
-1.51214
-1.035
-1.44648
-0.99687
-1.38236
-0.960417
-1.3197
-0.92554
-1.25843
-0.892162
-1.19851
-0.860203
-1.1399
-0.829583
-1.08255
-0.800283
-1.02638
-0.772289
-0.971305
-0.74552
-0.917274
-0.719883
-0.864241
-0.6953
-0.812152
-0.671692
-0.761053
-0.648867
-0.711019
-0.626781
-0.662159
-0.605335
-0.614648
-0.584356
-0.568527
-0.563985
-0.523691
-0.544389
-0.480162
-0.525226
-0.437904
-0.506385
-0.396939
-0.487695
-0.357589
-0.468798
-0.319869
-0.450094
-0.283479
-0.431697
-0.247692
-0.414189
-0.212198
-0.397054
-0.176972
-0.379127
-0.141472
-0.361294
-0.105663
-0.344388
-0.0692227
-0.328497
-0.0316284
-0.312338
0.00665837
-0.297112
0.0440016
-0.282765
0.0800864
-0.268983
0.115821
-0.255815
0.150977
-0.243307
0.185169
-0.231459
0.218456
-0.220225
0.250741
-0.209577
0.281921
-0.199485
0.3119
-0.189917
0.340606
-0.180838
0.36799
-0.172214
0.394024
-0.164007
-0.156232
0.418555
47.393
-2.88159
30.0987
-5.54073
17.7706
-12.5744
7.74935
-15.6219
0.937241
-15.8981
-2.8979
-14.4431
-4.81117
-13.29
-5.73675
-12.1479
-6.13759
-11.0516
-6.24817
-10.0639
-6.19199
-9.20441
-6.06235
-8.43337
-5.87971
-7.80092
-5.66893
-7.24701
-5.44672
-6.75663
-5.2237
-6.31934
-5.00602
-5.92717
-4.7969
-5.57345
-4.59784
-5.25225
-4.41032
-4.95767
-4.2351
-4.68686
-4.07036
-4.44031
-3.91531
-4.21308
-3.76909
-4.00277
-3.63086
-3.80747
-3.49982
-3.62554
-3.37526
-3.4556
-3.2565
-3.29646
-3.14297
-3.14709
-3.03411
-3.0066
-2.92947
-2.87419
-2.82866
-2.74909
-2.73145
-2.63056
-2.63766
-2.51812
-2.54705
-2.41151
-2.45934
-2.31042
-2.37431
-2.21449
-2.29175
-2.12335
-2.21151
-2.03668
-2.13345
-1.9542
-2.05744
-1.87566
-1.98336
-1.80082
-1.91113
-1.72947
-1.84065
-1.66143
-1.77185
-1.59651
-1.70467
-1.53455
-1.63903
-1.47542
-1.57489
-1.41896
-1.51217
-1.36506
-1.45081
-1.31357
-1.39077
-1.26438
-1.33197
-1.21739
-1.27436
-1.17248
-1.21786
-1.12955
-1.16243
-1.0885
-1.10798
-1.04929
-1.05447
-1.01182
-1.00185
-0.975939
-0.950113
-0.94158
-0.899233
-0.908647
-0.849278
-0.87698
-0.800282
-0.846594
-0.752198
-0.817548
-0.704987
-0.789757
-0.658635
-0.7631
-0.613145
-0.737481
-0.568442
-0.712895
-0.52456
-0.689041
-0.481537
-0.665866
-0.439505
-0.643177
-0.398756
-0.620636
-0.359343
-0.598622
-0.321102
-0.577509
-0.283986
-0.556822
-0.247766
-0.536616
-0.212259
-0.516672
-0.17734
-0.496574
-0.142762
-0.476843
-0.108366
-0.457398
-0.0738988
-0.438788
-0.0392423
-0.420628
-0.00433059
-0.402592
0.0307005
-0.385383
0.0653997
-0.368631
0.0994121
-0.352379
0.133348
-0.336622
0.166775
-0.321432
0.199508
-0.306807
0.231583
-0.292733
0.262967
-0.279203
0.293588
-0.266214
0.323354
-0.253758
0.352192
-0.241822
0.380042
-0.230389
0.406854
-0.21944
0.432585
-0.208956
0.457209
-0.198915
0.480707
-0.189295
0.503073
-0.180072
-0.171266
0.524193
34.8076
-1.64059
34.0453
-4.77846
28.9192
-7.44834
22.167
-8.8696
15.7922
-9.52327
11.0541
-9.70491
7.40485
-9.64072
4.65429
-9.39722
2.63405
-9.03117
1.17713
-8.6068
0.139661
-8.16671
-0.58234
-7.71109
-1.09031
-7.29267
-1.45086
-6.88616
-1.7072
-6.49998
-1.88813
-6.13808
-2.01357
-5.80137
-2.09757
-5.48907
-2.15003
-5.19939
-2.17973
-4.92755
-2.19381
-4.67233
-2.19434
-4.4393
-2.18422
-4.22268
-2.16576
-4.02069
-2.14075
-3.83191
-2.11059
-3.65509
-2.07639
-3.48916
-2.039
-3.33318
-1.99908
-3.18631
-1.95713
-3.04782
-1.91353
-2.91702
-1.86856
-2.79325
-1.82263
-2.67565
-1.77615
-2.56371
-1.72922
-2.45751
-1.68195
-2.35672
-1.6344
-2.26103
-1.58666
-2.17002
-1.53884
-2.08339
-1.49101
-2.00086
-1.44325
-1.9222
-1.39561
-1.84719
-1.34815
-1.7756
-1.30092
-1.70727
-1.25396
-1.64202
-1.2073
-1.57969
-1.161
-1.52014
-1.1151
-1.46322
-1.06961
-1.40882
-1.02457
-1.35681
-0.979983
-1.30708
-0.935871
-1.25952
-0.892229
-1.21406
-0.849048
-1.17057
-0.806332
-1.12896
-0.764051
-1.0892
-0.722182
-1.0512
-0.680743
-1.01477
-0.639742
-0.97984
-0.599164
-0.946345
-0.55917
-0.913943
-0.519877
-0.882693
-0.481262
-0.852793
-0.443312
-0.824147
-0.406027
-0.796616
-0.369444
-0.77007
-0.333529
-0.744565
-0.298313
-0.719731
-0.2638
-0.695532
-0.230045
-0.671726
-0.196798
-0.648277
-0.163896
-0.625476
-0.131448
-0.603412
-0.0992898
-0.581846
-0.0671306
-0.560909
-0.0347675
-0.540468
-0.00222587
-0.520339
0.0302519
-0.500782
0.0627579
-0.481586
0.0949984
-0.462836
0.126887
-0.444505
0.158646
-0.426607
0.18994
-0.409181
0.220821
-0.392215
0.251256
-0.375713
0.281233
-0.359681
0.310685
-0.344129
0.33954
-0.329061
0.367743
-0.314477
0.39524
-0.300375
0.421981
-0.286752
0.447913
-0.273603
0.472994
-0.26092
0.497185
-0.248693
0.520455
-0.236911
0.542782
-0.225563
0.564149
-0.214634
0.584545
-0.204109
0.60397
-0.193972
-0.184243
0.622327
29.4906
-1.1096
27.5767
-2.86461
24.4247
-4.29635
20.9471
-5.3919
17.6155
-6.19168
14.6215
-6.71081
11.9818
-7.00099
9.7086
-7.1239
7.79737
-7.11982
6.21174
-7.02103
4.90062
-6.85542
3.83484
-6.64511
2.95183
-6.40942
2.22532
-6.15937
1.6295
-5.90384
1.14128
-5.64948
0.740993
-5.40066
0.412469
-5.16006
0.142964
-4.92933
-0.0766006
-4.70737
-0.254077
-4.4942
-0.398628
-4.29407
-0.516535
-4.10407
-0.61256
-3.92394
-0.690423
-3.75329
-0.753079
-3.59164
-0.802911
-3.4385
-0.84187
-3.29336
-0.871568
-3.15571
-0.893341
-3.0251
-0.908295
-2.90108
-0.917325
-2.78319
-0.921475
-2.67043
-0.921524
-2.56254
-0.917649
-2.46022
-0.910216
-2.36294
-0.899627
-2.27035
-0.886261
-2.18207
-0.870464
-2.09782
-0.852547
-2.01735
-0.832786
-1.94047
-0.811418
-1.867
-0.788651
-1.79675
-0.764669
-1.72956
-0.739633
-1.66529
-0.71369
-1.6038
-0.68697
-1.54493
-0.6596
-1.48858
-0.631694
-1.43463
-0.603355
-1.38296
-0.574674
-1.33347
-0.54573
-1.28607
-0.516593
-1.24069
-0.487315
-1.19722
-0.457951
-1.15556
-0.428551
-1.11572
-0.399148
-1.07757
-0.369805
-1.04092
-0.340586
-1.0057
-0.311556
-0.971828
-0.282855
-0.938896
-0.254258
-0.907329
-0.22582
-0.877039
-0.19759
-0.847933
-0.169578
-0.819907
-0.141759
-0.792859
-0.114143
-0.766809
-0.0865623
-0.741552
-0.058755
-0.717126
-0.0305376
-0.693333
-0.00189884
-0.670177
0.0269561
-0.647664
0.0557851
-0.625647
0.084638
-0.604138
0.113403
-0.583139
0.142015
-0.562608
0.170547
-0.542512
0.198866
-0.522848
0.227041
-0.503595
0.255028
-0.484745
0.282809
-0.466296
0.310358
-0.448252
0.337619
-0.430617
0.364546
-0.413395
0.391093
-0.396589
0.417214
-0.380204
0.442857
-0.364246
0.467973
-0.348716
0.492512
-0.333619
0.516428
-0.318955
0.53968
-0.304724
0.562228
-0.290924
0.58404
-0.277551
0.605084
-0.264603
0.625338
-0.252071
0.644782
-0.23995
0.663403
-0.22823
0.681194
-0.216904
0.698153
-0.205959
-0.195418
0.714194
23.9032
-0.688858
22.8973
-1.85865
21.4802
-2.87925
19.7637
-3.67538
17.8749
-4.30282
15.9477
-4.78351
14.0777
-5.13092
12.319
-5.36512
10.7043
-5.50509
9.25042
-5.56698
7.96071
-5.56556
6.82998
-5.51422
5.8455
-5.42474
4.9932
-5.30684
4.25802
-5.16841
3.62483
-5.016
3.07943
-4.85493
2.60908
-4.68933
2.20247
-4.5223
1.8516
-4.35603
1.55015
-4.19223
1.28899
-4.03234
1.06259
-3.87705
0.866191
-3.72684
0.695675
-3.58201
0.547564
-3.4427
0.418914
-3.30895
0.307235
-3.1807
0.21042
-3.05784
0.126684
-2.94022
0.0545246
-2.82769
-0.00725688
-2.72008
-0.0594943
-2.61677
-0.10305
-2.5175
-0.139104
-2.42263
-0.168673
-2.33178
-0.192595
-2.24479
-0.211534
-2.16143
-0.226044
-2.08154
-0.236606
-2.00495
-0.243653
-1.93152
-0.247566
-1.8611
-0.248686
-1.79356
-0.247316
-1.72879
-0.243727
-1.66665
-0.238158
-1.60703
-0.230822
-1.54984
-0.221909
-1.49496
-0.211596
-1.44229
-0.200036
-1.39175
-0.18737
-1.34324
-0.173727
-1.29669
-0.159226
-1.25202
-0.143964
-1.20916
-0.128012
-1.16803
-0.11147
-1.12859
-0.0944049
-1.09078
-0.0768041
-1.05446
-0.0586046
-1.01961
-0.0397047
-0.986202
-0.0200151
-0.953882
0.000323745
-0.922891
0.0211241
-0.893016
0.0422856
-0.864214
0.0637408
-0.83643
0.0854621
-0.809601
0.107346
-0.783671
0.129438
-0.758577
0.15168
-0.734263
0.174121
-0.710653
0.196743
-0.687691
0.219499
-0.665325
0.24244
-0.6435
0.265556
-0.622178
0.288802
-0.601325
0.312147
-0.580912
0.335569
-0.560914
0.359031
-0.541311
0.382501
-0.522089
0.405943
-0.503236
0.429317
-0.484747
0.452578
-0.466617
0.475678
-0.448849
0.498567
-0.431443
0.521194
-0.414404
0.54351
-0.397736
0.565465
-0.381443
0.587012
-0.365531
0.608103
-0.350003
0.628697
-0.334865
0.648753
-0.320117
0.668235
-0.305763
0.68711
-0.291802
0.70535
-0.278235
0.722932
-0.265059
0.739836
-0.252272
0.756048
-0.23987
0.771557
-0.227849
0.786359
-0.216202
-0.204951
0.800373
20.6133
-0.488617
20.0546
-1.29991
19.1789
-2.00351
18.0792
-2.57571
16.8425
-3.06607
15.5424
-3.48329
14.2337
-3.82217
12.9536
-4.08494
11.7275
-4.27895
10.5728
-4.41216
9.49986
-4.49244
8.51349
-4.52769
7.61441
-4.52549
6.80047
-4.49271
6.06767
-4.43538
5.41071
-4.35877
4.82353
-4.26747
4.29983
-4.16531
3.83339
-4.0555
3.41838
-3.94062
3.04933
-3.82275
2.72103
-3.70356
2.42887
-3.58437
2.16875
-3.46616
1.93705
-3.3497
1.73056
-3.23554
1.54643
-3.1241
1.38218
-3.01566
1.23558
-2.9104
1.1047
-2.80843
0.987796
-2.7098
0.883256
-2.61449
0.790061
-2.52246
0.707385
-2.43363
0.634013
-2.34799
0.569024
-2.26544
0.511585
-2.18591
0.460974
-2.1093
0.416546
-2.0355
0.377722
-1.96443
0.343981
-1.89599
0.314855
-1.8301
0.289921
-1.76666
0.268796
-1.70559
0.251131
-1.64681
0.236613
-1.59025
0.224955
-1.53582
0.215903
-1.48344
0.209225
-1.43305
0.204715
-1.38457
0.202189
-1.33795
0.201471
-1.2931
0.202403
-1.24999
0.204835
-1.20853
0.208644
-1.16868
0.213683
-1.13038
0.21982
-1.09357
0.226985
-1.05819
0.235079
-1.02418
0.243958
-0.991476
0.253746
-0.959998
0.264286
-0.929696
0.275571
-0.900503
0.287569
-0.872357
0.300244
-0.845198
0.313561
-0.818962
0.327479
-0.793588
0.341958
-0.769017
0.356959
-0.745187
0.372453
-0.72204
0.388417
-0.69952
0.404825
-0.677573
0.421657
-0.65615
0.438883
-0.635206
0.456473
-0.614701
0.474389
-0.594603
0.492592
-0.574883
0.511038
-0.555517
0.529681
-0.536489
0.548475
-0.517784
0.56737
-0.499394
0.586315
-0.481315
0.605256
-0.463545
0.624142
-0.446085
0.642917
-0.428939
0.66153
-0.412111
0.679929
-0.395608
0.698066
-0.379436
0.715891
-0.363601
0.733361
-0.348109
0.750435
-0.332967
0.767074
-0.318179
0.783243
-0.30375
0.798913
-0.289682
0.814057
-0.275978
0.828652
-0.262639
0.84268
-0.249666
0.856127
-0.237057
0.86898
-0.224811
-0.212949
0.881163
17.9933
-0.349282
17.6298
-0.936397
17.0829
-1.45658
16.3994
-1.89221
15.6125
-2.27911
14.7522
-2.62292
13.8477
-2.9176
12.9248
-3.16187
12.0045
-3.35859
11.104
-3.51151
10.2361
-3.62449
9.41031
-3.70171
8.6325
-3.7475
7.90606
-3.76608
7.2323
-3.7614
6.61091
-3.73715
6.04039
-3.69667
5.51839
-3.64302
5.04207
-3.57887
4.60833
-3.50653
4.21396
-3.42799
3.85576
-3.34494
3.53062
-3.25876
3.23559
-3.17064
2.96794
-3.08151
2.72512
-2.99214
2.50481
-2.90316
2.30488
-2.81506
2.12342
-2.72821
1.95868
-2.64292
1.80909
-2.55939
1.67326
-2.47778
1.54995
-2.39821
1.43805
-2.32074
1.33656
-2.24543
1.24453
-2.17229
1.16113
-2.10133
1.08561
-2.03253
1.0173
-1.96586
0.955568
-1.90131
0.899864
-1.83882
0.849675
-1.77837
0.804539
-1.7199
0.764035
-1.66339
0.727779
-1.60878
0.695421
-1.55604
0.666644
-1.50511
0.641159
-1.45594
0.618705
-1.4085
0.599042
-1.36274
0.581952
-1.3186
0.567238
-1.27605
0.554718
-1.23505
0.544223
-1.19554
0.535602
-1.15748
0.52871
-1.12084
0.52342
-1.08555
0.519617
-1.05159
0.517195
-1.01889
0.516062
-0.987399
0.516152
-0.957074
0.517392
-0.927858
0.519726
-0.899695
0.523099
-0.872528
0.527462
-0.846301
0.532768
-0.820955
0.538974
-0.79643