/*--------------------------------*- C++ -*----------------------------------*\
| =========                 |                                                 |
| \\      /  F ield         | OpenFOAM: The Open Source CFD Toolbox           |
|  \\    /   O peration     | Version:  2412                                  |
|   \\  /    A nd           | Website:  www.openfoam.com                      |
|    \\/     M anipulation  |                                                 |
\*---------------------------------------------------------------------------*/
FoamFile
{
    version     2.0;
    format      ascii;
    arch        "LSB;label=32;scalar=64";
    class       volVectorField;
    location    "9";
    object      U;
}
// * * * * * * * * * * * * * * * * * * * * * * * * * * * * * * * * * * * * * //

dimensions      [0 1 -1 0 0 0 0];

internalField   nonuniform List<vector> 
20000
(
(-31766.4 -19012.5 0)
(1535.07 -3425.43 0)
(-5398.92 -2619.34 0)
(-3518.41 -1689.11 0)
(-2813.16 -1098.91 0)
(-2296.78 -729.551 0)
(-1963.3 -494.465 0)
(-1733.13 -341.064 0)
(-1570.2 -239.855 0)
(-1452.24 -172.913 0)
(-1363.85 -128.612 0)
(-1295.06 -99.3056 0)
(-1239.21 -79.9365 0)
(-1191.88 -67.1486 0)
(-1150.14 -58.7092 0)
(-1112.06 -53.1289 0)
(-1076.4 -49.4119 0)
(-1042.35 -46.8924 0)
(-1009.43 -45.1256 0)
(-977.341 -43.8162 0)
(-945.922 -42.7699 0)
(-915.099 -41.861 0)
(-884.847 -41.0103 0)
(-855.173 -40.1697 0)
(-826.101 -39.3121 0)
(-797.66 -38.4245 0)
(-769.879 -37.5025 0)
(-742.786 -36.5477 0)
(-716.403 -35.5645 0)
(-690.748 -34.5595 0)
(-665.834 -33.5394 0)
(-641.669 -32.5107 0)
(-618.256 -31.4793 0)
(-595.594 -30.45 0)
(-573.675 -29.4264 0)
(-552.484 -28.4117 0)
(-532.002 -27.4085 0)
(-512.204 -26.4193 0)
(-493.064 -25.4472 0)
(-474.556 -24.496 0)
(-456.659 -23.5698 0)
(-439.358 -22.6739 0)
(-422.648 -21.8136 0)
(-406.534 -20.9944 0)
(-391.03 -20.2212 0)
(-376.157 -19.4977 0)
(-361.937 -18.8255 0)
(-348.388 -18.2036 0)
(-335.52 -17.6277 0)
(-323.323 -17.0898 0)
(-311.769 -16.5788 0)
(-300.807 -16.0816 0)
(-290.364 -15.5851 0)
(-280.355 -15.0777 0)
(-270.688 -14.5513 0)
(-261.276 -14.001 0)
(-252.046 -13.4251 0)
(-242.942 -12.8243 0)
(-233.931 -12.202 0)
(-224.996 -11.565 0)
(-216.13 -10.9236 0)
(-207.337 -10.2928 0)
(-198.644 -9.6928 0)
(-190.119 -9.14505 0)
(-181.879 -8.66463 0)
(-174.049 -8.25413 0)
(-166.725 -7.90416 0)
(-159.948 -7.59668 0)
(-153.693 -7.31027 0)
(-147.877 -7.02762 0)
(-142.389 -6.74138 0)
(-137.143 -6.4539 0)
(-132.1 -6.17368 0)
(-127.277 -5.90953 0)
(-122.7 -5.66712 0)
(-118.382 -5.4521 0)
(-114.332 -5.2694 0)
(-110.57 -5.12165 0)
(-107.119 -5.00928 0)
(-103.999 -4.93418 0)
(-101.216 -4.90122 0)
(-98.7592 -4.91671 0)
(-96.6228 -4.98664 0)
(-94.811 -5.11046 0)
(-93.3142 -5.2741 0)
(-92.0711 -5.43934 0)
(-90.9156 -5.5432 0)
(-89.5166 -5.51114 0)
(-87.4107 -5.28912 0)
(-84.2115 -4.87489 0)
(-79.8428 -4.31483 0)
(-74.5457 -3.66465 0)
(-68.6981 -2.97178 0)
(-62.6496 -2.27673 0)
(-56.585 -1.57797 0)
(-50.7746 -0.919752 0)
(-45.5278 -0.384617 0)
(-40.7152 0.111993 0)
(-36.2107 0.55942 0)
(-32.141 0.747301 0)
(2149.67 3793.86 0)
(1012.75 -2418.52 0)
(-719.679 -3672.28 0)
(-904.437 -2365.31 0)
(-1101.73 -1524.99 0)
(-1130.37 -1022.24 0)
(-1179.27 -717.153 0)
(-1209.84 -518.662 0)
(-1218.86 -386.476 0)
(-1215.64 -297.41 0)
(-1203.82 -237.238 0)
(-1186.18 -196.698 0)
(-1164.52 -169.547 0)
(-1140.02 -151.497 0)
(-1113.48 -139.575 0)
(-1085.48 -131.716 0)
(-1056.44 -126.488 0)
(-1026.69 -122.906 0)
(-996.515 -120.297 0)
(-966.125 -118.212 0)
(-935.714 -116.357 0)
(-905.445 -114.547 0)
(-875.455 -112.671 0)
(-845.859 -110.668 0)
(-816.754 -108.513 0)
(-788.219 -106.203 0)
(-760.316 -103.746 0)
(-733.095 -101.164 0)
(-706.593 -98.4767 0)
(-680.835 -95.7104 0)
(-655.84 -92.8885 0)
(-631.616 -90.0332 0)
(-608.165 -87.164 0)
(-585.485 -84.2975 0)
(-563.566 -81.4472 0)
(-542.391 -78.6239 0)
(-521.942 -75.837 0)
(-502.194 -73.0948 0)
(-483.121 -70.4057 0)
(-464.701 -67.7788 0)
(-446.911 -65.2242 0)
(-429.738 -62.7529 0)
(-413.173 -60.3766 0)
(-397.219 -58.1063 0)
(-381.883 -55.9517 0)
(-367.178 -53.9191 0)
(-353.115 -52.0104 0)
(-339.699 -50.2209 0)
(-326.926 -48.5387 0)
(-314.777 -46.9443 0)
(-303.218 -45.4119 0)
(-292.201 -43.9123 0)
(-281.666 -42.4162 0)
(-271.55 -40.8989 0)
(-261.787 -39.3425 0)
(-252.311 -37.7372 0)
(-243.071 -36.0813 0)
(-234.026 -34.381 0)
(-225.156 -32.6498 0)
(-216.459 -30.9074 0)
(-207.941 -29.1795 0)
(-199.617 -27.4985 0)
(-191.515 -25.9035 0)
(-183.677 -24.4344 0)
(-176.155 -23.1191 0)
(-168.999 -21.9648 0)
(-162.243 -20.9564 0)
(-155.891 -20.0627 0)
(-149.915 -19.2452 0)
(-144.267 -18.4717 0)
(-138.889 -17.7265 0)
(-133.739 -17.0132 0)
(-128.802 -16.3492 0)
(-124.094 -15.753 0)
(-119.639 -15.2363 0)
(-115.455 -14.8086 0)
(-111.549 -14.4801 0)
(-107.932 -14.2588 0)
(-104.631 -14.1475 0)
(-101.684 -14.1437 0)
(-99.113 -14.2407 0)
(-96.9186 -14.4298 0)
(-95.0827 -14.696 0)
(-93.564 -15.0067 0)
(-92.263 -15.304 0)
(-90.9983 -15.499 0)
(-89.5113 -15.4751 0)
(-87.4833 -15.1168 0)
(-84.6113 -14.3579 0)
(-80.7379 -13.2135 0)
(-75.9166 -11.7754 0)
(-70.3847 -10.1368 0)
(-64.4816 -8.41653 0)
(-58.4304 -6.65597 0)
(-52.4225 -4.88658 0)
(-46.8658 -3.29691 0)
(-41.7348 -1.89441 0)
(-36.8432 -0.577665 0)
(-32.5653 0.502897 0)
(-28.7127 0.978876 0)
(456.922 -1529.98 0)
(836.746 -1941.44 0)
(807.27 -1823.7 0)
(193.182 -1399.06 0)
(-459.952 -848.88 0)
(-657.007 -512.542 0)
(-825.948 -377.115 0)
(-954.131 -305.601 0)
(-1033.4 -262.067 0)
(-1081.37 -234.262 0)
(-1107.06 -216.709 0)
(-1116.6 -206.151 0)
(-1114.33 -200.323 0)
(-1103.4 -197.539 0)
(-1086.14 -196.559 0)
(-1064.31 -196.497 0)
(-1039.2 -196.737 0)
(-1011.82 -196.87 0)
(-982.929 -196.637 0)
(-953.109 -195.894 0)
(-922.807 -194.573 0)
(-892.366 -192.663 0)
(-862.051 -190.188 0)
(-832.064 -187.195 0)
(-802.559 -183.743 0)
(-773.651 -179.897 0)
(-745.426 -175.723 0)
(-717.944 -171.287 0)
(-691.25 -166.648 0)
(-665.368 -161.861 0)
(-640.315 -156.976 0)
(-616.094 -152.037 0)
(-592.702 -147.079 0)
(-570.128 -142.135 0)
(-548.356 -137.23 0)
(-527.366 -132.385 0)
(-507.135 -127.618 0)
(-487.638 -122.945 0)
(-468.851 -118.38 0)
(-450.749 -113.935 0)
(-433.314 -109.625 0)
(-416.531 -105.463 0)
(-400.39 -101.46 0)
(-384.887 -97.6274 0)
(-370.021 -93.9736 0)
(-355.79 -90.5013 0)
(-342.188 -87.2076 0)
(-329.202 -84.0826 0)
(-316.806 -81.1089 0)
(-304.966 -78.2629 0)
(-293.635 -75.5167 0)
(-282.767 -72.8408 0)
(-272.312 -70.2075 0)
(-262.223 -67.5934 0)
(-252.458 -64.981 0)
(-242.98 -62.3606 0)
(-233.762 -59.731 0)
(-224.791 -57.1006 0)
(-216.068 -54.4856 0)
(-207.604 -51.9078 0)
(-199.414 -49.3924 0)
(-191.522 -46.9664 0)
(-183.951 -44.6571 0)
(-176.72 -42.4877 0)
(-169.836 -40.4731 0)
(-163.296 -38.6167 0)
(-157.082 -36.9103 0)
(-151.163 -35.3373 0)
(-145.505 -33.8795 0)
(-140.078 -32.5229 0)
(-134.862 -31.2629 0)
(-129.857 -30.1066 0)
(-125.073 -29.0684 0)
(-120.525 -28.1634 0)
(-116.233 -27.4027 0)
(-112.225 -26.7926 0)
(-108.527 -26.3372 0)
(-105.158 -26.038 0)
(-102.133 -25.8908 0)
(-99.4671 -25.879 0)
(-97.1601 -25.9677 0)
(-95.1873 -26.1063 0)
(-93.482 -26.2288 0)
(-91.9346 -26.2479 0)
(-90.3877 -26.0589 0)
(-88.6278 -25.5578 0)
(-86.4174 -24.6574 0)
(-83.5424 -23.3051 0)
(-79.8465 -21.5143 0)
(-75.313 -19.342 0)
(-70.0451 -16.8918 0)
(-64.3387 -14.2986 0)
(-58.4544 -11.6189 0)
(-52.5409 -8.98348 0)
(-47.0781 -6.56583 0)
(-42.1852 -4.35308 0)
(-37.6709 -2.29109 0)
(-33.7901 -0.467899 0)
(-30.8005 0.832936 0)
(-28.2923 1.5079 0)
(-709.68 -1643.8 0)
(422.329 -1286.87 0)
(509.611 -886.386 0)
(-434.195 71.075 0)
(-789.174 354.585 0)
(-808.356 168.741 0)
(-914.316 47.2441 0)
(-1001.18 -28.8537 0)
(-1060.82 -82.2337 0)
(-1099.51 -123.071 0)
(-1119.73 -157.191 0)
(-1125.69 -185.532 0)
(-1120.61 -208.806 0)
(-1107.03 -227.622 0)
(-1087.11 -242.492 0)
(-1062.58 -253.874 0)
(-1034.81 -262.184 0)
(-1004.87 -267.805 0)
(-973.582 -271.088 0)
(-941.578 -272.355 0)
(-909.329 -271.9 0)
(-877.192 -269.989 0)
(-845.434 -266.858 0)
(-814.247 -262.72 0)
(-783.772 -257.763 0)
(-754.105 -252.152 0)
(-725.312 -246.03 0)
(-697.434 -239.522 0)
(-670.493 -232.734 0)
(-644.496 -225.757 0)
(-619.441 -218.666 0)
(-595.317 -211.528 0)
(-572.104 -204.395 0)
(-549.78 -197.311 0)
(-528.318 -190.312 0)
(-507.689 -183.429 0)
(-487.863 -176.685 0)
(-468.81 -170.101 0)
(-450.502 -163.694 0)
(-432.912 -157.478 0)
(-416.019 -151.467 0)
(-399.804 -145.67 0)
(-384.251 -140.094 0)
(-369.349 -134.745 0)
(-355.082 -129.621 0)
(-341.436 -124.716 0)
(-328.39 -120.019 0)
(-315.914 -115.514 0)
(-303.973 -111.179 0)
(-292.525 -106.993 0)
(-281.527 -102.934 0)
(-270.937 -98.982 0)
(-260.717 -95.1233 0)
(-250.836 -91.3467 0)
(-241.266 -87.6472 0)
(-231.987 -84.0253 0)
(-222.992 -80.4886 0)
(-214.287 -77.0494 0)
(-205.881 -73.723 0)
(-197.788 -70.5249 0)
(-190.021 -67.4687 0)
(-182.59 -64.565 0)
(-175.5 -61.8191 0)
(-168.749 -59.2305 0)
(-162.326 -56.7937 0)
(-156.211 -54.5008 0)
(-150.379 -52.3437 0)
(-144.803 -50.3175 0)
(-139.457 -48.4223 0)
(-134.325 -46.665 0)
(-129.406 -45.0579 0)
(-124.706 -43.6157 0)
(-120.241 -42.3518 0)
(-116.028 -41.2767 0)
(-112.083 -40.3955 0)
(-108.422 -39.7051 0)
(-105.06 -39.1928 0)
(-102.005 -38.8335 0)
(-99.2576 -38.5892 0)
(-96.7934 -38.409 0)
(-94.5651 -38.2228 0)
(-92.5048 -37.9412 0)
(-90.5105 -37.4657 0)
(-88.4452 -36.6976 0)
(-86.1649 -35.5431 0)
(-83.5234 -33.9332 0)
(-80.3719 -31.8431 0)
(-76.6175 -29.2846 0)
(-72.2039 -26.3233 0)
(-67.1679 -23.0809 0)
(-61.7437 -19.6609 0)
(-56.0679 -16.2303 0)
(-50.4144 -12.9427 0)
(-45.2903 -9.85249 0)
(-40.6588 -7.03934 0)
(-36.3522 -4.57814 0)
(-32.7123 -2.50617 0)
(-29.8728 -0.968464 0)
(-27.4955 0.134323 0)
(-25.6425 0.537246 0)
(-1814.48 -2233.75 0)
(232.406 -1033.34 0)
(-583.112 868.91 0)
(-944.118 732.422 0)
(-1013.37 561.234 0)
(-1086.64 383.491 0)
(-1149.99 235.346 0)
(-1190.74 112.227 0)
(-1213.15 9.27669 0)
(-1220.31 -76.1277 0)
(-1214.51 -146.159 0)
(-1197.66 -202.97 0)
(-1173.47 -248.186 0)
(-1144.08 -283.405 0)
(-1111.08 -310.153 0)
(-1075.75 -329.796 0)
(-1039.09 -343.527 0)
(-1001.85 -352.371 0)
(-964.604 -357.197 0)
(-927.761 -358.741 0)
(-891.625 -357.62 0)
(-856.404 -354.352 0)
(-822.238 -349.37 0)
(-789.216 -343.038 0)
(-757.386 -335.657 0)
(-726.767 -327.479 0)
(-697.357 -318.713 0)
(-669.14 -309.534 0)
(-642.089 -300.083 0)
(-616.171 -290.478 0)
(-591.347 -280.816 0)
(-567.578 -271.173 0)
(-544.821 -261.613 0)
(-523.033 -252.186 0)
(-502.172 -242.932 0)
(-482.195 -233.882 0)
(-463.062 -225.062 0)
(-444.735 -216.491 0)
(-427.179 -208.184 0)
(-410.361 -200.153 0)
(-394.251 -192.405 0)
(-378.823 -184.944 0)
(-364.052 -177.77 0)
(-349.915 -170.878 0)
(-336.386 -164.26 0)
(-323.439 -157.903 0)
(-311.042 -151.789 0)
(-299.161 -145.9 0)
(-287.761 -140.215 0)
(-276.804 -134.718 0)
(-266.258 -129.394 0)
(-256.092 -124.233 0)
(-246.28 -119.23 0)
(-236.799 -114.383 0)
(-227.636 -109.695 0)
(-218.784 -105.176 0)
(-210.243 -100.835 0)
(-202.019 -96.6846 0)
(-194.116 -92.7318 0)
(-186.537 -88.9824 0)
(-179.281 -85.4373 0)
(-172.345 -82.0936 0)
(-165.721 -78.9444 0)
(-159.395 -75.9804 0)
(-153.352 -73.1911 0)
(-147.575 -70.5679 0)
(-142.05 -68.1051 0)
(-136.763 -65.8019 0)
(-131.706 -63.662 0)
(-126.876 -61.693 0)
(-122.278 -59.9038 0)
(-117.916 -58.3007 0)
(-113.798 -56.8846 0)
(-109.931 -55.6503 0)
(-106.316 -54.5826 0)
(-102.955 -53.6551 0)
(-99.8406 -52.8321 0)
(-96.9485 -52.0633 0)
(-94.2515 -51.2816 0)
(-91.7034 -50.4107 0)
(-89.2236 -49.3669 0)
(-86.7255 -48.0599 0)
(-84.1241 -46.4066 0)
(-81.3169 -44.3444 0)
(-78.2077 -41.8356 0)
(-74.739 -38.8709 0)
(-70.8528 -35.4911 0)
(-66.5233 -31.7786 0)
(-61.8352 -27.8231 0)
(-56.8374 -23.7805 0)
(-51.6686 -19.816 0)
(-46.6989 -16.0145 0)
(-42.0823 -12.5546 0)
(-37.7441 -9.58211 0)
(-34.122 -6.95963 0)
(-31.2821 -4.62856 0)
(-28.5559 -2.96506 0)
(-26.4151 -2.34046 0)
(-25.2291 -2.93795 0)
(-25.6244 -4.60551 0)
(-2794.95 -2584.73 0)
(323.348 1903.54 0)
(-1070.99 1434.59 0)
(-1288.13 1154.95 0)
(-1372.73 869.638 0)
(-1435.95 601.872 0)
(-1457.61 370.415 0)
(-1452.03 178.661 0)
(-1428.77 22.0687 0)
(-1394.08 -106.011 0)
(-1348.17 -205.809 0)
(-1298.51 -282.7 0)
(-1246.63 -340.967 0)
(-1193.97 -384.145 0)
(-1141.71 -415.16 0)
(-1090.64 -436.407 0)
(-1041.24 -449.839 0)
(-993.801 -457.047 0)
(-948.481 -459.322 0)
(-905.334 -457.714 0)
(-864.351 -453.071 0)
(-825.478 -446.078 0)
(-788.636 -437.289 0)
(-753.732 -427.151 0)
(-720.663 -416.025 0)
(-689.325 -404.203 0)
(-659.612 -391.92 0)
(-631.423 -379.364 0)
(-604.662 -366.685 0)
(-579.238 -354.005 0)
(-555.068 -341.418 0)
(-532.074 -329 0)
(-510.182 -316.809 0)
(-489.326 -304.89 0)
(-469.444 -293.275 0)
(-450.479 -281.991 0)
(-432.377 -271.053 0)
(-415.092 -260.474 0)
(-398.579 -250.26 0)
(-382.797 -240.414 0)
(-367.709 -230.937 0)
(-353.278 -221.822 0)
(-339.473 -213.064 0)
(-326.262 -204.65 0)
(-313.613 -196.567 0)
(-301.494 -188.799 0)
(-289.872 -181.329 0)
(-278.715 -174.139 0)
(-267.993 -167.215 0)
(-257.679 -160.544 0)
(-247.748 -154.116 0)
(-238.178 -147.925 0)
(-228.954 -141.969 0)
(-220.063 -136.248 0)
(-211.497 -130.766 0)
(-203.254 -125.528 0)
(-195.33 -120.537 0)
(-187.722 -115.795 0)
(-180.423 -111.302 0)
(-173.427 -107.052 0)
(-166.725 -103.039 0)
(-160.305 -99.2553 0)
(-154.156 -95.6907 0)
(-148.265 -92.3365 0)
(-142.621 -89.1852 0)
(-137.213 -86.2311 0)
(-132.036 -83.4703 0)
(-127.082 -80.9014 0)
(-122.349 -78.5227 0)
(-117.837 -76.3306 0)
(-113.544 -74.3185 0)
(-109.467 -72.4744 0)
(-105.604 -70.7781 0)
(-101.949 -69.2028 0)
(-98.4817 -67.7119 0)
(-95.1888 -66.2579 0)
(-92.0503 -64.7862 0)
(-89.0187 -63.2335 0)
(-86.0472 -61.5285 0)
(-83.0907 -59.6004 0)
(-80.0782 -57.3842 0)
(-76.9424 -54.8259 0)
(-73.6426 -51.8914 0)
(-70.1383 -48.5726 0)
(-66.3841 -44.8922 0)
(-62.3924 -40.9023 0)
(-58.2177 -36.6854 0)
(-53.8543 -32.378 0)
(-49.3686 -28.1151 0)
(-44.962 -24.0333 0)
(-40.7617 -20.34 0)
(-36.8119 -17.1381 0)
(-33.5066 -14.3274 0)
(-30.5604 -11.8326 0)
(-27.7826 -10.0506 0)
(-25.3862 -9.6001 0)
(-24.7833 -10.6165 0)
(-24.8298 -11.7771 0)
(-25.6973 -13.5186 0)
(-25.6461 -13.9392 0)
(-3672.9 -2572.42 0)
(-206.404 2747.21 0)
(-1865.97 1797.35 0)
(-2008.04 1263.62 0)
(-2092.45 830.191 0)
(-2072.9 497.615 0)
(-1985.02 235.82 0)
(-1870.01 19.7803 0)
(-1745.77 -156.3 0)
(-1622.4 -288.587 0)
(-1511.97 -388.483 0)
(-1411.36 -462.047 0)
(-1319.31 -514.398 0)
(-1235.36 -549.953 0)
(-1158.84 -572.375 0)
(-1089.05 -584.613 0)
(-1025.33 -589.009 0)
(-967.049 -587.412 0)
(-913.635 -581.28 0)
(-864.569 -571.756 0)
(-819.384 -559.738 0)
(-777.66 -545.918 0)
(-739.027 -530.835 0)
(-703.158 -514.908 0)
(-669.767 -498.464 0)
(-638.604 -481.758 0)
(-609.445 -464.986 0)
(-582.098 -448.3 0)
(-556.392 -431.816 0)
(-532.179 -415.621 0)
(-509.328 -399.784 0)
(-487.725 -384.353 0)
(-467.27 -369.363 0)
(-447.872 -354.841 0)
(-429.452 -340.801 0)
(-411.939 -327.251 0)
(-395.271 -314.192 0)
(-379.391 -301.623 0)
(-364.249 -289.537 0)
(-349.797 -277.925 0)
(-335.993 -266.777 0)
(-322.797 -256.079 0)
(-310.173 -245.816 0)
(-298.088 -235.975 0)
(-286.507 -226.537 0)
(-275.403 -217.488 0)
(-264.744 -208.81 0)
(-254.503 -200.49 0)
(-244.655 -192.512 0)
(-235.18 -184.867 0)
(-226.06 -177.544 0)
(-217.279 -170.535 0)
(-208.826 -163.836 0)
(-200.692 -157.441 0)
(-192.867 -151.349 0)
(-185.345 -145.552 0)
(-178.117 -140.047 0)
(-171.173 -134.825 0)
(-164.503 -129.878 0)
(-158.098 -125.196 0)
(-151.946 -120.768 0)
(-146.037 -116.586 0)
(-140.361 -112.638 0)
(-134.908 -108.914 0)
(-129.671 -105.406 0)
(-124.643 -102.104 0)
(-119.817 -98.9985 0)
(-115.189 -96.0805 0)
(-110.749 -93.3374 0)
(-106.493 -90.7517 0)
(-102.411 -88.3008 0)
(-98.4851 -85.9572 0)
(-94.7075 -83.6873 0)
(-91.066 -81.4499 0)
(-87.5245 -79.1981 0)
(-84.0581 -76.8826 0)
(-80.6501 -74.4536 0)
(-77.2563 -71.8578 0)
(-73.8364 -69.0463 0)
(-70.3692 -65.9891 0)
(-66.823 -62.667 0)
(-63.1736 -59.0727 0)
(-59.4211 -55.2324 0)
(-55.5815 -51.2027 0)
(-51.6692 -47.0394 0)
(-47.6991 -42.8089 0)
(-43.7558 -38.6434 0)
(-39.9117 -34.7028 0)
(-36.2151 -31.0717 0)
(-32.7503 -27.7841 0)
(-29.5744 -24.877 0)
(-26.6234 -22.4658 0)
(-23.9286 -20.8854 0)
(-21.7998 -20.772 0)
(-20.3827 -21.4303 0)
(-19.5243 -22.2349 0)
(-17.5322 -22.0424 0)
(-13.3085 -20.5194 0)
(-8.66805 -19.2752 0)
(-4.77482 -18.3631 0)
(-8940.98 -5313.63 0)
(-1125.05 7160.19 0)
(-3537.45 4083.23 0)
(-3130.17 2609.44 0)
(-2924.75 1483.85 0)
(-2670.91 651.41 0)
(-2425.22 55.5481 0)
(-2178.59 -297.066 0)
(-1961.55 -506.596 0)
(-1772.1 -635.498 0)
(-1605.84 -713.632 0)
(-1460.63 -758.62 0)
(-1334.08 -781.42 0)
(-1223.81 -788.877 0)
(-1127.57 -785.723 0)
(-1043.35 -775.228 0)
(-969.331 -759.676 0)
(-903.976 -740.689 0)
(-845.971 -719.444 0)
(-794.21 -696.803 0)
(-747.76 -673.402 0)
(-705.836 -649.693 0)
(-667.786 -625.986 0)
(-633.068 -602.51 0)
(-601.231 -579.432 0)
(-571.901 -556.87 0)
(-544.762 -534.907 0)
(-519.548 -513.596 0)
(-496.038 -492.973 0)
(-474.043 -473.055 0)
(-453.403 -453.852 0)
(-433.984 -435.364 0)
(-415.668 -417.585 0)
(-398.356 -400.509 0)
(-381.957 -384.122 0)
(-366.397 -368.409 0)
(-351.609 -353.352 0)
(-337.534 -338.929 0)
(-324.119 -325.119 0)
(-311.317 -311.9 0)
(-299.085 -299.247 0)
(-287.385 -287.14 0)
(-276.184 -275.557 0)
(-265.451 -264.478 0)
(-255.158 -253.883 0)
(-245.278 -243.755 0)
(-235.787 -234.075 0)
(-226.661 -224.827 0)
(-217.881 -215.996 0)
(-209.429 -207.566 0)
(-201.29 -199.524 0)
(-193.452 -191.857 0)
(-185.903 -184.553 0)
(-178.633 -177.599 0)
(-171.631 -170.985 0)
(-164.89 -164.699 0)
(-158.4 -158.729 0)
(-152.15 -153.063 0)
(-146.131 -147.687 0)
(-140.333 -142.59 0)
(-134.747 -137.757 0)
(-129.361 -133.177 0)
(-124.166 -128.835 0)
(-119.154 -124.715 0)
(-114.315 -120.802 0)
(-109.641 -117.079 0)
(-105.125 -113.525 0)
(-100.756 -110.122 0)
(-96.5214 -106.849 0)
(-92.4134 -103.681 0)
(-88.4152 -100.585 0)
(-84.5009 -97.5298 0)
(-80.6629 -94.4837 0)
(-76.8938 -91.407 0)
(-73.1584 -88.2594 0)
(-69.4364 -85.0133 0)
(-65.7293 -81.6521 0)
(-62.0183 -78.1521 0)
(-58.2932 -74.4929 0)
(-54.5624 -70.6991 0)
(-50.8182 -66.8041 0)
(-47.0801 -62.8128 0)
(-43.4 -58.7793 0)
(-39.785 -54.83 0)
(-36.2197 -51.0356 0)
(-32.7765 -47.3504 0)
(-29.5567 -43.8576 0)
(-26.541 -40.7976 0)
(-23.5868 -38.0776 0)
(-20.7192 -35.653 0)
(-18.0271 -33.9699 0)
(-15.824 -33.2879 0)
(-13.9443 -32.998 0)
(-11.0975 -31.9039 0)
(-7.5212 -29.9503 0)
(-3.63284 -28.0721 0)
(0.0585506 -26.5008 0)
(3.49893 -25.2175 0)
(6.67289 -24.1485 0)
(9.28029 -23.2384 0)
(-43160.5 12203.7 0)
(-821.639 1566.39 0)
(-9386.25 -306.154 0)
(-6255.97 -1164.38 0)
(-4957.89 -1509.44 0)
(-3887.57 -1542.69 0)
(-3116.95 -1484.32 0)
(-2563.07 -1428.36 0)
(-2147.87 -1369.91 0)
(-1831.76 -1310.52 0)
(-1586.72 -1251.82 0)
(-1393.8 -1194.87 0)
(-1239.14 -1140.41 0)
(-1113.33 -1087.95 0)
(-1009.42 -1037.68 0)
(-922.528 -989.744 0)
(-848.953 -944.133 0)
(-785.929 -900.782 0)
(-731.379 -859.597 0)
(-683.716 -820.503 0)
(-641.698 -783.444 0)
(-604.33 -748.34 0)
(-570.833 -715.035 0)
(-540.578 -683.411 0)
(-513.067 -653.365 0)
(-487.897 -624.806 0)
(-464.739 -597.647 0)
(-443.319 -571.806 0)
(-423.415 -547.209 0)
(-404.839 -523.784 0)
(-387.438 -501.463 0)
(-371.084 -480.184 0)
(-355.672 -459.894 0)
(-341.108 -440.543 0)
(-327.315 -422.091 0)
(-314.221 -404.496 0)
(-301.768 -387.717 0)
(-289.901 -371.714 0)
(-278.573 -356.449 0)
(-267.742 -341.887 0)
(-257.371 -327.993 0)
(-247.43 -314.735 0)
(-237.891 -302.085 0)
(-228.731 -290.015 0)
(-219.928 -278.501 0)
(-211.463 -267.519 0)
(-203.316 -257.048 0)
(-195.469 -247.065 0)
(-187.906 -237.552 0)
(-180.612 -228.488 0)
(-173.572 -219.857 0)
(-166.775 -211.637 0)
(-160.212 -203.811 0)
(-153.873 -196.362 0)
(-147.747 -189.272 0)
(-141.828 -182.526 0)
(-136.109 -176.108 0)
(-130.581 -170.002 0)
(-125.232 -164.19 0)
(-120.056 -158.656 0)
(-115.044 -153.384 0)
(-110.184 -148.357 0)
(-105.464 -143.558 0)
(-100.877 -138.963 0)
(-96.413 -134.551 0)
(-92.0613 -130.297 0)
(-87.8129 -126.177 0)
(-83.6538 -122.165 0)
(-79.5741 -118.242 0)
(-75.5705 -114.385 0)
(-71.6246 -110.566 0)
(-67.7117 -106.767 0)
(-63.8357 -102.977 0)
(-60.0049 -99.167 0)
(-56.2023 -95.3099 0)
(-52.4251 -91.4072 0)
(-48.6869 -87.4842 0)
(-44.9907 -83.5553 0)
(-41.3705 -79.6037 0)
(-37.8594 -75.684 0)
(-34.4017 -71.8483 0)
(-30.9985 -68.0507 0)
(-27.7942 -64.3419 0)
(-24.8002 -60.9024 0)
(-21.8777 -57.7739 0)
(-18.9279 -54.6343 0)
(-16.0341 -51.5198 0)
(-13.4313 -49.2365 0)
(-10.9943 -47.5876 0)
(-8.28758 -45.6591 0)
(-5.2348 -43.3579 0)
(-2.04619 -40.9902 0)
(1.21408 -38.6755 0)
(4.39212 -36.5701 0)
(7.46201 -34.6864 0)
(10.4007 -33.0046 0)
(13.1985 -31.4779 0)
(15.8508 -30.0806 0)
(18.331 -28.7921 0)
(20.3656 -27.611 0)
(-32291 -10662.4 0)
(3250.82 -6097.98 0)
(-5443.45 -5122.77 0)
(-3733.4 -4732.45 0)
(-2999.59 -4048.17 0)
(-2436.27 -3320.51 0)
(-2004.46 -2813.1 0)
(-1697.86 -2438.34 0)
(-1459.46 -2146.35 0)
(-1273.03 -1914.4 0)
(-1124.46 -1727.47 0)
(-1005.21 -1574.36 0)
(-906.869 -1448.6 0)
(-825.392 -1341.63 0)
(-756.474 -1249.2 0)
(-697.774 -1168.29 0)
(-647.245 -1096.6 0)
(-603.32 -1032.39 0)
(-564.817 -974.298 0)
(-530.836 -921.321 0)
(-500.648 -872.804 0)
(-473.597 -828.257 0)
(-449.217 -787.052 0)
(-427.07 -748.764 0)
(-406.822 -713.055 0)
(-388.205 -679.649 0)
(-370.995 -648.316 0)
(-355.002 -618.86 0)
(-340.066 -591.113 0)
(-326.053 -564.929 0)
(-312.855 -540.175 0)
(-300.382 -516.736 0)
(-288.564 -494.51 0)
(-277.341 -473.416 0)
(-266.661 -453.388 0)
(-256.478 -434.365 0)
(-246.748 -416.286 0)
(-237.433 -399.095 0)
(-228.497 -382.739 0)
(-219.908 -367.173 0)
(-211.642 -352.354 0)
(-203.678 -338.241 0)
(-195.997 -324.797 0)
(-188.585 -311.99 0)
(-181.427 -299.787 0)
(-174.512 -288.16 0)
(-167.829 -277.082 0)
(-161.368 -266.526 0)
(-155.117 -256.468 0)
(-149.065 -246.884 0)
(-143.199 -237.753 0)
(-137.509 -229.052 0)
(-131.99 -220.759 0)
(-126.632 -212.852 0)
(-121.424 -205.313 0)
(-116.362 -198.122 0)
(-111.443 -191.26 0)
(-106.66 -184.704 0)
(-102.002 -178.435 0)
(-97.4607 -172.434 0)
(-93.0333 -166.681 0)
(-88.7093 -161.162 0)
(-84.4756 -155.86 0)
(-80.3222 -150.752 0)
(-76.244 -145.809 0)
(-72.2387 -141.01 0)
(-68.292 -136.333 0)
(-64.3899 -131.744 0)
(-60.5372 -127.236 0)
(-56.7382 -122.801 0)
(-52.9839 -118.415 0)
(-49.2681 -114.093 0)
(-45.6025 -109.863 0)
(-41.9972 -105.687 0)
(-38.4601 -101.545 0)
(-35.0069 -97.4385 0)
(-31.6347 -93.3813 0)
(-28.3377 -89.4383 0)
(-25.1827 -85.5994 0)
(-22.2152 -81.9284 0)
(-19.303 -78.3841 0)
(-16.3634 -74.7096 0)
(-13.5145 -71.0733 0)
(-10.8613 -67.9555 0)
(-8.32018 -65.3237 0)
(-5.51349 -62.38 0)
(-2.6899 -59.3492 0)
(0.164718 -56.4023 0)
(3.04504 -53.5192 0)
(5.91606 -50.7762 0)
(8.75639 -48.1948 0)
(11.5381 -45.7879 0)
(14.2435 -43.5471 0)
(16.861 -41.4547 0)
(19.3798 -39.4989 0)
(21.7917 -37.6672 0)
(24.0909 -35.9483 0)
(26.2765 -34.3311 0)
(28.3251 -32.8051 0)
(29.9873 -31.3732 0)
(4187.05 2109.25 0)
(3962.16 -1256.48 0)
(2032.34 -3462.74 0)
(843.136 -4439.17 0)
(287.428 -4287.67 0)
(-146.562 -3524.22 0)
(-319.367 -3006.74 0)
(-424.664 -2630.71 0)
(-472.319 -2328.33 0)
(-489.077 -2081.54 0)
(-488.581 -1878.92 0)
(-481.502 -1708.87 0)
(-467.162 -1570.7 0)
(-451.61 -1451.84 0)
(-434.277 -1348.38 0)
(-416.613 -1257.45 0)
(-399.225 -1176.85 0)
(-382.421 -1104.81 0)
(-366.369 -1039.84 0)
(-351.223 -980.722 0)
(-337.044 -926.768 0)
(-323.662 -877.676 0)
(-311.161 -832.533 0)
(-299.394 -790.822 0)
(-288.283 -752.132 0)
(-277.768 -716.123 0)
(-267.795 -682.507 0)
(-258.309 -651.043 0)
(-249.257 -621.525 0)
(-240.588 -593.773 0)
(-232.26 -567.63 0)
(-224.237 -542.948 0)
(-216.498 -519.594 0)
(-209.028 -497.47 0)
(-201.81 -476.508 0)
(-194.834 -456.636 0)
(-188.082 -437.785 0)
(-181.54 -419.88 0)
(-175.191 -402.861 0)
(-169.022 -386.676 0)
(-163.021 -371.277 0)
(-157.176 -356.62 0)
(-151.48 -342.664 0)
(-145.928 -329.371 0)
(-140.514 -316.705 0)
(-135.234 -304.634 0)
(-130.087 -293.125 0)
(-125.072 -282.15 0)
(-120.187 -271.681 0)
(-115.423 -261.692 0)
(-110.773 -252.158 0)
(-106.23 -243.057 0)
(-101.794 -234.365 0)
(-97.4578 -226.06 0)
(-93.2095 -218.121 0)
(-89.0418 -210.532 0)
(-84.9574 -203.268 0)
(-80.9567 -196.301 0)
(-77.0294 -189.612 0)
(-73.1653 -183.18 0)
(-69.3657 -176.981 0)
(-65.6334 -171.01 0)
(-61.9521 -165.266 0)
(-58.3093 -159.727 0)
(-54.714 -154.371 0)
(-51.1742 -149.181 0)
(-47.6733 -144.143 0)
(-44.209 -139.216 0)
(-40.8022 -134.399 0)
(-37.446 -129.674 0)
(-34.1429 -125.011 0)
(-30.917 -120.475 0)
(-27.7689 -116.135 0)
(-24.6921 -111.915 0)
(-21.7239 -107.805 0)
(-18.8435 -103.749 0)
(-16.0034 -99.6044 0)
(-13.2134 -95.5096 0)
(-10.4934 -91.6039 0)
(-7.9196 -88.0782 0)
(-5.31715 -84.648 0)
(-2.59965 -80.9632 0)
(0.0529348 -77.3961 0)
(2.70904 -73.9197 0)
(5.3598 -70.542 0)
(8.00501 -67.2778 0)
(10.6325 -64.14 0)
(13.2242 -61.1362 0)
(15.7718 -58.2684 0)
(18.269 -55.5347 0)
(20.7078 -52.9337 0)
(23.0798 -50.4619 0)
(25.3773 -48.1136 0)
(27.594 -45.8831 0)
(29.7243 -43.7639 0)
(31.7644 -41.7494 0)
(33.7112 -39.8328 0)
(35.5653 -38.0072 0)
(37.3036 -36.2659 0)
(38.6936 -34.6135 0)
(2736.94 -780.787 0)
(3066.35 -1714.11 0)
(2630.24 -2145.72 0)
(2048.92 -2335.05 0)
(1496.98 -2407.95 0)
(1042.06 -2394.81 0)
(714.606 -2315.76 0)
(469.185 -2189.97 0)
(284.933 -2043.35 0)
(151.273 -1896.89 0)
(56.3901 -1761.63 0)
(-15.0089 -1631.27 0)
(-60.3189 -1523.98 0)
(-94.4439 -1425.97 0)
(-118.746 -1336.46 0)
(-136.063 -1254.91 0)
(-148.301 -1180.64 0)
(-156.748 -1112.89 0)
(-162.309 -1050.88 0)
(-165.805 -993.546 0)
(-167.809 -940.501 0)
(-168.35 -892.198 0)
(-168.067 -847.527 0)
(-167.052 -806.061 0)
(-165.447 -767.46 0)
(-163.379 -731.433 0)
(-160.954 -697.729 0)
(-158.256 -666.127 0)
(-155.342 -636.439 0)
(-152.253 -608.501 0)
(-149.016 -582.166 0)
(-145.65 -557.289 0)
(-142.181 -533.717 0)
(-138.635 -511.35 0)
(-135.026 -490.158 0)
(-131.378 -470.07 0)
(-127.7 -451.017 0)
(-124.01 -432.916 0)
(-120.316 -415.7 0)
(-116.625 -399.314 0)
(-112.942 -383.711 0)
(-109.27 -368.845 0)
(-105.612 -354.676 0)
(-101.968 -341.167 0)
(-98.3406 -328.282 0)
(-94.7342 -315.988 0)
(-91.1553 -304.251 0)
(-87.6149 -293.043 0)
(-84.1189 -282.334 0)
(-80.6677 -272.096 0)
(-77.2571 -262.304 0)
(-73.8883 -252.94 0)
(-70.5668 -243.98 0)
(-67.2893 -235.403 0)
(-64.0457 -227.187 0)
(-60.8262 -219.327 0)
(-57.6348 -211.797 0)
(-54.4782 -204.563 0)
(-51.3542 -197.607 0)
(-48.2557 -190.909 0)
(-45.1846 -184.427 0)
(-42.1507 -178.17 0)
(-39.1452 -172.16 0)
(-36.1701 -166.386 0)
(-33.2294 -160.831 0)
(-30.3247 -155.478 0)
(-27.4588 -150.336 0)
(-24.6472 -145.341 0)
(-21.8996 -140.484 0)
(-19.1898 -135.694 0)
(-16.5395 -130.871 0)
(-13.947 -126.147 0)
(-11.3963 -121.648 0)
(-8.87519 -117.299 0)
(-6.42599 -113.172 0)
(-3.97402 -109.118 0)
(-1.48031 -104.94 0)
(0.969796 -100.854 0)
(3.40777 -96.875 0)
(5.8436 -93.0046 0)
(8.2816 -89.2221 0)
(10.7175 -85.5369 0)
(13.1409 -81.9553 0)
(15.5424 -78.4788 0)
(17.9181 -75.1093 0)
(20.263 -71.8491 0)
(22.571 -68.7015 0)
(24.8358 -65.6666 0)
(27.0514 -62.7439 0)
(29.2128 -59.9326 0)
(31.3154 -57.2314 0)
(33.3546 -54.6384 0)
(35.3266 -52.1508 0)
(37.2276 -49.7655 0)
(39.0546 -47.4787 0)
(40.805 -45.2864 0)
(42.4767 -43.1843 0)
(44.0704 -41.1683 0)
(45.5623 -39.234 0)
(46.733 -37.3868 0)
(2291.39 -233.37 0)
(2524.66 -605.859 0)
(2155.89 -958.911 0)
(1792.75 -1238.44 0)
(1519.54 -1427.82 0)
(1278.58 -1535.44 0)
(1054.72 -1588.94 0)
(857.632 -1603.68 0)
(691.886 -1588.51 0)
(554.504 -1551.37 0)
(440.735 -1499.58 0)
(347.358 -1439.39 0)
(271.324 -1375.35 0)
(208.696 -1310.11 0)
(157.204 -1245.8 0)
(114.97 -1183.75 0)
(80.31 -1124.68 0)
(51.8278 -1068.87 0)
(28.4106 -1016.38 0)
(8.94135 -966.398 0)
(-7.1147 -918.858 0)
(-19.8044 -875.391 0)
(-30.2949 -834.628 0)
(-38.89 -796.348 0)
(-45.9048 -760.365 0)
(-51.5976 -726.507 0)
(-56.1821 -694.613 0)
(-59.839 -664.531 0)
(-62.7137 -636.127 0)
(-64.9224 -609.277 0)
(-66.5552 -583.873 0)
(-67.6808 -559.802 0)
(-68.3697 -536.885 0)
(-68.6797 -515.026 0)
(-68.6288 -494.282 0)
(-68.2631 -474.591 0)
(-67.6153 -455.889 0)
(-66.7323 -438.092 0)
(-65.6465 -421.135 0)
(-64.3899 -404.964 0)
(-62.987 -389.536 0)
(-61.4573 -374.807 0)
(-59.8129 -360.741 0)
(-58.064 -347.303 0)
(-56.2203 -334.464 0)
(-54.2919 -322.192 0)
(-52.2921 -310.46 0)
(-50.2371 -299.238 0)
(-48.1396 -288.501 0)
(-46.0102 -278.218 0)
(-43.8552 -268.368 0)
(-41.6837 -258.933 0)
(-39.5026 -249.895 0)
(-37.3131 -241.233 0)
(-35.1159 -232.929 0)
(-32.904 -224.985 0)
(-30.6812 -217.382 0)
(-28.455 -210.081 0)
(-26.2277 -203.067 0)
(-23.998 -196.321 0)
(-21.7695 -189.741 0)
(-19.5598 -183.344 0)
(-17.3475 -177.201 0)
(-15.1459 -171.3 0)
(-12.9704 -165.622 0)
(-10.8077 -160.151 0)
(-8.65361 -154.912 0)
(-6.51873 -149.843 0)
(-4.41681 -144.967 0)
(-2.28328 -140.141 0)
(-0.154139 -135.342 0)
(1.94865 -130.667 0)
(4.05237 -126.107 0)
(6.15357 -121.673 0)
(8.26075 -117.361 0)
(10.3811 -113.149 0)
(12.5116 -109.03 0)
(14.6458 -105.003 0)
(16.779 -101.066 0)
(18.9096 -97.2161 0)
(21.0353 -93.4557 0)
(23.1522 -89.7864 0)
(25.2556 -86.2101 0)
(27.34 -82.7273 0)
(29.4 -79.3387 0)
(31.4302 -76.0452 0)
(33.4256 -72.8475 0)
(35.3808 -69.7461 0)
(37.2916 -66.7412 0)
(39.1537 -63.8326 0)
(40.9637 -61.0201 0)
(42.7184 -58.3027 0)
(44.4151 -55.6792 0)
(46.0513 -53.1481 0)
(47.6247 -50.7073 0)
(49.1334 -48.3547 0)
(50.5756 -46.0876 0)
(51.952 -43.9034 0)
(53.238 -41.7992 0)
(54.2256 -39.7802 0)
(1850.45 -181.901 0)
(2036.96 -478.838 0)
(1818.28 -724.533 0)
(1628.61 -903.266 0)
(1490.9 -1034.19 0)
(1348.3 -1127.93 0)
(1195.19 -1190.63 0)
(1047.37 -1227.65 0)
(912.53 -1243.82 0)
(791.035 -1243.38 0)
(682.308 -1230.07 0)
(586.36 -1207.04 0)
(502.844 -1177.14 0)
(430.666 -1142.45 0)
(368.428 -1104.62 0)
(314.763 -1064.99 0)
(268.466 -1024.64 0)
(228.501 -984.368 0)
(193.97 -944.739 0)
(164.117 -906.147 0)
(138.389 -868.847 0)
(116.268 -832.98 0)
(97.1713 -798.585 0)
(80.6466 -765.68 0)
(66.3278 -734.258 0)
(53.9103 -704.285 0)
(43.1372 -675.714 0)
(33.785 -648.487 0)
(25.6608 -622.541 0)
(18.6019 -597.814 0)
(12.4745 -574.246 0)
(7.16907 -551.784 0)
(2.58104 -530.207 0)
(-1.32982 -509.494 0)
(-4.5959 -489.846 0)
(-7.30981 -471.128 0)
(-9.52034 -453.281 0)
(-11.2956 -436.239 0)
(-12.6914 -419.951 0)
(-13.7567 -404.372 0)
(-14.5314 -389.466 0)
(-15.0508 -375.196 0)
(-15.342 -361.531 0)
(-15.4259 -348.443 0)
(-15.3204 -335.906 0)