/*--------------------------------*- C++ -*----------------------------------*\
| =========                 |                                                 |
| \\      /  F ield         | OpenFOAM: The Open Source CFD Toolbox           |
|  \\    /   O peration     | Version:  2412                                  |
|   \\  /    A nd           | Website:  www.openfoam.com                      |
|    \\/     M anipulation  |                                                 |
\*---------------------------------------------------------------------------*/
FoamFile
{
    version     2.0;
    format      ascii;
    arch        "LSB;label=32;scalar=64";
    class       volScalarField;
    location    "2";
    object      p;
}
// * * * * * * * * * * * * * * * * * * * * * * * * * * * * * * * * * * * * * //

dimensions      [0 2 -2 0 0 0 0];

internalField   nonuniform List<scalar> 
20000
(
-191567
-535580
-545011
-435427
-325879
-244710
-188115
-145120
-106826
-68882.1
-30690
6425.37
40793.9
71255.9
97397.2
118582
136990
152586
160975
158471
150052
141826
136411
133954
133515
134224
135290
136626
139453
143799
148477
152885
156901
160692
164604
171408
181607
191926
199614
205656
211073
216257
221435
226714
232100
237524
242808
247529
252228
258397
266090
273421
280311
287547
296591
305796
314833
323852
333207
343006
353523
364936
377095
389585
401903
413737
425040
436164
446498
454657
462550
471559
479352
483562
482921
477732
468882
457422
444491
430892
417128
404894
396298
391570
388779
414717
482470
534164
553336
557284
554310
547556
538674
528133
515851
501857
486088
468977
451469
434181
-203374
-577581
-607545
-499859
-378360
-279612
-205803
-148917
-100750
-56354.6
-14240.6
24756.5
59128.5
88464.5
113632
135610
155295
170568
174164
167510
158718
152505
149622
147976
146863
146246
146393
147740
150355
153430
156163
158538
160701
162920
165994
173287
183570
192670
199634
205007
209438
213417
217330
221448
225925
230892
236327
241734
246808
253130
263514
274290
282860
289479
295496
302325
310576
320193
330864
342478
355011
368633
383523
398867
413125
425636
436753
447937
459546
468865
474402
477439
477298
473864
467997
460594
452362
443841
435488
427597
420709
415743
413728
416090
423755
437677
457344
474727
485513
490699
491366
488496
482817
475097
466042
455419
443149
429517
415059
400332
-247603
-689687
-752578
-635892
-481943
-347166
-243296
-164604
-103238
-52721
-8699.82
30665.1
65310.4
94989.5
119882
139321
152406
159963
162589
161519
158417
156111
155517
155516
155482
155670
156416
157843
159761
161891
164019
166145
168592
171799
176250
181985
187647
192211
196305
200571
204608
208395
212189
216252
220817
226087
231913
237141
240520
243770
251806
263568
275581
286892
297017
306604
316722
327846
340309
354500
370812
389511
410454
431461
448892
460960
467474
469720
469476
467757
464749
460694
455732
450026
443794
437258
430635
424159
418157
413085
409468
407656
407751
409926
414304
420624
428350
436961
445180
450699
452067
449313
443415
435462
426269
416251
405632
394557
383131
371343
-343906
-910525
-1.004e+06
-837431
-614460
-429079
-296593
-200230
-124263
-60784.1
-7053.22
37244.7
72884.8
101300
122959
137715
146569
151676
154909
157290
159584
162033
163979
164720
164568
164086
163748
163886
164658
166066
167929
170177
172874
175996
179460
183003
186048
188357
190547
193206
196729
200828
205342
210421
215936
221393
226173
231080
237580
245169
254489
265386
277321
289921
302896
316304
330316
344848
359456
373870
388188
402313
415372
426172
433890
438573
440748
441022
439922
437790
434829
431220
427116
422660
417995
413260
408591
404145
400138
396910
394947
394700
396311
399528
403787
408274
412169
415003
416299
415196
411424
405505
398306
390568
382758
375052
367432
359817
352132
344181
-526100
-1.4843e+06
-1.53423e+06
-1.16229e+06
-824294
-594601
-426185
-296571
-194086
-108541
-36137.7
22030.2
65379.2
95450.9
114565
126397
134757
141575
147380
152340
156523
159895
162203
163409
163907
164053
164033
164008
164343
165516
167482
169885
172289
174679
177304
180092
183002
186130
189486
193052
197039
201321
205550
209519
214031
220074
227714
236273
246160
257483
270251
284161
298388
312163
325194
337445
348978
359961
370465
380370
389386
397204
403604
408422
411728
413711
414543
414376
413351
411598
409254
406458
403341
400017
396596
393182
389880
386827
384226
382392
381650
382106
383705
386062
388444
390062
390581
390139
388760
386050
381814
376359
370183
363778
357426
351177
344950
338629
332122
325279
-700065
-2.95233e+06
-2.63837e+06
-1.88413e+06
-1.38609e+06
-1.06307e+06
-807179
-593389
-417510
-274711
-161657
-74638
-9698.92
37156.8
70074.5
93283.2
110437
123582
133749
141223
146170
149013
150798
153045
156202
159080
160460
160841
161742
163380
165104
166811
168556
170909
174726
179581
184624
189548
193864
197382
200647
204533
209796
216649
225061
235368
246935
258829
270635
282216
293489
304470
315222
325735
335790
345030
353324
360696
367195
372822
377608
381595
384806
387243
388963
390058
390574
390527
389910
388718
387034
385004
382762
380414
378071
375845
373869
372279
371137
370473
370310
370664
371937
373605
374841
375148
374231
372264
369556
366164
362067
357399
352348
347065
341630
336052
330301
324338
318127
311580
1.93879e+06
-6.65495e+06
-5.8874e+06
-4.3927e+06
-3.20283e+06
-2.34642e+06
-1.70225e+06
-1.21925e+06
-858036
-588505
-388596
-240901
-132035
-52414.1
4655.51
45539.8
75466.1
97389.8
113634
124912
131571
135266
139168
144916
151629
156939
159103
159069
160052
162705
166143
170109
174306
178632
183098
187654
191849
195406
199003
203457
209300
216710
225391
234612
243984
253385
262986
272931
283072
292921
302278
311155
319581
327410
334451
340634
345983
350564
354470
357804
360650
363065
365011
366429
367375
367976
368324
368493
368469
368098
367312
366234
365001
363736
362572
361614
360900
360439
360309
360739
361639
362546
363225
363221
362458
361160
359332
357015
354453
351643
348385
344520
340079
335187
329949
324427
318660
312659
306439
299943
2.43588e+07
-2.59902e+07
-1.33059e+07
-8.7155e+06
-5.85797e+06
-4.01787e+06
-2.77497e+06
-1.91771e+06
-1.31554e+06
-890687
-591858
-380955
-229995
-120190
-41383.4
13536.1
51301.6
78406.8
98757.5
114302
125712
133460
139093
144701
151075
157536
162763
166511
169772
173174
176716
180325
183818
187124
190149
193053
196402
200647
206023
212344
219134
226226
233807
241954
250435
258899
267312
275645
283729
291470
298807
305703
312127
318010
323228
327728
331575
334833
337538
339828
341916
343962
345881
347416
348548
349460
350251
350951
351561
352056
352421
352664
352784
352787
352715
352725
352982
353351
353596
353665
353572
353377
352971
352138
351021
349962
348818
347313
345187
342288
338634
334343
329555
324385
318920
313225
307345
301303
295123
288754
5.39488e+07
-3.67258e+07
-1.81505e+07
-1.20888e+07
-7.99806e+06
-5.38244e+06
-3.64614e+06
-2.46739e+06
-1.65688e+06
-1.10212e+06
-726395
-467991
-286395
-158672
-68380.5
-4017.16
42895.8
77912.8
103580
121716
134457
143816
151175
157374
162784
167507
171582
175077
178080
180660
182898
184867
186689
188686
191152
194281
198213
202752
207741
213277
219360
225845
232642
239642
246659
253552
260201
266607
272852
278993
285043
290976
296781
302343
307368
311631
315095
317991
320607
322987
325187
327350
329461
331438
333265
334974
336591
338119
339546
340859
342068
343243
344417
345462
346208
346606
346773
346845
346869
346674
346081
345339
344875
344656
344437
343832
342422
340048
336777
332775
328218
323259
318013
312554
306934
301193
295358
289440
283455
277346
1.42399e+07
-1.82525e+07
-1.04622e+07
-7.69609e+06
-5.59746e+06
-4.05596e+06
-2.92278e+06
-2.0931e+06
-1.48331e+06
-1.03539e+06
-708200
-470116
-296424
-169892
-77854.8
-10804.3
38427
74932.4
102103
122173
136911
147787
155982
162349
167420
171475
174704
177229
179067
180364
181485
182679
184078
185912
188295
191104
194375
198160
202448
207215
212311
217592
223073
228812
234838
241076
247333
253521
259691
265902
272115
278151
283774
288862
293524
297910
301897
305311
308284
311011
313623
316172
318633
320976
323200
325340
327442
329531
331583
333503
335182
336602
337833
338931
339862
340427
340488
340238
339927
339594
339321
339249
339271
339051
338144
336262
333391
329690
325364
320599
315537
310281
304895
299423
293890
288313
282702
277060
271393
265634
1.81807e+06
-1.12876e+07
-7.70485e+06
-5.56087e+06
-4.11904e+06
-3.04972e+06
-2.22838e+06
-1.61677e+06
-1.1652e+06
-832011
-584780
-399418
-259062
-152168
-70701.4
-8796.36
38110.8
73598.5
100434
120756
136147
147741
156388
162830
167640
171083
173341
174790
175730
176259
176715
177487
178676
180286
182262
184503
187043
189963
193329
197244
201739
206771
212304
218307
224733
231518
238550
245643
252568
259139
265371
271365
277067
282304
287004
291178
294913
298311
301467
304429
307206
309813
312274
314591
316752
318755
320654
322522
324392
326257
327996
329424
330527
331422
332122
332571
332716
332634
332569
332633
332685
332473
331709
330118
327621
324315
320369
315957
311225
306281
301205
296046
290834
285589
280319
275031
269728
264415
259099
253708
-573305
-4.62352e+06
-4.6435e+06
-3.58453e+06
-2.66964e+06
-1.96206e+06
-1.42405e+06
-1.03775e+06
-757748
-551021
-395795
-276987
-184231
-110539
-51400.7
-3965.06
33960.2
64236
88410
107771
123424
136070
145897
153240
158699
162608
165199
166908
168145
169124
169998
170864
171851
173133
174772
176740
179061
181835
185212
189358
194419
200449
207318
214757
222471
230198
237808
245256
252417
259078
265154
270679
275636
280059
284064
287749
291175
294355
297260
299861
302160
304194
306039
307767
309411
310942
312343
313681
315034
316407
317751
318975
320049
320986
321757
322361
322919
323431
323746
323678
323044
321631
319410
316481
312985
309057
304814
300348
295729
291006
286211
281366
276483
271570
266633
261674
256696
251706
246715
241656
-982053
-2.6203e+06
-2.87144e+06
-2.29327e+06
-1.63502e+06
-1.17049e+06
-874881
-671585
-510890
-380023
-275870
-194786
-131916
-82016.1
-40782
-5704.62
24529.2
50695.8
73110.2
91783
107043
119469
129406
137216
143363
148262
152237
155399
157768
159535
161020
162471
164052
165900
168097
170723
173891
177699
182257
187701
194103
201365
209271
217545
225837
233818
241324
248312
254733
260485
265541
270023
274058
277734
281103
284175
286947
289424
291615
293548
295221
296619
297803
298856
299804
300649
301391
302071
302820
303806
305115
306629
308146
309670
311183
312507
313393
313679
313239
311966
309926
307265
304129
300635
296874
292912
288797
284566
280243
275846
271388
266877
262321
257725
253093
248429
243740
239031
234317
229533
-631923
-1.507e+06
-1.73495e+06
-1.55713e+06
-1.23653e+06
-928033
-681578
-499167
-367309
-271437
-199937
-145267
-103095
-70009.5
-42284.1
-17417.5
5737.77
27442.7
47523.3
65707.7
81917.9
96074.2
108087
118029
126151
132775
138235
142799
146604
149800
152619
155316
158134
161278
164873
169013
173762
179164
185254
192013
199326
207021
214892
222693
230202
237238
243634
249325
254399
258946
263026
266702
270019
273003
275678
278063
280173
282026
283638
285028
286212
287204
288022
288686
289226
289714
290264
291011
292041
293362
295124
297363
299786
301903
303291
303825
303421
302133
300138
297620
294724
291553
288175
284635
280964
277181
273302
269336
265292
261176
256995
252753
248458
244114
239727
235303
230847
226370
221884
217323
-382328
-979477
-1.17105e+06
-1.10539e+06
-929848
-738802
-572404
-438573
-333053
-250479
-187326
-140754
-107429
-83470.4
-64578.9
-47218.9
-29364.6
-10378.8
9467.86
29450.4
48724.6
66536.9
82358.7
95955.3
107365
116881
124922
131836
137864
143220
148132
152845
157593
162552
167829
173524
179713
186377
193379
200534
207753
215048
222221
228917
234997
240484
245392
249746
253605
257030
260072
262788
265231
267436
269430
271227
272835
274261
275514
276612
277590
278487
279334
280160
280999
281888
282862
283971
285270
286932
288937
290917
292415
292992
292556
291307
289472
287212
284645
281848
278872
275744
272484
269108
265625
262045
258374
254617
250781
246870
242891
238850
234752
230604
226410
222179
217915
213630
209333
204959
-223232
-647406
-804609
-784566
-685850
-571059
-465633
-374845
-297889
-234203
-184433
-148909
-126062
-112221
-102554
-92513.9
-79149.2
-61492.7
-40051.8
-16170.5
8499.36
32399.8
54333.9
73590.9
89947.4
103626
115155
125068
133724
141397
148390
155068
161709
168374
175034
181751
188700
195961
203353
210532
217343
223778
229699
235035
239791
243959
247558
250648
253317
255653
257726
259597
261314
262907
264394
265780
267066
268252
269338
270335
271263
272150
273014
273864
274711
275601
276638
277877
279190
280242
280732
280628
280025
278968
277504
275700
273623
271320
268822
266148
263312
260330
257218
253988
250651
247217
243692
240085
236400
232644
228822
224940
221004
217020
212992
208928
204833
200717
196588
192379
-117186
-427376
-557536
-561201
-511888
-452070
-393988
-336628
-278873
-224233
-179570
-150291
-136772
-134416
-136185
-135474
-127957
-112091
-88668.4
-59942.9
-28725.2
2355.64
31252.9
56658.5
78101.1
95906.1
110857
123689
134791
144361
152678
160283
167786
175448
183176
190727
197999
205111
212065
218708
224871
230402
235265
239514
243158
246221
248779
250929
252764
254361
255776
257054
258227
259319
260343
261305
262202
263028
263789
264487
265132
265770
266440
267117
267744
268256
268604
268753
268637
268177
267361
266256
264927
263410
261715
259844
257793
255562
253152
250573
247837
244961
241959
238844
235628
232317
228922
225447
221900
218285
214608
210875
207091
203260
199387
195478
191541
187582
183609
179552
-41003.7
-280666
-381962
-391110
-386052
-386901
-378843
-349661
-296429
-230933
-172494
-135229
-122148
-126903
-138949
-148385
-148715
-137463
-115403
-85296
-50721.1
-15095.7
18778.5
48760.9
73657.1
93635.3
110012
124145
136684
147892
157817
166467
174391
182147
189799
197243
204376
211115
217390
223123
228244
232717
236581
239877
242642
244935
246833
248414
249745
250881
251862
252714
253463
254139
254755
255314
255812
256246
256615
256915
257142
257297
257370
257329
257132
256751
256178
255428
254515
253450
252238
250884
249391
247757
245976
244047
241971
239745
237368
234848
232193
229413
226519
223520
220425
217242
213977
210637
207226
203751
200217
196628
192990
189306
185581
181821
178033
174221
170394
166481
28397.2
-191494
-250571
-214324
-216170
-282593
-349458
-360639
-314039
-235655
-157592
-103022
-79476.1
-81149
-95838.4
-111485
-119828
-117142
-103292
-80202.2
-50756.7
-18131.5
14891.6
46056.7
73374.9
95418.4
112818
127338
139986
151160
161172
170260
178597
186329
193541
200267
206503
212223
217402
222029
226106
229661
232730
235346
237548
239386
240908
242162
243193
244038
244727
245285
245734
246089
246354
246530
246615
246606
246499
246293
245986
245578
245069
244454
243728
242889
241939
240880
239716
238444
237060
235556
233929
232176
230293
228282
226147
223896
221531
219054
216468
213775
210982
208094
205116
202054
198915
195703
192423
189082
185682
182230
178729
175184
171598
167977
164328
160654
156963
153183
60814.9
-143888
-224505
-176416
-134114
-166587
-236820
-280114
-269860
-214371
-141941
-80794.4
-45598.7
-35673.4
-41628
-52762
-61175.7
-62676.3
-56058.1
-41963.1
-21976.8
1753.08
27291.4
52818.3
76552.3
97342.3
114899
129629
142149
152988
162545
171089
178793
185774
192121
197897
203135
207858
212086
215843
219159
222067
224593
226764
228609
230155
231434
232474
233302
233945
234424
234758
234963
235050
235026
234898
234668
234340
233918
233405
232802
232113
231338
230478
229530
228490
227357
226127
224799
223370
221836
220197
218449
216592
214627
212555
210382
208117
205765
203324
200794
198174
195465
192670
189792
186837
183809
180712
177550
174329
171053
167725
164350
160931
157473
153980
150457
146910
143345
139687
51343.9
-80051.3
-150746
-144689
-124057
-131849
-162174
-184468
-176055
-137811
-87009
-42037.4
-12842.7
-124.435
849.761
-3773.76
-8782.3
-10700.6
-7770.56
370.897
13112.9
29233.7
47286.4
65929.6
84025
100758
115697
128768
140148
150102
158878
166674
173634
179865
185453
190468
194968
199000
202605
205816
208664
211174
213367
215264
216885
218249
219374
220282
220990
221517
221879
222093
222171
222124
221961
221690
221316
220844
220277
219619
218871
218035
217112
216102
215004
213818
212542
211175
209715
208163
206517
204777
202943
201016
198999
196896
194711
192449
190115
187706
185222
182659
180017
177298
174504
171639
168705
165708
162649
159534
156367
153150
149887
146582
143238
139860
136453
133021
129569
126022
58706.6
-43149.1
-110848
-119535
-99752.5
-84989.8
-82783.3
-82993.1
-74528.3
-54471.9
-27632.8
-1510.92
18245.8
29628.9
33729.7
33266
31228.4
30049.3
31270.7
35546.6
42828.8
52603
64135.9
76670.7
89509.2
102067
113918
124813
134663
143489
151367
158394
164667
170276
175298
179803
183847
187476
190729
193636
196223
198511
200517
202260
203754
205015
206058
206896
207545
208017
208327
208485
208504
208392
208158
207809
207352
206791
206130
205373
204523
203582
202551
201432
200226
198932
197552
196086
194533
192895
191172
189366
187478
185512
183472
181359
179176
176925
174609
172227
169778
167259
164671
162012
159286
156494
153640
150726
147756
144733
141659
138539
135375
132171
128928
125652
122348
119017
115668
112220
67218.2
-17705.8
-77176
-86019.9
-66537.3
-47303
-38235.8
-34572.6
-28543.5
-16322.9
954.087
19414.2
35174
46011.1
51686.9
53396.4
52959.8
52157.4
52345.9
54328.8
58396.8
64445.4
72120.9
80951.6
90436.6
100113
109603
118638
127055
134779
141799
148143
153861
159008
163640
167809
171559
174931
177956
180662
183070
185202
187074
188701
190097
191275
192247
193026
193623
194048
194314
194428
194401
194241
193956
193551
193034
192409
191681
190853
189930
188912
187804
186607
185323
183954
182501
180965
179349
177653
175882
174037
172123
170140
168092
165978
163801
161561
159260
156900
154478
151993
149444
146833
144161
141429
138639
135795
132899
129953
126960
123923
120845
117727
114573
111387
108172
104932
101672
98313.4
76343.6
4232.36
-51157.7
-62954.6
-48414.7
-32227.1
-23771.1
-19782.3
-14089.5
-3483.51
11362.9
27547.9
41975
52657.3
59083.5
61926.5
62491.2
62195.3
62221.6
63360.3
65995.7
70175.4
75716.8
82309.4
89592.8
97215.8
104878
112347
119463
126125
132286
137935
143083
147758
151991
155817
159270
162378
165170
167667
169891
171859
173587
175087
176372
177453
178342
179048
179580
179948
180160
180225
180149
179941
179607
179153
178585
177906
177123
176239
175257
174181
173013
171758
170417
168992
167486
165903
164245
162515
160717
158853
156926
154935
152883
150770
148597
146365
144076
141730
139328
136868
134350
131776
129146
126461
123725
120937
118102
115221
112296
109329
106323
103280
100202
97093
93956.4
90794.7
87613.7
84331.9
84659.6
22820.1
-30074.4
-44445.7
-33761.9
-20158.4
-12556.1
-8504.1
-2794.99
7285.14
21117
36165.1
49706
59931.7
66281.3
69230.4
69849.3
69367.6
68863.1
69104.6
70518.6
73233.7
77163.1
82090
87733.6
93806
100050
106256
112269
117984
123336
128296
132855
137024
140818
144261
147375
150185
152711
154972
156985
158765
160325
161676
162829
163794
164579
165192
165641
165935
166079
166081
165947
165683
165294
164787
164167
163437
162602
161666
160633
159507
158291
156988
155601
154135
152592
150977
149293
147543
145729
143853
141916
139918
137861
135745
133573
131344
129061
126725
124336
121894
119399
116852
114255
111608
108913
106171
103385
100557
97687.6
94779.5
91834.5
88854.2
85840.8
82797.5
79727.7
76633.5
73520.5
70305.5
91991.3
38828
-12017
-28333.6
-20725.2
-9534.48
-3285.6
62.9766
5205.51
14595
27628.5
41929.3
54924.1
64859.1
71119.8
74059.6
74612.4
73898.9
72936.1
72480.2
72982.7
74620
77362.6
81048.6
85446.7
90309.5
95409.6
100558
105609
110459
115043
119322
123281
126920
130245
133272
136018
138498
140729
142726
144503
146070
147439
148619
149618
150444
151104
151605
151953
152153
152213
152137
151930
151598
151146
150578
149899
149114
148225
147238
146156
144983
143722
142378
140955
139457
137888
136250
134547
132780
130950
129059
127109
125100
123034
120912
118735
116505
114223
111892
109510
107080
104601
102074
99500.7
96881.9
94219
91513.5
88766.9
85980.8
83156.8
80296.5
77401.5
74473.2
71513.5
68525.5
65512.1
62475
59420
56262
98377.7
52645.5
3628.01
-14113.4
-8955.5
94.6646
4860.65
7179.44
11459.9
20017.1
32266.3
45916.5
58460.2
68145.1
74295.5
77169.1
77602.8
76643.7
75269.4
74229.8
73995.2
74776.3
76582.7
79289.2
82697.9
86589.3
90756.3
95023.9
99254.8
103350
107242
110893
114282
117404
120264
122870
125234
127369
129288
131002
132522
133857
135014
136002
136827
137495
138011
138380
138608
138698
138656
138487
138193
137781
137253
136615
135870
135022
134075
133033
131900
130681
129379
127998
126543
125017
123422
121760
120034
118246
116395
114486
112518
110493
108413
106280
104094
101858
99572.5
97240
94861
92436.2
89966.5
87452.8
84896.1
82297.6
79658.5
76980
74263.6
71510.4
68722
65899.7
63044.8
60158.7
57242.9
54300.3
51333.5
48344.1
45337.7
42227.6
103914
64575.1
17210.1
-1560.53
1656.95
8878.16
12218.9
13414.2
16710
24353.5
35787.9
48782.9
60867.1
70273.7
76268.2
79027.4
79310.4
78106.3
76361.9
74822.3
73972
74047.5
75087.1
76992.6
79590.2
82680.3
86070.9
89596.7
93126.3
96563.5
99842.8
102924
105786
108422
110834
113027
115013
116800
118399
119820
121070
122158
123089
123869
124503
124996
125351
125572
125663
125628
125470
125192
124799
124294
123680
122961
122140
121223
120212
119111
117925
116659
115314
113896
112406
110846
109219
107527
105772
103955
102078
100144
98153
96107.5
94009.1
91859.3
89659.8
87412.4
85118.9
82780.6
80398.6
77973.9
75507.6
73000.5
70453.7
67868.2
65245.2
62585.7
59891
57162.3
54400.7
51607.5
48783.9
45930.9
43050
40143.8
37214.8
34264.2
31297.7
28227.2
108712
74895.1
29020.4
9507.71
11187.7
16875.1
18923.9
19017.1
21306.7
28013.1
38615.9
50937.4
62531.9
71616.6
77404.7
80004.5
80109.5
78659.5
76574.8
74595.2
73215.3
72690.8
73081.7
74310.7
76223.2
78634.8
81364.7
84254.7
87177.6
90039.3
92774.9
95344.2
97725.6
99910.8
101900
103700
105317
106762
108043
109168
110144
110977
111672
112233
112665
112969
113150
113210
113152
112977
112690
112293
111788
111178
110468
109659
108756
107762
106682
105519
104276
102956
101562
100097
98562.4
96960.5
95293.2
93562.7
91770.7
89919.3
88010.2
86045.3
84026.3
81955.1
79833.2
77662.4
75444.4
73181.1
70874
68524.8
66134.7
63704.8
61236.1
58729.6
56186.2
53606.9
50992.9
48345.1
45664.6
42952.5
40209.8
37437.6
34637.1
31808.9
28954.6
26076.7
23177.2
20257.3
17322.7
14283.9
112882
83852.4
39312.7
19259.1
19711.3
24120.1
25029.7
24094.5
25411.3
31197.8
40976.7
52619.1
63702.8
72431
77972.7
80377.4
80282.2
78584.3
76180.2
73803.2
71955
70905.4
70731.1
71372.3
72690.1
74512.4
76667.3
79001.7
81391.8
83744.4
85994.9
88102.9
90046.2
91815.9
93411.9
94839.4
96105.8
97219.6
98189.1
99021.5
99723.1
100299
100754
101090
101312
101420
101418
101306
101088
100764
100338
99810.1
99183.8
98461.3
97645.8
96740.4
95748.2
94672.6
93516.4
92282.4
90972.9
89590.2
88136.6
86614.3
85025.2
83371.5
81655.1
79878.1
78042.4
76149.8
74202.2
72201.4
70149.1
68047
65896.8
63700.1
61458.8
59174.6
56849.2
54484.3
52081
49640.6
47164.1
44652.3
42106.3
39527
36915.3
34272.4
31599
28896.4
26165.2
23406.7
20621.6
17810.8
14975.6
12118.3
9240.81
6344.05
3433.87
419.493
116521
91658.9
48306.9
27850
27309.9
30651.5
30568.9
28697.8
29101.8
34010.1
42991.9
53966.5
64534.2
72887.4
78157.6
80343.8
80033.8
78087.8
75380.3
72637.5
70365.2
68844
68164.6
68282.2
69071.1
70370
72013.7
73853.6
75767.9
77664
79477.2
81166.6
82709.3
84096.1
85326.1
86404.2
87337.8
88134.9
88803.5
89350.6
89782.3
90103.1
90316.9
90426.5
90434.1
90341.3
90149.8
89860.8
89475.3
88995
88421.2
87755.6
87000.6
86158.4
85231.6
84222.6
83133.7
81967.3
80725.5
79410.3
78023.6
76567.5
75043.9
73454.9
71802.4
70088.5
68315.2
66484.4
64598
62657.9
60665.8
58623.4
56532.3
54394.2
52210.7
49983.3
47713.8
45404
43055.7
40670.3
38249.1
35793.1
33303.4
30780.9
28226.6
25641.2
23025.9
20381.4
17708.7
15008.8
12282.5
9530.63
6754.1
3953.62
1130.48
-1713.16
-4575.64
-7456.19
-10348.9
-13345.6
119713
98492.7
56190.4
35423.4
34069.2
36515.1
35572.1
32859.8
32421
36504.9
44729.2
55060.1
65120.7
73095.5
78083.5
80039.7
79509.2
77318.5
74321.7
71237.4
68574.1
66620.9
65480.7
65122.2
65431.6
66256.4
67437.4
68829.4
70312.2
71793.3
73207.8
74513.9
75688.1
76720.2
77609.3
78359.7
78978.6
79474
79853.9
80125.1
80293.6
80363.9
80339.4
80222.8
80016.1
79720.2
79336.4
78865.7
78308.6
77666.3
76940.3
76132
75242.9
74274.9
73229.6
72108.7
70913.9
69646.8
68309
66902.5
65428.8
63890
62287.8
60624.1
58900.8
57119.7
55282.7
53391.6
51448.3
49454.5
47411.9
45322.2
43186.8
41007.4
38785.4
36522.3
34220
31880.1
29504.3
27093.9
24650
22173.7
19665.8
17127.4
14559.2
11962.3
9337.41
6685.55
4007.55
1304.24
-1423.57
-4175.07
-6949.55
-9746.24
-12563.8
-15400.3
-18254.3
-21125.1
-24006.7
-26992
122527
104503
63123.5
42107.9
40074.6
41762.5
40072.6
36607.9
35397.4
38715.2
46228.1
55948
65520.8
73125.1
77831.8
79557.1
78807.6
76379.2
73106.9
69701.8
66673.4
64318.5
62751.8
61954
61821.8
62210.6
62966.3
63946.8
65032.7
66132
67178.8
68130.6
68962.9
69665
70235.2
70677.5
70998.9
71207.6
71311.2
71316.9
71230.5
71056.4
70798.4
70458.6
70038.7
69540
68963
68308.7
67577.8
66770.9
65889.1
64933.3
63904.6
62803.9
61632.4
60391.2
59081.7
57705.2
56263.1
54757.1
53188.7
51559.7
49871.7
48126.6
46325.9
44471.5
42564.9
40607.9
38602.1
36549.1
34450.5
32307.9
30122.9
27896.8
25631.2
23327.6
20987.8
18613.3
16205.5
13765.5
11294.4
8792.99
6262.18
3702.84
1115.86
-1497.89
-4137.55
-6802.26
-9491.2
-12203.6
-14938.7
-17695.7
-20474
-23273
-26091
-28926.4
-31777.9
-34645
-37521.5
-40501.4
125019
109814
69243.8
48018.4
45407.8
46447.3
44106.1
39968.7
38054.4
40664.1
47513.8
56660
65770.8
73020.6
77455.5
78956.6
77995.4
75339.4
71805.8
68097.9
64726.1
61994.8
60029.4
58822
58278.5
58261.6
58621.9
59219.7
59936.7
60680.6
61385
62006.4
62519.4
62912.2
63182.8
63334.6
63374.5
63310.3
63150.1
62900.7
62568.3
62157.2
61671
61112.2
60482.1
59782.1
59013
58175.1
57268.9
56295
55253.8
54145.9
52971.7
51732.1
50427.7
49059.5
47628.6
46136.1
44583.4
42971.8
41302.8
39577.8
37798.3
35966.1
34082.5
32149.2
30167.7
28139.5
26066.2
23949.2
21789.8
19589.6
17349.9
15072.2
12758.1
10409.3
8027.32
5613.64
3169.32
695.275
-1807.67
-4338.73
-6897.1
-9481.97
-12092.5
-14727.9
-17387.3
-20069.9
-22774.9
-25501.6
-28249.2
-31017.1
-33804.9
-36611.5
-39435.6
-42275.5
-45130.2
-47999.2
-50876.3
-53856.2
127239
114531
74666.3
53254.7
50143.9
50622.3
47709.6
42969.5
40413.3
42370.3
48604.6
57216
65894.3
72810.8
76989
78277.7
77115.6
74244.3
70463.8
66469.9
62774.2
59688.6
57348.7
55756.6
54827.3
54429.8
54419.1
54657.8
55028.6
55439
55822
56133
56345.5
56447.1
56434.9
56311.8
56084.5
55760.6
55348.1
54854
54284.3
53643.7
52935.5
52162.5
51326.1
50427.5
49467.2
48445.7
47363.2
46220
45016.3
43752.3
42428.5
41045.3
39603.5
38103.6
36546.7
34933.8
33265.8
31544.1
29769.8
27944.3
26068.9
24145
22174
20157.2
18096.1
15992.1
13846.6
11660.9
9436.28
7174.05
4875.47
2541.99
175.264
-2223.05
-4651.52
-7108.98
-9594.5
-12107.3
-14646.6
-17211.9
-19802.2
-22417.1
-25055.6
-27717.1
-30400.8
-33105.9
-35831.7
-38577.5
-41342.6
-44126.4
-46928.4
-49747.9
-52583.1
-55432.7
-58295.8
-61171.8
-64054.7
-67039.9
129224
118738
79487.5
57903.1
54351.3
54338.4
50920.3
45637.7
42495.2
43850.7
49515.4
57630.6
65907.5
72514.4
76454
77544.9
76195.5
73122.5
69109.6
64845.8
60844.8
57425.4
54732.7
52778.1
51484.8
50727.9
50366.8
50266.4
50310.2
50405.7
50485
50502.6
50431
50257
49976.6
49592.6
49111
48539.4
47885.4
47156.2
46357.8
45494.9
44571.1
43588.8
42549.5
41454.5
40304.4
39099.5
37840.1
36526.3
35158.3
33736.3
32260.5
30731.3
29149.3
27514.9
25829.1
24092.5
22306.2
20471
18588.1
16658.6
14683.7
12664.5
10602.3
8498.32
6353.84
4170.09
1948.33
-310.18
-2604.22
-4932.58
-7293.9
-9686.7
-12109.5
-14560.9
-17039.9
-19545.5
-22076.7
-24632.8
-27213.2
-29817.1
-32443.9
-35093
-37763.8
-40455.6
-43167.8
-45899.6
-48650.5
-51419.7
-54206.8
-57011.1
-59832.1
-62668.9
-65520
-68384
-71260.2
-74148.3
-77041.8
-80037
131009
122507
83788.5
62038.5
58091.5
57643.2
53774.7
48001.2
44321.5
45122
50259.7
57915.8
65821.7
72143.6
75864.2
76773.8
75251.8
71991.2
67760.5
63243.2
58955
55221.3
52195.8
49898.7
48260.9
47163.5
46469.9
46047.6
45780.9
45577.3
45368.4
45107.5
44766.3
44330.3
43795
43162.5
42438.2
41629.5
40744
39788.6
38769.4
37690.9
36556.6
35369.1
34130.2
32841.3
31503.1
30116.1
28680.5
27196.5
25664.2
24083.7
22455.2
20779.1
19055.7
17285.5
15469
13606.9
11700.1
9749.21
7755.26
5719.18
3641.98
1524.69
-631.598
-2825.8
-5056.82
-7323.53
-9624.79
-11959.5
-14326.4
-16724.3
-19151.7
-21607.1
-24089.4
-26597.6
-29130.8
-31688.2
-34269.1
-36872.8
-39498.5
-42145.4
-44813
-47500.7
-50207.9
-52934
-55678.6
-58441.1
-61221
-64017.7
-66830.7
-69659.6
-72503.8
-75362.2
-78233.4
-81116.3
-84010
-86914.5
-89823.2
-92832.8
132620
125896
87637.9
65724.9
61418.6
60580.3
56306.9
50086.6
45912.7
46200
50849.6
58081.2
65645.6
71706.7
75228.3
75973.7
74294.3
70860.4
66426.9
61672.8
57115.3
53086
49746.5
47125.3
45160.6
43739.4
42729.4
42000.3
41437.8
40949.4
40465.9
39939.9
39341.8
38656.3
37877.9
37007.9
36051.4
35015.4
33907.2
32733.4
31499.6
30210.8
28870.8
27482.3
26047.6
24568.1
23044.7
21478
19868.3
18215.7
16520.4
14782.5
13002
11179.2
9314.37
7407.84
5460.07
3471.6
1443.03
-624.934
-2731.55
-4875.99
-7057.4
-9274.88
-11527.5
-13814.3
-16134.3
-18486.6
-20870
-23283.6
-25726
-28195.9
-30692
-33213.2
-35758.4
-38327
-40918.1
-43531
-46165.2
-48820
-51494.7
-54188.6
-56901
-59631.3
-62378.9
-65143.3
-67924.2
-70721.2
-73533.7
-76361.6
-79204.2
-82061.4
-84932.6
-87816.4
-90711.6
-93617.2
-96532.5
-99457.4
-102385
-105414
134081
128955
91093.1
69017.3
64380
63188.7
58548.1
51918.5
47288.3
47099.5
51296.1
58135.1
65385.7
71209.4
74551.9
75150
73328.1
69735.6
65115.2
60141.2
55332.1
51025.1
47389.1
44460.8
42185.4
40455.9
39144
38122
37276.8
36516.2
35770.5
34991.4
34148.1
33224.2
32213.4
31116.2
29937
28682
27358
25971.7
24529.1
23035.4
21494.7
19910.2
18284.2
16618.3
14913.6
13170.7
11389.9
9571.51
7715.52
5822.01
3891.05
1922.75
-82.6919
-2125.03
-4203.91
-6318.93
-8469.58
-10655.3
-12875.4