/*--------------------------------*- C++ -*----------------------------------*\
| =========                 |                                                 |
| \\      /  F ield         | OpenFOAM: The Open Source CFD Toolbox           |
|  \\    /   O peration     | Version:  2412                                  |
|   \\  /    A nd           | Website:  www.openfoam.com                      |
|    \\/     M anipulation  |                                                 |
\*---------------------------------------------------------------------------*/
FoamFile
{
    version     2.0;
    format      ascii;
    arch        "LSB;label=32;scalar=64";
    class       surfaceScalarField;
    location    "2";
    object      phi;
}
// * * * * * * * * * * * * * * * * * * * * * * * * * * * * * * * * * * * * * //

dimensions      [0 3 -1 0 0 0 0];

oriented        oriented;

internalField   nonuniform List<scalar> 
39700
(
14.1101
0.0435556
13.9869
0.122988
13.7827
0.203559
13.5049
0.27694
13.1662
0.337601
12.7785
0.386256
12.3508
0.426057
11.8895
0.459349
11.4
0.48721
10.887
0.510424
10.3543
0.529668
9.80574
0.545268
9.24499
0.556992
8.67676
0.564013
8.10684
0.565193
7.54146
0.560064
6.98478
0.550719
6.43744
0.540636
5.90057
0.529325
5.38387
0.508173
4.90414
0.470084
4.47369
0.419534
4.09677
0.364651
3.77337
0.309692
3.50134
0.256827
3.27911
0.205504
3.10947
0.151325
2.99844
0.0911399
2.9433
0.0338548
2.92146
-0.00061749
2.9087
-0.0110876
2.88741
-0.00479289
2.84379
0.0138762
2.76782
0.0399107
2.66894
0.0492507
2.59438
0.00494876
2.53141
-0.0105275
2.38608
0.0884936
2.2109
0.124185
2.00974
0.141572
1.78523
0.159842
1.54211
0.173881
1.28288
0.185314
1.01057
0.192609
0.727884
0.194495
0.42738
0.198621
0.058919
0.241914
-0.565536
0.440751
-1.53155
0.740893
-2.048
0.350142
-2.20556
0.0374952
-2.02044
-0.319279
-1.72188
-0.408871
-1.38807
-0.399036
-1.11091
-0.316508
-0.986567
-0.159767
-0.910326
-0.107689
-0.819061
-0.12005
-0.689444
-0.157072
-0.511876
-0.204566
-0.285357
-0.253401
-0.0136148
-0.298882
0.302179
-0.344273
0.657028
-0.386402
1.04029
-0.420893
1.43949
-0.448715
1.84017
-0.477144
2.28445
-0.557312
2.83175
-0.637896
3.40833
-0.618926
3.92611
-0.542214
4.32828
-0.421653
4.60455
-0.29431
4.78158
-0.194163
4.89632
-0.131099
4.98339
-0.102825
5.07065
-0.102452
5.17898
-0.12297
5.32481
-0.159872
5.52311
-0.211734
5.78803
-0.277734
6.13198
-0.356147
6.55797
-0.437579
7.06885
-0.521793
7.70403
-0.645241
8.41169
-0.716742
8.83247
-0.429403
8.81757
0.00608914
8.56838
0.240028
8.22069
0.338006
7.84069
0.369769
7.46316
0.366886
7.10107
0.351201
6.75639
0.333557
6.42642
0.318592
6.1093
0.305393
5.80668
0.290411
5.5214
0.272531
5.25488
0.253244
0.233972
5.0071
14.4801
0.110904
14.2963
0.306487
13.9948
0.504407
13.5887
0.682093
13.1001
0.824905
12.5479
0.936827
11.9455
1.02659
11.3034
1.09921
10.633
1.15503
9.94834
1.19204
9.26676
1.2078
8.60597
1.20211
7.97967
1.17883
7.39398
1.14467
6.84742
1.10612
6.33499
1.06619
5.85417
1.02452
5.40666
0.980323
4.99376
0.933491
4.61383
0.878341
4.26179
0.81119
3.93653
0.732521
3.64261
0.644836
3.38393
0.553048
3.16343
0.460354
2.98192
0.36834
2.83586
0.27701
2.71375
0.191141
2.60699
0.116669
2.52882
0.0516085
2.49837
-0.0089895
2.5235
-0.0615446
2.60975
-0.108214
2.76689
-0.157904
2.96673
-0.194616
3.06947
-0.14309
2.98966
0.0169293
2.77593
0.238918
2.3786
0.440362
1.90472
0.508237
1.47651
0.456441
1.17372
0.331224
1.03395
0.179669
1.05797
0.0328226
1.22706
-0.0973062
1.52766
-0.213226
1.93832
-0.275345
2.44421
-0.183345
2.6079
0.428575
2.80519
0.055093
2.89539
-0.0919803
2.69305
-0.148774
2.46546
-0.212153
2.27971
-0.25743
2.2293
-0.34342
2.46449
-0.466859
2.82699
-0.513248
3.2075
-0.530536
3.57107
-0.545767
3.90842
-0.563556
4.2219
-0.585712
4.52266
-0.616228
4.82049
-0.657058
5.11435
-0.694177
5.3929
-0.713005
5.6418
-0.711746
5.84199
-0.693413
5.92858
-0.660339
5.87928
-0.599765
5.75468
-0.504521
5.59654
-0.395047
5.45373
-0.291151
5.35525
-0.209459
5.30281
-0.156144
5.28537
-0.128449
5.28959
-0.121948
5.30479
-0.132502
5.3242
-0.157072
5.34321
-0.193363
5.35628
-0.239048
5.35458
-0.290015
5.32412
-0.339372
5.25224
-0.379129
5.11745
-0.400241
4.85046
-0.391614
4.45491
-0.335478
4.22109
-0.212294
4.26613
-0.0569006
4.41272
0.0765507
4.56065
0.173994
4.67505
0.239308
4.74844
0.277318
4.78682
0.29657
4.79954
0.304574
4.79638
0.305561
4.78218
0.303511
4.75674
0.299803
4.71855
0.294582
4.66695
0.288542
0.282784
4.60171
15.3781
0.202068
15.1124
0.571888
14.6167
0.999389
13.9437
1.35416
13.1444
1.62297
12.2434
1.83627
11.2705
1.99754
10.2729
2.09446
9.29851
2.12665
8.38116
2.10609
7.53887
2.04623
6.77846
1.95806
6.10122
1.85091
5.5058
1.73422
4.9884
1.61685
4.54182
1.50529
4.15441
1.40354
3.81094
1.31444
3.49698
1.237
3.20665
1.15688
2.94453
1.05989
2.72291
0.938946
2.54122
0.809686
2.39103
0.684969
2.26481
0.566812
2.1572
0.45446
2.06528
0.345231
1.99316
0.236578
1.95025
0.129069
1.94346
0.0235085
1.95311
-0.0579432
1.93621
-0.0871732
1.89299
-0.108192
1.82154
-0.128504
1.69831
-0.112592
1.54011
-0.0295119
1.38434
0.118374
1.1106
0.445709
0.693875
0.773179
0.603035
0.504297
0.731983
0.235515
0.950948
0.0263096
1.20847
-0.155531
1.46542
-0.292803
1.6704
-0.363491
1.76227
-0.362799
1.725
-0.303932
1.69068
-0.254311
2.08633
-0.198438
2.5746
-0.578893
3.03932
-0.589839
3.43018
-0.563101
3.75326
-0.557327
4.03887
-0.564668
4.27145
-0.597567
4.43232
-0.644788
4.59619
-0.691889
4.7868
-0.734759
4.99994
-0.771399
5.22532
-0.800462
5.44961
-0.820762
5.64965
-0.826475
5.78938
-0.806728
5.84005
-0.754813
5.79536
-0.678623
5.66733
-0.594601
5.47749
-0.515133
5.24939
-0.444608
5.01748
-0.381334
4.82285
-0.324432
4.68995
-0.277467
4.62554
-0.242524
4.62003
-0.219897
4.65713
-0.209092
4.72176
-0.208666
4.80113
-0.216591
4.88458
-0.23089
4.96275
-0.249872
5.02699
-0.27194
5.06929
-0.295433
5.08356
-0.318183
5.06733
-0.336946
5.02266
-0.348245
4.9567
-0.348138
4.88255
-0.331505
4.82638
-0.293612
4.83146
-0.231872
4.91007
-0.149593
5.03041
-0.0573028
5.15484
0.0363192
5.25724
0.123715
5.31983
0.201458
5.33735
0.265497
5.3138
0.314196
5.25708
0.347944
5.177
0.368852
5.08263
0.379011
4.98127
0.380357
4.87919
0.374605
0.362651
4.78299
16.9946
0.351718
16.6005
0.965694
15.7455
1.85379
14.558
2.54067
13.1054
3.07439
11.512
3.42809
9.91854
3.58901
8.43028
3.58019
7.10622
3.44758
5.97283
3.23562
5.03777
2.9766
4.28251
2.70776
3.67907
2.44785
3.1969
2.20887
2.8074
1.99777
2.49412
1.8089
2.23624
1.65079
2.02856
1.51067
1.86351
1.38985
1.73264
1.27477
1.62238
1.15609
1.51844
1.02715
1.41421
0.895706
1.31045
0.767106
1.20341
0.647553
1.08632
0.538718
0.951561
0.437889
0.790666
0.342475
0.595123
0.252674
0.362483
0.162766
0.110171
0.0815326
-0.127394
0.0346364
-0.346696
0.00212133
-0.558454
-0.0249098
-0.747431
-0.0389392
-0.875337
-0.0338854
-0.957684
0.0260925
-1.08279
0.282054
-0.843825
0.172451
-0.213413
-0.348741
0.458545
-0.528882
1.00222
-0.579757
1.39488
-0.599371
1.66433
-0.609689
1.86214
-0.612637
2.06343
-0.624978
2.3617
-0.669756
2.7743
-0.725029
3.26796
-0.73649
3.41117
-0.741584
3.5427
-0.738563
3.70221
-0.739138
3.87746
-0.748249
4.06122
-0.763379
4.23335
-0.783828
4.38247
-0.807459
4.50824
-0.830754
4.60986
-0.849135
4.68207
-0.856192
4.71679
-0.847808
4.70499
-0.821824
4.6425
-0.777311
4.53826
-0.716511
4.41521
-0.646674
4.29701
-0.576215
4.19756
-0.511651
4.122
-0.456533
4.07232
-0.412147
4.05136
-0.377663
4.06086
-0.351171
4.09752
-0.331182
4.15506
-0.316894
4.22632
-0.307718
4.30396
-0.30303
4.38126
-0.302018
4.45266
-0.303805
4.51387
-0.307726
4.56183
-0.313294
4.59426
-0.319714
4.60902
-0.325452
4.60374
-0.32815
4.57643
-0.324939
4.52677
-0.314042
4.45791
-0.29501
4.37747
-0.267186
4.29742
-0.230142
4.23221
-0.183759
4.19186
-0.126881
4.17505
-0.0587656
4.17562
0.01703
4.18626
0.0945055
4.20101
0.168486
4.21518
0.233226
4.22594
0.285361
4.23173
0.324062
4.23214
0.350303
4.22726
0.36567
4.21741
0.371882
4.20284
0.370709
0.363868
4.18312
20.2174
0.683875
19.2641
1.91868
17.0845
4.03279
14.2635
5.3608
11.1859
6.15075
8.3772
6.23506
6.04922
5.91467
4.20261
5.42372
2.78689
4.85927
1.71556
4.30175
0.903084
3.78244
0.286752
3.31563
-0.171111
2.8949
-0.489475
2.51329
-0.669524
2.15976
-0.735205
1.85371
-0.749804
1.645
-0.744458
1.48607
-0.725276
1.35165
-0.694742
1.22518
-0.659292
1.10133
-0.632465
0.980612
-0.623648
0.866679
-0.635001
0.757659
-0.66173
0.652794
-0.697882
0.552571
-0.740003
0.456701
-0.785509
0.363382
-0.829816
0.270749
-0.871877
0.176623
-0.898273
0.0781825
-0.863382
-0.0309839
-0.753481
-0.14107
-0.572026
-0.244557
-0.338637
-0.318376
-0.103254
-0.326593
0.212898
-0.369274
0.764743
-0.395048
1.31854
-0.50636
1.60844
-0.7096
1.83923
-0.803973
2.06738
-0.848019
2.30353
-0.875409
2.5587
-0.903188
2.82813
-0.915329
3.08945
-0.9134
3.30582
-0.907727
3.46524
-0.901343
3.60938
-0.895354
3.74498
-0.891543
3.88152
-0.889024
4.01597
-0.887137
4.13716
-0.882766
4.23477
-0.874301
4.30137
-0.863882
4.33276
-0.852567
4.32712
-0.839148
4.28435
-0.820813
4.20788
-0.794649
4.10589
-0.761346
3.99157
-0.72371
3.8814
-0.684091
3.79112
-0.643897
3.73043
-0.604218
3.70185
-0.566179
3.70264
-0.531038
3.72745
-0.499791
3.77019
-0.473062
3.82556
-0.45088
3.88943
-0.432567
3.95823
-0.417186
4.02839
-0.403992
4.09647
-0.392509
4.15921
-0.382311
4.21356
-0.372777
4.25657
-0.36316
4.28551
-0.353009
4.29807
-0.342263
4.29268
-0.330844
4.26896
-0.31845
4.22853
-0.304725
4.17542
-0.28919
4.11461
-0.271016
4.05019
-0.248868
3.98507
-0.220887
3.92134
-0.185859
3.86033
-0.142901
3.80346
-0.0910185
3.75349
-0.0307629
3.71383
0.0341933
3.68746
0.0986515
3.67613
0.15802
3.67836
0.209504
3.69106
0.25144
3.71079
0.283339
3.7347
0.305596
3.76057
0.319143
3.78661
0.325278
3.81099
0.325818
0.322957
3.83152
27.4328
2.24984
21.0762
8.27503
12.3282
12.7802
5.60943
12.0784
0.729421
11.0288
-2.21353
9.17512
-3.6934
7.39141
-4.38281
6.10999
-4.64474
5.11778
-4.66921
4.3224
-4.565
3.67397
-4.39813
3.14403
-4.21761
2.70914
-4.06378
2.35363
-3.97402
2.06358
-3.95081
1.82377
-3.93468
1.62193
-3.90104
1.44511
-3.84308
1.28597
-3.76534
1.13928
-3.67503
1.0024
-3.57629
0.872766
-3.46612
0.746898
-3.33949
0.620864
-3.19022
0.492754
-3.01062
0.361498
-2.78896
0.222723
-2.5168
0.0778701
-2.18829
-0.0724383
-1.80091
-0.227252
-1.36276
-0.379095
-0.893322
-0.522831
-0.423393
-0.637937
-0.0067911
-0.695858
0.387421
-0.760976
0.774386
-0.783836
1.1277
-0.803378
1.56674
-0.89615
1.97868
-0.958009
2.24285
-1.00588
2.46079
-1.0515
2.66573
-1.07898
2.856
-1.08792
3.02117
-1.0872
3.17231
-1.08287
3.32178
-1.07805
3.46773
-1.06826
3.6013
-1.04924
3.71595
-1.02433
3.80731
-0.997299
3.8738
-0.970059
3.91452
-0.942591
3.93017
-0.913332
3.92318
-0.882433
3.89656
-0.852592
3.85387
-0.825436
3.79969
-0.800834
3.74049
-0.777877
3.68452
-0.755426
3.6384
-0.732483
3.6056
-0.708615
3.58766
-0.684198
3.58529
-0.65976
3.59824
-0.635459
3.62523
-0.611376
3.66394
-0.587808
3.71152
-0.565213
3.76485
-0.543999
3.82063
-0.524043
3.87562
-0.504732
3.92709
-0.485672
3.97307
-0.466886
4.01231
-0.448598
4.04405
-0.430891
4.0678
-0.413382
4.08291
-0.395206
4.0887
-0.375856
4.08508
-0.355873
4.07308
-0.336293
4.05408
-0.317155
4.02803
-0.296684
3.99316
-0.272703
3.94734
-0.244076
3.88939
-0.21043
3.82031
-0.17216
3.74346
-0.130382
3.66416
-0.0861603
3.58912
-0.0398005
3.52464
0.00871273
3.4755
0.0580113
3.44399
0.105294
3.42944
0.148202
3.43008
0.184976
3.44355
0.21452
3.46712
0.236706
3.49786
0.252114
3.53287
0.261659
3.56948
0.26639
3.60556
0.26761
0.266766
3.63983
-6.37122
4.67882
-18.1408
20.0444
-20.3156
14.9545
-19.989
11.7511
-18.4841
9.52302
-17.0083
7.69828
-15.8507
6.23271
-14.8195
5.07741
-13.8672
4.16381
-12.9883
3.44159
-12.1846
2.86813
-11.4539
2.4109
-10.791
2.04355
-10.1847
1.74437
-9.62011
1.49565
-9.0835
1.28355
-8.56319
1.09766
-8.05199
0.9296
-7.54218
0.771439
-7.02823
0.620171
-6.50251
0.471033
-5.95663
0.320668
-5.38454
0.167931
-4.78416
0.0128082
-4.1551
-0.144952
-3.49856
-0.304927
-2.82241
-0.464763
-2.13664
-0.620988
-1.45609
-0.768492
-0.803948
-0.898364
-0.216749
-0.990579
0.268194
-1.03902
0.661575
-1.07255
0.979716
-1.0718
1.24249
-1.08592
1.53704
-1.12507
1.84457
-1.14404
2.0893
-1.16803
2.29948
-1.19235
2.4804
-1.20842
2.63224
-1.22245
2.77173
-1.23577
2.91003
-1.24264
3.0453
-1.2384
3.17145
-1.22463
3.28151
-1.20351
3.37205
-1.17404
3.44327
-1.13557
3.49644
-1.0925
3.53343
-1.04921
3.55642
-1.00796
3.56857
-0.969737
3.57501
-0.934958
3.58053
-0.903391
3.5866
-0.874391
3.59259
-0.847411
3.59771
-0.822185
3.60179
-0.798415
3.60555
-0.775855
3.61053
-0.75432
3.61848
-0.733577
3.63059
-0.713433
3.64704
-0.693392
3.66719
-0.672814
3.69011
-0.651501
3.71474
-0.629643
3.73985
-0.607515
3.764
-0.585328
3.78579
-0.563023
3.80432
-0.540501
3.81924
-0.51789
3.83029
-0.495336
3.83727
-0.473097
3.84038
-0.451654
3.8406
-0.431393
3.83936
-0.411911
3.83713
-0.391742
3.83186
-0.368925
3.81917
-0.342206
3.79446
-0.311463
3.75551
-0.27734
3.70379
-0.241372
3.64351
-0.205151
3.57983
-0.169163
3.51781
-0.133641
3.46124
-0.0983228
3.41209
-0.0623654
3.37126
-0.0249742
3.33966
0.0138829
3.31882
0.0525105
3.30993
0.0883159
3.31335
0.119432
3.32815
0.145269
3.35232
0.165855
3.3832
0.181709
3.41809
0.193427
3.45457
0.201648
3.4906
0.207033
3.52469
0.210348
0.212386
3.55614
-67.8532
4.65649
-57.196
9.38713
-48.8625
6.62075
-42.2726
5.161
-36.7765
4.02643
-32.249
3.17023
-28.5325
2.51549
-25.4596
2.00359
-22.8896
1.59264
-20.7054
1.25609
-18.8148
0.975972
-17.145
0.73918
-15.6393
0.53583
-14.2561
0.358715
-12.9656
0.202455
-11.7465
0.061385
-10.5821
-0.0701666
-9.46062
-0.195826
-8.3783
-0.315333
-7.33217
-0.430991
-6.32209
-0.54478
-5.34981
-0.65819
-4.41711
-0.772364
-3.52645
-0.88673
-2.68384
-0.998077
-1.90086
-1.10058
-1.19302
-1.1879
-0.571395
-1.26108
-0.0451837
-1.31735
0.386825
-1.35874
0.730622
-1.37078
1.00905
-1.36357
1.24906
-1.35843
1.49488
-1.35346
1.72543
-1.34407
1.91969
-1.34286
2.09616
-1.34205
2.25046
-1.34221
2.3882
-1.34852
2.52076
-1.35846
2.64929
-1.36777
2.7703
-1.37298
2.8806
-1.36867
2.97908
-1.35223
3.06527
-1.32586
3.13948
-1.29255
3.20522
-1.2545
3.26775
-1.21281
3.32901
-1.1685
3.38795
-1.12293
3.44276
-1.0776
3.49193
-1.03379
3.53431
-0.992306
3.56922
-0.95337
3.59655
-0.916933
3.61686
-0.883096
3.63129
-0.852163
3.6412
-0.824066
3.64764
-0.798221
3.65117
-0.773973
3.65219
-0.75091
3.65103
-0.728771
3.64801
-0.70707
3.64373
-0.685423
3.63888
-0.663762
3.63396
-0.642048
3.62917
-0.620252
3.62441
-0.598322
3.61958
-0.57616
3.61483
-0.553942
3.61063
-0.532094
3.60739
-0.510718
3.60484
-0.489383
3.60164
-0.467524
3.59569
-0.44479
3.58497
-0.420858
3.56838
-0.395245
3.5464
-0.367562
3.52087
-0.337896
3.49377
-0.306242
3.46664
-0.272759
3.44072
-0.23864
3.4169
-0.205069
3.39543
-0.171884
3.37555
-0.138313
3.35609
-0.103705
3.33693
-0.0683157
3.32027
-0.0336589
3.30988
-0.00126945
3.30854
0.0282079
3.31681
0.0545233
3.33336
0.0776147
3.35608
0.0975491
3.38294
0.114296
3.41199
0.128271
3.44146
0.139828
3.46995
0.149217
3.49635
0.156862
3.51982
0.16322
0.16874
3.54005
-113.444
-9.04872
-88.6872
-15.37
-71.8024
-10.2642
-58.8554
-7.78624
-48.8694
-5.95992
-41.0209
-4.67871
-34.7589
-3.74719
-29.699
-3.05711
-25.5615
-2.54594
-22.1353
-2.17142
-19.2575
-1.90341
-16.8025
-1.7177
-14.676
-1.59294
-12.8078
-1.51206
-11.1462
-1.46225
-9.65451
-1.43395
-8.30891
-1.41997
-7.0941
-1.41554
-5.99677
-1.41834
-4.99971
-1.43457
-4.08884
-1.46318
-3.2548
-1.50092
-2.49251
-1.54476
-1.79992
-1.59112
-1.1762
-1.63569
-0.619517
-1.67375
-0.121202
-1.706
0.311805
-1.71827
0.665731
-1.7015
0.948121
-1.67712
1.18825
-1.64564
1.40697
-1.61068
1.60529
-1.57998
1.78404
-1.55291
1.94674
-1.52628
2.09197
-1.50658
2.22677
-1.49449
2.35526
-1.48771
2.47569
-1.48535
2.58653
-1.48516
2.68841
-1.48503
2.78327
-1.48284
2.87511
-1.4752
2.96711
-1.45873
3.05865
-1.43175
3.1466
-1.39474
3.22764
-1.34972
3.29973
-1.29906
3.36237
-1.24533
3.41598
-1.1908
3.46111
-1.1371
3.49825
-1.08542
3.52788
-1.03657
3.55079
-0.99109
3.56805
-0.9492
3.58033
-0.910608
3.58736
-0.87466
3.58861
-0.841049
3.58446
-0.810066
3.57642
-0.782215
3.56644
-0.757484
3.55599
-0.735143
3.54607
-0.714243
3.53757
-0.694268
3.5314
-0.675152
3.52828
-0.656712
3.52853
-0.638459
3.53191
-0.619843
3.53791
-0.600452
3.54572
-0.580215
3.55425
-0.559254
3.56232
-0.537585
3.56899
-0.515039
3.57371
-0.491464
3.57608
-0.466642
3.57541
-0.439977
3.57099
-0.410975
3.56257
-0.379685
3.55054
-0.346843
3.53621
-0.313334
3.52127
-0.279683
3.5061
-0.245721
3.48939
-0.210948
3.47021
-0.175585
3.44965
-0.140925
3.43071
-0.108224
3.41671
-0.0780484
3.40961
-0.0505239
3.40959
-0.0253702
3.41585
-0.00227433
3.42723
0.0189059
3.44233
0.0382584
3.45977
0.0558781
3.47816
0.0717535
3.49635
0.0860308
3.51331
0.0988769
3.52836
0.110249
3.541
0.120408
3.55098
0.129499
0.137989
3.55822
-54.1898
-10.1683
-49.5558
-20.0041
-44.5277
-15.2925
-39.3625
-12.9518
-34.5939
-10.7289
-30.2813
-8.99191
-26.4411
-7.58806
-23.0581
-6.44103
-20.0877
-5.51757
-17.4822
-4.77829
-15.199
-4.18838
-13.1965
-3.72225
-11.4349
-3.35707
-9.87715
-3.07277
-8.49132
-2.85153
-7.25063
-2.67867
-6.13228
-2.54301
-5.11666
-2.43661
-4.18739
-2.35394
-3.33708
-2.29224
-2.5613
-2.24755
-1.8575
-2.21477
-1.22136
-2.19271
-0.648907
-2.17757
-0.141211
-2.16014
0.289341
-2.12461
0.640434
-2.08202
0.921051
-2.02715
1.15377
-1.96081
1.35694
-1.90285
1.54381
-1.85211
1.71721
-1.80223
1.87563
-1.75587
2.02123
-1.71545
2.159
-1.68056
2.28832
-1.65198
2.40741
-1.62922
2.51614
-1.61167
2.61618
-1.60029
2.71107
-1.59463
2.80352
-1.59178
2.89356
-1.58694
2.97966
-1.57518
3.06018
-1.55301
3.13384
-1.51911
3.19967
-1.4743
3.25711
-1.42096
3.3062
-1.36207
3.34743
-1.30066
3.38176
-1.23941
3.41051
-1.18033
3.43489
-1.1245
3.45537
-1.07198
3.47138
-1.02226
3.48197
-0.975196
3.48718
-0.931477
3.48871
-0.892103
3.48915
-0.857652
3.49043
-0.82775
3.49318
-0.801571
3.49736
-0.778443
3.50292
-0.757643
3.50993
-0.738351
3.51838
-0.719954
3.52799
-0.702137
3.53839
-0.68461
3.54926
-0.666944
3.56035
-0.648694
3.57159
-0.629584
3.58279
-0.609466
3.59329
-0.58796
3.60189
-0.564581
3.60726
-0.539013
3.60834
-0.511402
3.60476
-0.482208
3.59702
-0.451719
3.58644
-0.420243
3.57474
-0.38821
3.56314
-0.355827
3.55174
-0.32284
3.53998
-0.289108
3.52785
-0.255027
3.51645
-0.221217
3.50742
-0.188466
3.50198
-0.157627
3.50046
-0.129048
3.50244
-0.102555
3.50716
-0.0779101
3.51393
-0.0549367
3.52226
-0.03351
3.5317
-0.0135411
3.54179
0.00505543
3.5521
0.0223767
3.56203
0.038528
3.57104
0.0536372
3.57856
0.0678532
3.58405
0.0811856
3.5871
0.0937385
3.58769
0.1053
0.116144
3.58617
2.63121
-5.59325
-9.97569
-7.39731
-15.3437
-9.92474
-17.348
-10.9479
-17.446
-10.6315
-16.5405
-9.89815
-15.2087
-8.92074
-13.7499
-7.90097
-12.2997
-6.96914
-10.915
-6.16468
-9.61889
-5.48659
-8.41415
-4.92942
-7.29805
-4.47604
-6.26461
-4.10958
-5.30709
-3.813
-4.4196
-3.57078
-3.5976
-3.37042
-2.83804
-3.2025
-2.13932
-3.06008
-1.49744
-2.94288
-0.905955
-2.8494
-0.370458
-2.76261
0.0985165
-2.67648
0.493087
-2.59005
0.807515
-2.49585
1.0545
-2.39354
1.25733
-2.30451
1.43918
-2.22651
1.61355
-2.15152
1.77681
-2.08183
1.92736
-2.01806
2.069
-1.95908
2.20308
-1.90495
2.32837
-1.85547
2.44427
-1.81094
2.55068
-1.77265
2.64845
-1.74105
2.73901
-1.71611
2.82283
-1.69781
2.90015
-1.68548
2.97143
-1.67645
3.03722
-1.66602
3.09779
-1.649
3.15312
-1.6216
3.20312
-1.58245
3.24783
-1.53248
3.28748
-1.47425
3.32248
-1.4109
3.35313
-1.34534
3.37927
-1.2798
3.40035
-1.21588
3.41597
-1.15485
3.42685
-1.09784
3.43517
-1.04582
3.44377
-0.999277
3.45445
-0.957874
3.46727
-0.920821
3.4811
-0.887536
3.49494
-0.857774
3.5084
-0.831351
3.52147
-0.807936
3.5342
-0.786931
3.5468
-0.767612
3.55942
-0.749362
3.572
-0.731627
3.58406
-0.713703
3.59477
-0.69482
3.60315
-0.674386
3.60825
-0.65218
3.60936
-0.628281
3.60631
-0.602868
3.59983
-0.576323
3.59129
-0.548998
3.58215
-0.521114
3.57373
-0.492944
3.56727
-0.464701
3.56368
-0.436344
3.56295
-0.407369
3.56407
-0.376994
3.5659
-0.344851
3.56788
-0.311441
3.57018
-0.27785
3.57333
-0.245096
3.57775
-0.213823
3.58319
-0.184204
3.58903
-0.156208
3.5948
-0.129827
3.6003
-0.105072
3.60546
-0.0819212
3.61028
-0.0603075
3.61473
-0.0401254
3.61876
-0.0212467
3.62224
-0.00353153
3.62503
0.0131632
3.62696
0.0289792
3.62787
0.0440521
3.62749
0.0585188
3.62545
0.0725498
3.62135
0.086073
0.0988579
3.61553
20.3799
0.0986469
14.2455
-1.26324
9.01056
-4.69046
4.44164
-6.38005
1.33464
-7.52573
-0.591785
-7.97308
-1.75791
-7.75618
-2.43476
-7.22601
-2.76756
-6.63855
-2.84081
-6.09401
-2.72719
-5.60322
-2.48491
-5.17517
-2.16146
-4.80351
-1.78963
-4.48606
-1.39069
-4.21732
-0.978667
-3.98904
-0.564512
-3.79183
-0.158755
-3.61675
0.225481
-3.45432
0.574776
-3.30408
0.871458
-3.1604
1.10607
-3.01339
1.29082
-2.87718
1.44555
-2.7597
1.58804
-2.65265
1.7344
-2.55368
1.87918
-2.46268
2.01654
-2.37717
2.1479
-2.29615
2.27277
-2.21992
2.39003
-2.14844
2.49958
-2.08165
2.60149
-2.0198
2.69614
-1.963
2.78399
-1.91161
2.86481
-1.86624
2.93836
-1.82732
3.00478
-1.79521
3.0646
-1.77027
3.11865
-1.75213
3.16773
-1.7381
3.21225
-1.72309
3.25229
-1.70163
3.2878
-1.6698
3.31868
-1.62616
3.34481
-1.57163
3.36606
-1.50874
3.38238
-1.44073
3.39418
-1.37093
3.40271
-1.3024
3.41001
-1.23755
3.41823
-1.17772
3.42875
-1.12325
3.44167
-1.07386
3.45618
-1.02908
3.47133
-0.988486
3.48671
-0.951799
3.50223
-0.918806
3.51785
-0.889263
3.53327
-0.862779
3.54795
-0.838733
3.56118
-0.816402
3.57232
-0.795129
3.58086
-0.77441
3.58639
-0.753819
3.58872
-0.732871
3.58797
-0.711107
3.58462
-0.688306
3.57958
-0.664653
3.57399
-0.640461
3.56905
-0.61595
3.56605
-0.591576
3.56645
-0.567867
3.57143
-0.544723
3.58088
-0.52112
3.59298
-0.495602
3.6051
-0.467334
3.61515
-0.436371
3.62247
-0.403408
3.62772
-0.369386
3.63207
-0.335302
3.63643
-0.301969
3.64106
-0.26974
3.64567
-0.238674
3.6499
-0.208903
3.65363
-0.180608
3.65687
-0.153926
3.65966
-0.128907
3.66204
-0.105519
3.66401
-0.0836664
3.66555
-0.0632143
3.66659
-0.0440056
3.66707
-0.0258776
3.66687
-0.00867192
3.66589
0.00775947
3.66402
0.0235542
3.66114
0.0388531
3.65716
0.0538072
3.65177
0.0685624
0.0829774
3.64488
21.4836
-0.355747
21.3357
-1.11546
19.1141
-2.4693
16.3477
-3.61426
13.3315
-4.51041
10.4849
-5.12761
8.15312
-5.42609
6.39489
-5.47005
5.11769
-5.36431
4.19799
-5.17806
3.53458
-4.94438
3.0525
-4.69851
2.70213
-4.45939
2.45151
-4.24246
2.27901
-4.05249
2.16834
-3.8866
2.10565
-3.73781
2.0788
-3.59897
2.07867
-3.46364
2.09781
-3.33305
2.13348
-3.20623
2.1926
-3.08284
2.2702
-2.96513
2.35414
-2.85411
2.44042
-2.74955
2.52723
-2.65122
2.61222
-2.55849
2.69439
-2.47023
2.77346
-2.38618
2.84882
-2.30633
2.92006
-2.23081
2.98709
-2.15988
3.04992
-2.0939
3.10871
-2.03315
3.16359
-1.97791
3.21439
-1.92853
3.26084
-1.88532
3.3028
-1.84877
3.3402
-1.81932
3.37296
-1.79656
3.40075
-1.77761
3.42297
-1.7571
3.43895
-1.72952
3.44845
-1.69138
3.45202
-1.64205
3.45106
-1.58327
3.44755
-1.51815
3.44373
-1.45015
3.44159
-1.38236
3.44241
-1.31711
3.44657
-1.25585
3.45364
-1.19919
3.46295
-1.14716
3.47396
-1.09967
3.48637
-1.05647
3.49993
-1.01719
3.51424
-0.981416
3.52866
-0.948688
3.54242
-0.918625
3.55479
-0.890888
3.56522
-0.865058
3.57344
-0.840664
3.57938
-0.81727
3.58312
-0.794531
3.58495
-0.772201
3.58537
-0.750049
3.5852
-0.727889
3.58542
-0.705671
3.58701
-0.683567
3.59099
-0.661931
3.59859
-0.641153
3.61032
-0.62098
3.6248
-0.600056
3.63909
-0.576754
3.65038
-0.550211
3.65747
-0.520605
3.66083
-0.48879
3.66182
-0.455697
3.66197
-0.422178
3.66249
-0.388824
3.66384
-0.355863
3.66578
-0.323388
3.66797
-0.291658
3.67032
-0.260983
3.67287
-0.231621
3.67564
-0.203742
3.67861
-0.177422
3.68166
-0.152656
3.68466
-0.129372
3.68745
-0.10746
3.68987
-0.0867816
3.69176
-0.06719
3.69298
-0.0485392
3.69341
-0.0306905
3.69294
-0.0135166
3.69149
0.00310344
3.68899
0.0192962
3.68537
0.0351913
3.68061
0.0509144
0.0665635
3.67469
18.7895
-0.359448
18.6571
-0.983256
17.9185
-1.7311
16.7144
-2.41071
15.156
-2.9528
13.3933
-3.36589
11.6346
-3.66877
10.0371
-3.87418
8.66104
-3.99032
7.50688
-4.02641
6.55968
-4.00017
5.79343
-3.93578
5.18429
-3.85429
4.70775
-3.77047
4.33952
-3.68932
4.05739
-3.60998
3.84264
-3.529
3.68044
-3.44314
3.56117
-3.35111
3.47523
-3.25419
3.41594
-3.15433
3.379
-3.05358
3.36008
-2.95416
3.35498
-2.85721
3.3603
-2.76329
3.37294
-2.67251
3.39031
-2.5847
3.41074
-2.49971
3.43302
-2.41769
3.45629
-2.33901
3.47997
-2.26408
3.50353
-2.19321
3.52648
-2.12677
3.54848
-2.06523
3.56943
-2.00909
3.58921
-1.95867
3.60746
-1.91407
3.62346
-1.8754
3.63617
-1.84276
3.64426
-1.81551
3.64644
-1.79076
3.64182
-1.76361
3.6304
-1.72943
3.61331
-1.68588
3.59272
-1.63335
3.57137
-1.57415
3.55185
-1.5112
3.53599
-1.44721
3.52468
-1.38429
3.51802
-1.32397
3.51572
-1.26734
3.51743
-1.21493
3.52279
-1.16676
3.53122
-1.12254
3.54192
-1.0818
3.55402
-1.04408
3.56663
-1.00898
3.57906
-0.976232
3.59078
-0.945612
3.60138
-0.916906
3.61057
-0.889814
3.61824
-0.864059
3.62453
-0.839448
3.62973
-0.815783
3.6342
-0.792871
3.63836
-0.770569
3.64286
-0.748891
3.64864
-0.728078
3.65659
-0.708237
3.66656
-0.688679
3.67661
-0.668051
3.68378
-0.645056
3.68591
-0.619224
3.68299
-0.591053
3.67667
-0.561373
3.66919
-0.53091
3.66238
-0.500106
3.65736
-0.469128
3.65435
-0.437923
3.65303
-0.406538
3.65315
-0.375257
3.65468
-0.344408
3.65762
-0.314283
3.66188
-0.285104
3.66728
-0.257025
3.67351
-0.230132
3.68026
-0.204457
3.68719
-0.179986
3.69395
-0.156669
3.70027
-0.134435
3.70592
-0.113196
3.71068
-0.0928562
3.71444
-0.0733189
3.71708
-0.0544896
3.71855
-0.0362773
3.7188
-0.0185854
3.71783
-0.00130879
3.71562
0.0156596
3.71222
0.0324252
0.0491046
3.70785
16.7374
-0.280031
16.5036
-0.749565
15.9978
-1.22573
15.2555
-1.66903
14.359
-2.05709
13.3751
-2.38293
12.3518
-2.64676
11.3268
-2.85059
10.3334
-2.99864
9.40329
-3.09839
8.56126
-3.16051
7.81928
-3.19652
7.17839
-3.21648
6.63191
-3.22743
6.17051
-3.23172
5.78378
-3.2274
5.46117
-3.2109
5.19286
-3.17968
4.97032
-3.13376
4.78603
-3.07543
4.63384
-3.00798
4.50871
-2.93459
4.40596
-2.85785
4.32159
-2.77955
4.25221
-2.70089
4.19493
-2.62249
4.14738
-2.54466
4.10771
-2.46779
4.07443
-2.3924
4.04642
-2.31923
4.02296
-2.24909
4.00358
-2.1825
3.98771
-2.1198
3.97471
-2.06134
3.96388
-2.00755
3.95444
-1.95872
3.94556
-1.91485
3.93605
-1.87572
3.9242
-1.84091
3.90786
-1.80933
3.88522
-1.77846
3.85588
-1.74484
3.82133
-1.70572
3.7844
-1.66009
3.74819
-1.60861
3.71514
-1.55292
3.68689
-1.4951
3.66441
-1.4372
3.6482
-1.38085
3.63825
-1.32708
3.63405
-1.27643
3.63465
-1.22904
3.63893
-1.18476
3.64579
-1.14331
3.65429
-1.10439
3.66369
-1.06774
3.67344
-1.03315
3.6831
-1.00047
3.69232
-0.969572
3.70086
-0.940325
3.70853
-0.912527
3.71527
-0.885975
3.72104
-0.860558
3.72604
-0.836252
3.73067
-0.813113
3.73549
-0.791133
3.74068
-0.769942
3.74517
-0.748538
3.74636
-0.72553
3.7416
-0.700193
3.73024
-0.673191
3.71427
-0.645868
3.69703
-0.619113
3.68146
-0.592944
3.66916
-0.566871
3.66047
-0.540313
3.65491
-0.512897
3.65189
-0.484677
3.6511
-0.455907
3.65246
-0.426862
3.65589
-0.397808
3.6612
-0.368981
3.66809
-0.340581
3.67622
-0.312766
3.68519
-0.285655
3.69463
-0.259335
3.70415
-0.233858
3.71343
-0.209248
3.72218
-0.185506
3.73015
-0.162615
3.73718
-0.140538
3.74313
-0.119233
3.7479
-0.0986456
3.75146
-0.0787204
3.75378
-0.0593953
3.75485
-0.0405952
3.75471
-0.0222352
3.75338
-0.00422663
3.75092
0.0135193
0.0311035
3.74765
15.0537
-0.212033
14.8666
-0.562711
14.5393
-0.898774
14.0866
-1.21696
13.5415
-1.51277
12.9321
-1.77447
12.2784
-1.99431
11.5977
-2.17118
10.9064
-2.30901
10.2226
-2.41648
9.56434
-2.50432
8.94731
-2.58187
8.38292
-2.65474
7.8763
-2.72375
7.42682
-2.78543
7.03013
-2.83419
6.68057
-2.8651
6.3727
-2.87586
6.10171
-2.86711
5.86329
-2.84163
5.65351
-2.80311
5.46882
-2.7551
5.30594
-2.70045
5.162
-2.64138
5.03466
-2.57959
4.92189
-2.51602
4.8218
-2.45115
4.73271
-2.38555
4.65323
-2.32003
4.58214
-2.25551
4.51853
-2.1931
4.46183
-2.13368
4.4116
-2.07768
4.36721
-2.0253
4.32766
-1.97657
4.29153
-1.93137
4.25723
-1.88955
4.22321
-1.85091
4.18791
-1.81503
4.14981
-1.78086
4.10796
-1.74647
4.06266
-1.70965
4.01548
-1.66895
3.96883
-1.62414
3.92522
-1.57603
3.88682
-1.52588
3.85503
-1.47499
3.83034
-1.42447
3.81244
-1.37518
3.80053
-1.32764
3.79359
-1.28219
3.79056
-1.23893
3.79049
-1.19781
3.79259
-1.15871
3.79621
-1.12149
3.80085
-1.08603
3.80611
-1.05223
3.81167
-1.02001
3.81727
-0.989313
3.82272
-0.960065
3.8279
-0.932151
3.83271
-0.905382
3.8369
-0.879478
3.83981
-0.854054
3.84032
-0.828662
3.83692
-0.80294
3.82837
-0.776801
3.81472
-0.750528
3.79797
-0.724696
3.78141
-0.699835
3.76764
-0.675925
3.7574
-0.65241
3.74988
-0.628607
3.74381
-0.60411
3.73842
-0.578926
3.73365
-0.553162
3.72981
-0.526878
3.72729
-0.500149
3.72631
-0.473097
3.72696
-0.445857
3.72922
-0.418562
3.73293
-0.39134
3.73788
-0.364313
3.74378
-0.337592
3.75035
-0.311277
3.75729
-0.285453
3.76432
-0.26019
3.7712
-0.23554
3.77769
-0.211537
3.78362
-0.188199
3.78884
-0.16553
3.79323
-0.143521
3.79671
-0.122152
3.79925
-0.101397
3.80079
-0.0812151
3.80135
-0.0615513
3.80092
-0.0423394
3.79953
-0.0235087
3.79722
-0.00498769
0.0133097
3.7943
13.7169
-0.168438
13.6005
-0.446508
13.3902
-0.688969
13.095
-0.922305
12.7329
-1.15143
12.3179
-1.36041
11.8561
-1.53369
11.3553
-1.67174
10.8314
-1.78661
10.3043
-1.89125
9.79315
-1.99513
9.31184
-2.10278
8.86781
-2.21316
8.46193
-2.32054
8.09077
-2.41716
7.7495
-2.49603
7.43398
-2.55293
7.14152
-2.58699
6.87066
-2.60008
6.62057
-2.59564
6.39061
-2.5775
6.17986
-2.54898
5.98697
-2.51245
5.81019
-2.46975
5.6478
-2.42263
5.49864
-2.37255
5.36198
-2.32045
5.23736
-2.26717
5.12442
-2.21359
5.02259
-2.16045
4.93084
-2.10838
4.84791
-2.05804
4.77271
-2.01002
4.70438
-1.96476
4.64215
-1.92237
4.5851
-1.88258
4.53192
-1.84486
4.48082
-1.80852
4.4298
-1.77295
4.37731
-1.73754
4.32293
-1.70153
4.26767
-1.66409
4.21345
-1.62472
4.16244
-1.58342
4.1164
-1.54058
4.07639
-1.49676
4.0428
-1.45256
4.01546
-1.40855
3.99382
-1.36522
3.9772
-1.32293
3.96481
-1.28193
3.95589
-1.24236
3.94978
-1.20424
3.94588
-1.16754
3.94369
-1.13221
3.94274
-1.09818
3.94259
-1.06536
3.94282
-1.03368
3.94297
-1.00307
3.94251
-0.973386
3.94091
-0.944502
3.93769
-0.916276
3.93251
-0.888612
3.92543
-0.861471
3.91694
-0.834879
3.90801
-0.808938