/*--------------------------------*- C++ -*----------------------------------*\
| =========                 |                                                 |
| \\      /  F ield         | OpenFOAM: The Open Source CFD Toolbox           |
|  \\    /   O peration     | Version:  2412                                  |
|   \\  /    A nd           | Website:  www.openfoam.com                      |
|    \\/     M anipulation  |                                                 |
\*---------------------------------------------------------------------------*/
FoamFile
{
    version     2.0;
    format      ascii;
    arch        "LSB;label=32;scalar=64";
    class       volVectorField;
    location    "2";
    object      U;
}
// * * * * * * * * * * * * * * * * * * * * * * * * * * * * * * * * * * * * * //

dimensions      [0 1 -1 0 0 0 0];

internalField   nonuniform List<vector> 
20000
(
(1071.88 1.4587 0)
(1216.64 6.18511 0)
(1200.77 13.0989 0)
(1140.23 20.595 0)
(1086.62 27.3383 0)
(1046.11 32.8278 0)
(1013.95 37.15 0)
(984.208 40.6441 0)
(952.467 43.6606 0)
(916.619 46.4118 0)
(876.431 48.9461 0)
(832.689 51.2606 0)
(786.424 53.4653 0)
(738.396 55.7422 0)
(689.72 58.1692 0)
(639.476 60.2895 0)
(584.786 61.4869 0)
(526.613 61.2592 0)
(473.506 60.8679 0)
(432.388 61.0047 0)
(400.729 61.0034 0)
(373.485 60.3262 0)
(348.238 58.3655 0)
(324.072 54.9232 0)
(301.318 50.6374 0)
(280.595 46.151 0)
(263.08 41.4868 0)
(248.845 35.9442 0)
(246.797 28.8021 0)
(249.404 22.552 0)
(252.163 18.4163 0)
(255.012 16.2675 0)
(259.187 15.7573 0)
(268.596 16.722 0)
(287.596 19.3921 0)
(474.676 16.7352 0)
(531.287 0.771365 0)
(363.74 0.894095 0)
(289.261 -0.404862 0)
(252.21 -3.35146 0)
(222.588 -7.90253 0)
(200.709 -14.039 0)
(185.342 -21.5169 0)
(175.216 -30.1976 0)
(169.659 -40.031 0)
(169.56 -51.0114 0)
(177.816 -61.9484 0)
(181.207 -66.7962 0)
(224.508 -60.3529 0)
(242.686 -42.3455 0)
(182.398 -37.3311 0)
(122.118 -25.3086 0)
(-43.4662 34.5166 0)
(-19.2556 32.7373 0)
(-20.3696 30.2299 0)
(-23.5327 24.6712 0)
(-27.8652 16.6755 0)
(-29.0918 6.72847 0)
(-23.5294 -5.04219 0)
(-9.52859 -18.8535 0)
(14.6628 -34.6432 0)
(44.4551 -51.4889 0)
(78.2579 -68.8973 0)
(113.592 -85.7259 0)
(148.132 -100.786 0)
(181.543 -113.66 0)
(212.037 -123.904 0)
(247.508 -131.943 0)
(314.572 -129.54 0)
(373.658 -123.458 0)
(418.556 -118.453 0)
(430.802 -108.138 0)
(424.069 -94.073 0)
(410.639 -79.7742 0)
(397.8 -66.6163 0)
(388.048 -55.2914 0)
(382.585 -46.3296 0)
(381.253 -40.0338 0)
(383.219 -36.2472 0)
(389.253 -34.6073 0)
(401.628 -34.7522 0)
(426.018 -37.5775 0)
(464.951 -43.8743 0)
(508.98 -55.6823 0)
(528.28 -79.147 0)
(702.485 -134.582 0)
(807.104 -157.125 0)
(765.224 -131.043 0)
(714.54 -100.156 0)
(668.239 -75.4153 0)
(625.561 -58.3097 0)
(588.936 -46.2477 0)
(557.645 -38.0481 0)
(528.622 -32.7993 0)
(499.928 -27.6834 0)
(470.891 -22.4559 0)
(443.731 -18.1751 0)
(419.988 -15.3999 0)
(399.621 -14.2701 0)
(376.723 -14.8769 0)
(1084.27 8.10814 0)
(1236.98 27.8721 0)
(1225.93 53.4593 0)
(1160.41 79.0718 0)
(1093.86 100.685 0)
(1036.56 117.178 0)
(986.838 128.883 0)
(940.415 136.55 0)
(893.486 141.181 0)
(844.047 143.761 0)
(792.175 144.934 0)
(739.621 145.007 0)
(688.496 144.186 0)
(639.656 142.597 0)
(592.479 140.068 0)
(544.229 136.087 0)
(492.409 131.466 0)
(443.012 127.758 0)
(405.993 125.607 0)
(381.936 122.229 0)
(362.119 116.103 0)
(340.881 107.476 0)
(318.541 97.0909 0)
(297.743 86.0346 0)
(279.101 75.2019 0)
(262.11 64.9686 0)
(247.664 54.5014 0)
(235.954 43.922 0)
(226.521 35.2793 0)
(218.477 30.1508 0)
(214.204 28.0534 0)
(214.978 27.8771 0)
(222.7 28.4146 0)
(242.08 28.4205 0)
(281.804 27.3404 0)
(408.588 22.979 0)
(425.472 21.9627 0)
(397.716 25.1375 0)
(354.598 26.979 0)
(302.561 24.9704 0)
(247.017 15.3362 0)
(201.205 -2.88282 0)
(176.531 -24.3496 0)
(172.665 -44.9035 0)
(182.799 -64.0131 0)
(202.769 -82.1623 0)
(232.624 -97.415 0)
(273.54 -107.02 0)
(364.11 -75.38 0)
(424.145 -53.6396 0)
(389.241 -48.5748 0)
(336.558 -44.4307 0)
(285.563 -48.5796 0)
(246.096 -55.3479 0)
(214.148 -62.1908 0)
(225.802 -64.6697 0)
(249.405 -65.8446 0)
(274.362 -68.1449 0)
(299.779 -71.2621 0)
(325.085 -75.0463 0)
(348.037 -79.3943 0)
(370.04 -85.3253 0)
(393.388 -93.2528 0)
(416.076 -100.866 0)
(437.068 -106.279 0)
(455.617 -109.458 0)
(470.993 -110.76 0)
(484.432 -111.491 0)
(491.962 -109.817 0)
(491.359 -103.217 0)
(483.176 -93.0278 0)
(469.771 -80.431 0)
(456.846 -66.8114 0)
(446.616 -53.5524 0)
(438.425 -41.804 0)
(431.244 -32.4481 0)
(424.336 -26.1259 0)
(417.4 -23.3015 0)
(410.768 -24.1444 0)
(404.962 -28.5823 0)
(400.905 -36.2816 0)
(398.879 -46.3016 0)
(395.597 -57.0109 0)
(389.831 -66.6937 0)
(378.882 -74.3699 0)
(358.512 -69.0866 0)
(330.329 -36.3306 0)
(333.825 -3.12355 0)
(349.183 10.9024 0)
(361.074 14.0277 0)
(366.26 13.4255 0)
(368.968 11.6043 0)
(370.019 10.6294 0)
(369.184 11.3227 0)
(367.552 13.1658 0)
(365.298 15.6048 0)
(362.586 18.0946 0)
(359.55 20.1112 0)
(355.993 21.5033 0)
(347.257 22.3992 0)
(1126.8 21.186 0)
(1297.11 67.4075 0)
(1290.09 121.664 0)
(1209.13 170.537 0)
(1114 208.275 0)
(1023.44 235.84 0)
(940.604 256.284 0)
(864.467 271.584 0)
(794.056 282.323 0)
(728.331 288.334 0)
(666.214 289.327 0)
(607.274 285.454 0)
(551.672 277.322 0)
(499.464 265.813 0)
(450.884 252.081 0)
(406.864 237.643 0)
(367.333 225.225 0)
(331.705 217.51 0)
(302.112 212.553 0)
(281.399 205.132 0)
(266.782 192.61 0)
(253.793 175.761 0)
(240.789 157.32 0)
(228.794 139.487 0)
(218.408 122.958 0)
(208.453 107.901 0)
(198.39 94.2797 0)
(188.986 82.544 0)
(183.33 73.3354 0)
(184.439 65.8962 0)
(185.694 58.9519 0)
(184.563 52.8553 0)
(184.578 47.8587 0)
(188.883 43.4771 0)
(198.364 39.0755 0)
(206.179 37.5031 0)
(190.691 40.7049 0)
(174.081 44.8085 0)
(156.258 46.6401 0)
(134.245 26.774 0)
(119.361 -11.189 0)
(117.289 -52.213 0)
(128.12 -86.6227 0)
(147.201 -112.512 0)
(169.194 -130.704 0)
(194.66 -142.379 0)
(219.754 -143.239 0)
(247.797 -132.376 0)
(328.88 -116.431 0)
(400.254 -105.851 0)
(374.687 -110.888 0)
(357.884 -122.687 0)
(354.177 -131.396 0)
(353.039 -137.524 0)
(356.451 -142.696 0)
(362.761 -146.803 0)
(372.244 -150.303 0)
(385.288 -153.691 0)
(400.922 -157.045 0)
(418.132 -160.29 0)
(436.338 -163.605 0)
(454.466 -167.24 0)
(471.809 -171.42 0)
(480.932 -173.942 0)
(480.89 -172.604 0)
(473.531 -167.407 0)
(461.678 -158.747 0)
(446.978 -146.319 0)
(431.272 -129.794 0)
(417.548 -110.834 0)
(407.79 -92.4411 0)
(402.289 -76.0478 0)
(400.339 -62.7446 0)
(400.623 -53.2017 0)
(401.77 -47.3215 0)
(402.728 -44.5155 0)
(402.822 -44.0453 0)
(401.684 -45.2474 0)
(399.107 -47.6402 0)
(394.987 -51.0622 0)
(389.487 -55.4166 0)
(383.096 -60.2681 0)
(376.23 -64.7649 0)
(369.133 -67.3195 0)
(362.223 -65.9636 0)
(356.451 -58.9696 0)
(353.352 -45.6121 0)
(356.336 -28.9945 0)
(366.354 -13.9071 0)
(381.069 -2.41517 0)
(396.436 5.59905 0)
(409.472 11.3739 0)
(417.998 15.835 0)
(421.135 19.696 0)
(419.211 23.6274 0)
(413.406 27.8608 0)
(405.01 32.1705 0)
(395.16 36.1856 0)
(384.822 39.5649 0)
(371.399 42.1664 0)
(1217.12 38.0511 0)
(1416.58 144.975 0)
(1398.99 254.45 0)
(1274.47 333.041 0)
(1123.85 390.686 0)
(982.443 438.155 0)
(858.764 474.92 0)
(749.644 497.344 0)
(651.565 504.08 0)
(564.184 495.973 0)
(489.647 475.594 0)
(428.867 447.26 0)
(378.52 415.485 0)
(334.361 383.867 0)
(294.264 354.89 0)
(259.692 329.987 0)
(232.202 309.766 0)
(209.542 295.006 0)
(190.482 284.667 0)
(176.325 274.878 0)
(168.265 261.889 0)
(162.734 242.892 0)
(155.412 220.638 0)
(149.387 197.374 0)
(144.249 174.196 0)
(138.673 151.744 0)
(131.883 130.832 0)
(123.661 112.461 0)
(115.213 97.1316 0)
(109.295 83.3799 0)
(99.6589 70.9778 0)
(84.7779 62.788 0)
(72.4401 55.812 0)
(62.7502 46.9989 0)
(54.4553 36.4806 0)
(45.2098 24.7647 0)
(26.2635 6.25572 0)
(-10.5906 -25.2613 0)
(-39.4262 -106.34 0)
(10.1534 -147.631 0)
(54.1001 -162.601 0)
(94.9447 -168.276 0)
(132.406 -172.323 0)
(162.64 -173.454 0)
(185.363 -171.078 0)
(211.475 -169.368 0)
(248.495 -171.746 0)
(282.248 -171.796 0)
(303.065 -169.81 0)
(312.754 -165.914 0)
(319.82 -162.044 0)
(327.033 -160.253 0)
(335.136 -160.951 0)
(343.976 -163.135 0)
(353.27 -166.325 0)
(362.593 -169.989 0)
(371.897 -173.639 0)
(380.875 -177.078 0)
(388.543 -179.937 0)
(394.117 -181.747 0)
(396.672 -181.801 0)
(393.562 -178.536 0)
(384.857 -169.829 0)
(373.801 -155.562 0)
(364.055 -137.795 0)
(357.476 -119.209 0)
(354.212 -102.198 0)
(353.734 -88.0407 0)
(355.519 -76.74 0)
(359.137 -67.841 0)
(363.977 -61.105 0)
(369.255 -56.3845 0)
(374.181 -53.5932 0)
(378.025 -52.6092 0)
(380.207 -53.2286 0)
(380.367 -55.1976 0)
(378.378 -58.2692 0)
(374.303 -62.21 0)
(368.269 -66.7366 0)
(360.419 -71.4532 0)
(351.141 -75.7436 0)
(341.152 -78.7749 0)
(331.158 -80.008 0)
(321.512 -79.2373 0)
(312.308 -76.2669 0)
(303.855 -70.7284 0)
(296.754 -62.1068 0)
(292.281 -49.62 0)
(291.268 -32.769 0)
(294.391 -12.5717 0)
(301.818 8.44206 0)
(311.56 27.7162 0)
(321.185 43.581 0)
(329.07 55.4962 0)
(334.429 63.7068 0)
(337.179 68.8296 0)
(337.586 71.5347 0)
(336.006 72.4056 0)
(333.006 71.8527 0)
(327.272 70.1453 0)
(1404.39 21.8784 0)
(1674.78 237.31 0)
(1564.27 440.296 0)
(1288.7 602.905 0)
(1022.86 740.448 0)
(799.55 833.106 0)
(613.86 869.488 0)
(467.935 854.959 0)
(359.32 806.512 0)
(277.832 741.539 0)
(212.925 669.77 0)
(167.373 600.352 0)
(140.71 536.176 0)
(126.448 479.811 0)
(117.026 433.04 0)
(97.4073 395.179 0)
(71.9136 369.55 0)
(48.7052 348.091 0)
(30.3189 328.309 0)
(16.7618 306.964 0)
(6.95096 282.582 0)
(-1.73671 255.672 0)
(-10.7022 228.1 0)
(-19.3957 200.358 0)
(-27.9679 174.06 0)
(-35.9939 151.163 0)
(-43.2387 131.899 0)
(-49.7724 114.605 0)
(-55.0683 97.3801 0)
(-58.0139 79.198 0)
(-59.0785 59.0167 0)
(-58.3457 35.4711 0)
(-54.9018 6.84898 0)
(-48.6354 -29.5459 0)
(-37.8682 -76.1835 0)
(-20.9613 -130.697 0)
(1.27667 -178.25 0)
(30.3335 -199.307 0)
(73.2695 -204.297 0)
(104.153 -209.487 0)
(133.747 -206.804 0)
(162.719 -203.143 0)
(194.024 -201.252 0)
(226.444 -201.5 0)
(252.63 -197.015 0)
(269.568 -189.659 0)
(283.365 -182.59 0)
(296.261 -176.873 0)
(307.774 -172.886 0)
(318.927 -170.71 0)
(330.187 -169.623 0)
(341.359 -169.523 0)
(351.331 -170.267 0)
(359.342 -171.824 0)
(365.038 -174.363 0)
(368.559 -177.544 0)
(369.999 -180.59 0)
(368.455 -182.345 0)
(362.958 -181.418 0)
(354.479 -177.462 0)
(344.67 -170.776 0)
(335.161 -161.482 0)
(327.584 -149.776 0)
(323.24 -136.396 0)
(322.347 -122.608 0)
(324.389 -109.636 0)
(328.635 -98.3014 0)
(334.353 -89.0314 0)
(340.904 -81.9132 0)
(347.699 -76.7892 0)
(354.133 -73.414 0)
(359.594 -71.5453 0)
(363.53 -70.9699 0)
(365.491 -71.4827 0)
(365.177 -72.8617 0)
(362.454 -74.8826 0)
(357.326 -77.3733 0)
(349.894 -80.1769 0)
(340.286 -82.9739 0)
(328.859 -85.1681 0)
(316.717 -85.8872 0)
(305.052 -84.2592 0)
(294.334 -80.2318 0)
(284.856 -74.1088 0)
(277.009 -66.0012 0)
(271.021 -55.9118 0)
(266.599 -43.5882 0)
(263.347 -28.6167 0)
(261.49 -11.1 0)
(261.871 7.63774 0)
(265.219 25.5928 0)
(270.966 41.518 0)
(277.756 54.487 0)
(284.324 64.1023 0)
(289.851 70.4808 0)
(294.07 74.0583 0)
(296.997 75.3753 0)
(298.726 75.0008 0)
(299.511 73.5595 0)
(297.828 71.6497 0)
(1693.32 -279.507 0)
(2112.39 370.588 0)
(1629.26 1013.31 0)
(820.254 1461.76 0)
(274.6 1628.11 0)
(30.795 1514.96 0)
(-90.5299 1329.62 0)
(-175.222 1163.43 0)
(-225.197 1012.13 0)
(-252.051 879.826 0)
(-263.582 767.069 0)
(-262.609 673.107 0)
(-256.284 594.611 0)
(-250.727 529.318 0)
(-250.068 474.931 0)
(-256.9 428.446 0)
(-265.957 387.72 0)
(-272.224 350.416 0)
(-275.421 315.33 0)
(-276.301 281.727 0)
(-275.944 249.357 0)
(-275.041 218.002 0)
(-272.834 187.573 0)
(-267.311 158.496 0)
(-257.096 131.702 0)
(-243.358 107.339 0)
(-228.752 83.9469 0)
(-213.613 58.9096 0)
(-194.866 30.0082 0)
(-170.009 -3.6069 0)
(-139.632 -42.9186 0)
(-104.759 -89.6905 0)
(-68.5594 -137.64 0)
(-33.511 -182.036 0)
(1.1257 -212.166 0)
(33.8602 -218.43 0)
(73.2106 -219.537 0)
(108.43 -221.345 0)
(142.143 -219.891 0)
(172.472 -218.186 0)
(199.733 -218.5 0)
(222.55 -215.098 0)
(239.26 -208.458 0)
(253.749 -202.077 0)
(267.695 -197.244 0)
(281.39 -193.917 0)
(294.71 -191.139 0)
(306.91 -188.77 0)
(317.609 -187.384 0)
(326.892 -187.227 0)
(334.758 -188.067 0)
(340.131 -189.168 0)
(341.386 -189.235 0)
(339.139 -187.712 0)
(335.05 -185.264 0)
(330.612 -182.456 0)
(326.389 -179.429 0)
(322.438 -175.954 0)
(318.972 -171.515 0)
(316.442 -165.595 0)
(315.065 -158.079 0)
(314.92 -149.343 0)
(316.17 -139.938 0)
(318.878 -130.377 0)
(322.792 -121.083 0)
(327.484 -112.425 0)
(332.531 -104.747 0)
(337.601 -98.3887 0)
(342.489 -93.5499 0)
(346.927 -90.1493 0)
(350.473 -87.9583 0)
(352.619 -86.7825 0)
(352.954 -86.4824 0)
(351.217 -86.9087 0)
(347.328 -87.8208 0)
(341.386 -88.868 0)
(333.672 -89.6764 0)
(324.768 -89.8826 0)
(315.426 -89.129 0)
(306.518 -87.1502 0)
(299.074 -83.7348 0)
(292.55 -78.7945 0)
(285.523 -72.4143 0)
(278.158 -64.4241 0)
(270.848 -54.6395 0)
(264.034 -43.2113 0)
(258.364 -30.2779 0)
(254.038 -15.7627 0)
(251.226 0.115843 0)
(250.034 16.1493 0)
(250.956 30.8667 0)
(253.669 43.2628 0)
(257.521 52.8229 0)
(261.871 59.5044 0)
(266.219 63.5984 0)
(270.238 65.5493 0)
(273.735 65.8259 0)
(276.588 64.8825 0)
(278.873 63.1929 0)
(278.615 61.2095 0)
(-7910.37 -922.941 0)
(-1162.08 2920.71 0)
(-728.752 2986.09 0)
(-1153.07 2431.93 0)
(-1241.76 2046.84 0)
(-1214.6 1702.03 0)
(-1168.83 1412.65 0)
(-1112.48 1177.81 0)
(-1050.7 988.112 0)
(-989.154 836.708 0)
(-931.046 715.844 0)
(-877.607 618.307 0)
(-829.718 538.05 0)
(-787.164 471.013 0)
(-749.167 414.361 0)
(-714.294 365.59 0)
(-680.054 322.517 0)
(-645.139 283.358 0)
(-609.306 247.065 0)
(-572.786 212.931 0)
(-536.32 180.38 0)
(-499.559 148.696 0)
(-459.953 116.958 0)
(-414.709 84.1936 0)
(-363.683 49.36 0)
(-309.675 11.2729 0)
(-256.355 -31.3041 0)
(-206.077 -75.9829 0)
(-156.408 -120.777 0)
(-105.002 -163.899 0)
(-54.7035 -201.646 0)
(-11.6873 -226.564 0)
(26.5335 -241.66 0)
(57.5344 -247.213 0)
(89.3948 -242.931 0)
(115.449 -236.894 0)
(142.697 -230.832 0)
(168.121 -228.211 0)
(190.45 -226.818 0)
(207.329 -223.699 0)
(221.576 -221.578 0)
(234.909 -221.237 0)
(247.537 -221.607 0)
(260.051 -221.772 0)
(272.702 -222.032 0)
(284.482 -222.331 0)
(292.849 -221.347 0)
(297.35 -217.868 0)
(299.539 -212.742 0)
(301.054 -207.16 0)
(302.323 -201.944 0)
(303.051 -197.527 0)
(303.2 -193.896 0)
(303.416 -190.553 0)
(304.333 -186.866 0)
(306.106 -182.488 0)
(308.596 -177.319 0)
(311.551 -171.35 0)
(314.729 -164.609 0)
(317.936 -157.229 0)
(320.953 -149.503 0)
(323.764 -141.892 0)
(326.655 -134.743 0)
(329.807 -128.123 0)
(333.028 -122.02 0)
(335.918 -116.506 0)
(338.068 -111.708 0)
(339.237 -107.745 0)
(339.549 -104.625 0)
(339.217 -102.282 0)
(338.16 -100.682 0)
(336.026 -99.7808 0)
(332.516 -99.4611 0)
(327.523 -99.4833 0)
(321.223 -99.4194 0)
(314.089 -98.7103 0)
(306.876 -96.8738 0)
(300.365 -93.5538 0)
(294.399 -88.593 0)
(288.088 -82.0466 0)
(281.17 -74.176 0)
(273.578 -65.5665 0)
(265.687 -56.2598 0)
(258.573 -45.8525 0)
(252.546 -34.1944 0)
(247.621 -21.6943 0)
(244.228 -9.07972 0)
(242.245 2.99268 0)
(241.101 14.1337 0)
(240.722 23.913 0)
(241.56 32.0983 0)
(243.864 38.6372 0)
(247.309 43.5633 0)
(251.367 46.9831 0)
(255.578 49.0744 0)
(259.596 50.0592 0)
(263.199 50.1766 0)
(266.25 49.6658 0)
(268.805 48.7819 0)
(268.651 47.7816 0)
(-20519 6242.27 0)
(-594.053 3707.14 0)
(-4409.85 2840.86 0)
(-3433.71 2250.54 0)
(-2991.2 1787.06 0)
(-2627.29 1422.15 0)
(-2327.19 1137.78 0)
(-2072.87 917.02 0)
(-1857.65 745.742 0)
(-1675.53 612.42 0)
(-1521.2 507.018 0)
(-1388.6 421.561 0)
(-1271.38 350.688 0)
(-1164.39 290.744 0)
(-1064.83 238.805 0)
(-971.598 192.624 0)
(-883.288 150.284 0)
(-797.848 110.161 0)
(-713.612 70.9512 0)
(-630.979 33.4312 0)
(-550.652 -2.97303 0)
(-473.528 -38.674 0)
(-399.787 -73.7771 0)
(-328.421 -108.585 0)
(-258.695 -143.298 0)
(-191.881 -176.982 0)
(-132.216 -206.187 0)
(-80.5643 -231.351 0)
(-36.0164 -251.715 0)
(3.52486 -266.593 0)
(38.3716 -274.303 0)
(67.7099 -276.152 0)
(96.0834 -268.954 0)
(119.11 -260.52 0)
(140.816 -253.576 0)
(160.822 -249.717 0)
(178.059 -246.038 0)
(191.958 -243.102 0)
(204.15 -243.022 0)
(215.815 -245.361 0)
(227.759 -249.021 0)
(239.039 -252.96 0)
(247.868 -255.248 0)
(254.332 -254.945 0)
(259.748 -252.738 0)
(264.87 -249.501 0)
(269.581 -245.581 0)
(274.084 -240.728 0)
(278.716 -234.668 0)
(283.452 -227.61 0)
(288.133 -219.956 0)
(292.555 -212.029 0)
(296.698 -204.018 0)
(300.83 -196.001 0)
(305.249 -187.949 0)
(309.989 -179.815 0)
(314.876 -171.606 0)
(319.663 -163.445 0)
(324.029 -155.59 0)
(327.557 -148.248 0)
(329.758 -141.533 0)
(330.632 -135.531 0)
(330.829 -130.212 0)
(330.916 -125.521 0)
(330.834 -121.47 0)
(330.209 -118.07 0)
(328.833 -115.281 0)
(326.642 -112.96 0)
(323.695 -110.916 0)
(320.167 -109.065 0)
(316.223 -107.39 0)
(311.934 -105.8 0)
(307.356 -104.129 0)
(302.622 -102.132 0)
(297.766 -99.4854 0)
(292.409 -95.8242 0)
(286.283 -90.879 0)
(279.783 -84.6811 0)
(273.418 -77.602 0)
(267.437 -69.7621 0)
(261.823 -60.9186 0)
(256.604 -51.0826 0)
(252.367 -40.5856 0)
(249.523 -30.1026 0)
(247.147 -20.3541 0)
(244.348 -11.6676 0)
(241.405 -4.07696 0)
(239.033 2.49177 0)
(237.955 8.27675 0)
(238.579 13.5142 0)
(240.683 18.3037 0)
(243.879 22.5691 0)
(247.68 26.1873 0)
(251.672 29.0321 0)
(255.564 31.1748 0)
(259.113 32.7174 0)
(262.173 33.7807 0)
(264.663 34.4886 0)
(266.683 34.9766 0)
(266.02 35.3934 0)
(-33321.1 -2090.13 0)
(-972.926 -566.937 0)
(-6571.75 -266.521 0)
(-4959.94 -136.58 0)
(-4181.45 -64.5514 0)
(-3524.31 -25.9031 0)
(-2990.21 -7.42982 0)
(-2547.3 -3.34783 0)
(-2179.11 -9.83556 0)
(-1874.57 -23.839 0)
(-1624.09 -42.6888 0)
(-1415.83 -64.0627 0)
(-1238.11 -86.149 0)
(-1083.9 -107.785 0)
(-948.759 -128.493 0)
(-828.723 -147.944 0)
(-720.557 -165.714 0)
(-622.029 -181.312 0)
(-532.901 -194.258 0)
(-451.649 -207.522 0)
(-377.683 -221.804 0)
(-309.956 -236.909 0)
(-247.311 -252.23 0)
(-188.968 -267.046 0)
(-134.69 -280.993 0)
(-84.7648 -294.042 0)
(-39.4479 -306.267 0)
(1.59094 -315.735 0)
(36.2906 -320.359 0)
(66.5017 -320.5 0)
(92.5858 -312.403 0)
(113.611 -302.533 0)
(132.916 -295.054 0)
(150.696 -288.804 0)
(165.522 -282.391 0)
(178.558 -278.165 0)
(190.467 -276.725 0)
(201.539 -277.463 0)
(211.533 -279.752 0)
(219.732 -282.629 0)
(226.645 -285.49 0)
(233.059 -287.968 0)
(239.351 -289.276 0)
(245.785 -288.503 0)
(252.557 -285.218 0)
(259.662 -279.614 0)
(266.919 -272.053 0)
(273.973 -262.899 0)
(280.472 -252.613 0)
(286.288 -241.628 0)
(291.445 -230.273 0)
(295.983 -218.756 0)
(300.137 -207.157 0)
(304.368 -195.528 0)
(308.965 -184.115 0)
(313.827 -173.363 0)
(318.489 -163.661 0)
(322.188 -155.167 0)
(324.534 -147.938 0)
(325.713 -141.967 0)
(325.782 -137.123 0)
(324.785 -133.108 0)
(323.135 -129.627 0)
(321.264 -126.625 0)
(319.338 -124.148 0)
(317.362 -122.122 0)
(315.313 -120.361 0)
(313.182 -118.629 0)
(310.996 -116.69 0)
(308.821 -114.365 0)
(306.619 -111.51 0)
(304.143 -107.991 0)
(301.241 -103.755 0)
(298.061 -98.9377 0)
(294.841 -93.8564 0)
(291.58 -88.6478 0)
(287.952 -83.0706 0)
(283.576 -76.9076 0)
(278.686 -70.1925 0)
(274.269 -62.9486 0)
(270.893 -55.2811 0)
(267.71 -47.471 0)
(263.729 -39.9465 0)
(258.863 -33.2507 0)
(253.591 -27.6301 0)
(248.911 -22.7461 0)
(245.834 -18.1346 0)
(244.719 -13.4828 0)
(245.354 -8.69563 0)
(247.296 -3.87662 0)
(250.071 0.792287 0)
(253.274 5.1588 0)
(256.588 9.13829 0)
(259.724 12.6997 0)
(262.558 15.8421 0)
(264.979 18.5928 0)
(266.903 20.951 0)
(268.312 22.9872 0)
(269.348 24.8025 0)
(267.93 26.5078 0)
(-15612.9 -4329.05 0)
(-207.6 -3756.59 0)
(-4225.61 -2783.75 0)
(-3443.61 -2252.66 0)
(-3048.25 -1809.6 0)
(-2673.77 -1466.35 0)
(-2341.86 -1197.01 0)
(-2043.64 -987.241 0)
(-1777.31 -827.109 0)
(-1541.5 -706.681 0)
(-1335.16 -616.843 0)
(-1156.07 -549.867 0)
(-1000.76 -500.035 0)
(-865.611 -463.21 0)
(-747.469 -435.951 0)
(-643.293 -415.719 0)
(-550.285 -400.8 0)
(-466.106 -390.235 0)
(-389.134 -383.573 0)
(-318.514 -380.318 0)
(-253.854 -379.638 0)
(-194.84 -380.71 0)
(-141.11 -383.064 0)
(-91.8224 -385.94 0)
(-46.7347 -388.196 0)
(-6.65853 -388.721 0)
(27.9382 -388.502 0)
(59.4946 -383.369 0)
(83.4195 -371.846 0)
(104.121 -361.193 0)
(123.513 -352.11 0)
(140.687 -342.648 0)
(155.52 -333.892 0)
(168.693 -327.142 0)
(180.667 -322.381 0)
(191.812 -319.39 0)
(201.615 -317.695 0)
(209.763 -316.927 0)
(216.727 -317.267 0)
(223.219 -318.501 0)
(229.933 -319.894 0)
(237.095 -320.438 0)
(244.428 -319.147 0)
(251.537 -315.322 0)
(258.278 -308.707 0)
(264.783 -299.477 0)
(271.184 -288.163 0)
(277.375 -275.396 0)
(283.152 -261.735 0)
(288.493 -247.579 0)
(293.484 -233.259 0)
(298.255 -219.149 0)
(302.964 -205.566 0)
(307.428 -192.76 0)
(310.979 -181.048 0)
(313.279 -170.707 0)
(314.814 -161.934 0)
(316.05 -154.774 0)
(316.93 -149.075 0)
(317.303 -144.653 0)
(317.134 -141.284 0)
(316.555 -138.614 0)
(315.791 -136.292 0)
(315.006 -134.071 0)
(314.249 -131.775 0)
(313.497 -129.219 0)
(312.692 -126.214 0)
(311.772 -122.643 0)
(310.697 -118.524 0)
(309.505 -114.073 0)
(308.226 -109.545 0)
(306.673 -105.014 0)
(304.396 -100.438 0)
(300.958 -95.8609 0)
(296.522 -91.3658 0)
(291.87 -86.9087 0)
(287.531 -82.3192 0)
(283.327 -77.3718 0)
(279.151 -71.9474 0)
(275.184 -66.245 0)
(271.175 -60.8023 0)
(266.686 -56.0373 0)
(261.804 -51.8651 0)
(257.252 -47.8917 0)
(253.963 -43.6712 0)
(252.445 -38.914 0)
(252.605 -33.628 0)
(254.026 -28.0181 0)
(256.245 -22.3287 0)
(258.872 -16.7667 0)
(261.617 -11.4766 0)
(264.277 -6.54081 0)
(266.718 -1.99299 0)
(268.853 2.16496 0)
(270.627 5.95576 0)
(272.015 9.42102 0)
(272.957 12.5959 0)
(273.477 15.5338 0)
(273.689 18.2306 0)
(271.726 20.7915 0)
(256.731 -1522.1 0)
(1802.46 -3521.38 0)
(-1723.27 -3049.49 0)
(-1824.3 -2700.1 0)
(-1734.39 -2329.24 0)
(-1576.56 -2017.94 0)
(-1434.22 -1739.48 0)
(-1290.11 -1494.69 0)
(-1149.87 -1289.38 0)
(-1016.26 -1121.31 0)
(-892.302 -985.591 0)
(-778.683 -877.566 0)
(-675.521 -791.942 0)
(-582.26 -724.259 0)
(-498.143 -670.617 0)
(-421.936 -627.767 0)
(-352.446 -593.203 0)
(-288.619 -565.098 0)
(-229.736 -542.161 0)
(-175.347 -523.802 0)
(-125.087 -509.083 0)
(-78.9439 -496.775 0)
(-37.9211 -486.95 0)
(-0.613866 -478.415 0)
(33.0128 -468.456 0)
(60.4218 -454.192 0)
(81.8282 -440.463 0)
(102.166 -427.688 0)
(120.639 -414.639 0)
(137.438 -402.454 0)
(152.553 -391.78 0)
(165.936 -382.508 0)
(178.045 -374.442 0)
(189.014 -367.244 0)
(198.858 -360.829 0)
(207.765 -355.555 0)
(215.764 -351.497 0)
(223.014 -348.508 0)
(229.701 -346.401 0)
(236.011 -344.916 0)
(242.209 -343.529 0)
(248.539 -341.377 0)
(255.003 -337.473 0)
(261.412 -331.05 0)
(267.613 -321.749 0)
(273.586 -309.671 0)
(279.349 -295.382 0)
(284.913 -279.736 0)
(290.391 -263.597 0)
(295.748 -247.658 0)
(300.466 -232.437 0)
(304.04 -218.321 0)
(306.567 -205.541 0)
(308.452 -194.227 0)
(310.012 -184.377 0)
(311.409 -175.824 0)
(312.636 -168.427 0)
(313.601 -162.166 0)
(314.236 -156.965 0)
(314.582 -152.651 0)
(314.753 -148.974 0)
(314.836 -145.645 0)
(314.893 -142.429 0)
(314.974 -139.207 0)
(315.129 -135.946 0)
(315.354 -132.598 0)
(315.475 -129.074 0)
(315.153 -125.343 0)
(313.932 -121.513 0)
(311.514 -117.787 0)
(308.104 -114.33 0)
(304.084 -111.201 0)
(299.51 -108.343 0)
(294.365 -105.579 0)
(289.013 -102.623 0)
(284.096 -99.2732 0)
(280.116 -95.6487 0)
(276.949 -91.952 0)
(273.979 -88.2483 0)
(270.839 -84.5367 0)
(267.614 -80.7318 0)
(264.621 -76.5389 0)
(262.367 -71.6334 0)
(261.304 -65.8523 0)
(261.487 -59.2879 0)
(262.652 -52.2315 0)
(264.454 -45.021 0)
(266.583 -37.9375 0)
(268.802 -31.1738 0)
(270.942 -24.8409 0)
(272.893 -18.9867 0)
(274.59 -13.615 0)
(275.996 -8.70093 0)
(277.095 -4.20233 0)
(277.885 -0.0673373 0)
(278.371 3.75996 0)
(278.563 7.33703 0)
(278.485 10.7207 0)
(278.214 13.9267 0)
(276.002 16.9669 0)
(1609.73 310.021 0)
(2724.18 -1237.94 0)
(1783.65 -2183.83 0)
(290.988 -2311.2 0)
(-137.305 -2177.43 0)
(-252.19 -2033.55 0)
(-333.481 -1848.2 0)
(-371.685 -1648.5 0)
(-382.472 -1464.43 0)
(-369.604 -1305.16 0)
(-341.859 -1169.45 0)
(-305.216 -1056.57 0)
(-265.084 -963.017 0)
(-224.516 -885.719 0)
(-185.929 -821.72 0)
(-149.54 -768.38 0)
(-115.023 -723.496 0)
(-81.7601 -685.269 0)
(-49.4811 -651.968 0)
(-18.5952 -623.437 0)
(10.904 -598.692 0)
(37.602 -574.295 0)
(58.472 -551.878 0)
(78.0072 -531.694 0)
(96.7242 -512.34 0)
(114.23 -494.463 0)
(130.83 -478.494 0)
(146.056 -463.989 0)
(160.05 -450.683 0)
(173.013 -438.496 0)
(184.994 -427.16 0)
(195.911 -416.464 0)
(205.766 -406.436 0)
(214.573 -397.104 0)
(222.547 -388.547 0)
(229.826 -380.914 0)
(236.488 -374.283 0)
(242.643 -368.66 0)
(248.438 -364.032 0)
(254.08 -360.199 0)
(259.789 -356.528 0)
(265.68 -351.976 0)
(271.686 -345.518 0)
(277.64 -336.543 0)
(283.44 -324.955 0)
(288.962 -311.111 0)
(293.857 -295.693 0)
(297.761 -279.527 0)
(300.72 -263.431 0)
(303.056 -248.099 0)
(304.918 -233.966 0)
(306.435 -221.176 0)
(307.845 -209.71 0)
(309.192 -199.536 0)
(310.361 -190.617 0)
(311.27 -182.89 0)
(311.923 -176.255 0)
(312.424 -170.58 0)
(312.897 -165.718 0)
(313.409 -161.544 0)
(313.992 -157.927 0)
(314.6 -154.691 0)
(315.072 -151.688 0)
(315.201 -148.85 0)
(314.901 -146.158 0)
(314.22 -143.596 0)
(313.076 -141.141 0)
(311.159 -138.783 0)
(308.184 -136.549 0)
(304.119 -134.432 0)
(299.286 -132.405 0)
(294.266 -130.466 0)
(289.558 -128.502 0)
(285.515 -126.328 0)
(282.401 -123.787 0)
(280.045 -120.783 0)
(277.955 -117.287 0)
(275.867 -113.317 0)
(273.812 -108.786 0)
(271.935 -103.479 0)
(270.572 -97.2481 0)
(270.063 -90.0966 0)
(270.414 -82.1706 0)
(271.414 -73.7634 0)
(272.826 -65.2227 0)
(274.446 -56.8493 0)
(276.121 -48.8577 0)
(277.738 -41.3773 0)
(279.219 -34.4673 0)
(280.514 -28.1354 0)
(281.594 -22.3546 0)
(282.446 -17.0767 0)
(283.064 -12.243 0)
(283.451 -7.79105 0)
(283.613 -3.65949 0)
(283.56 0.209673 0)
(283.305 3.8729 0)
(282.852 7.38432 0)
(282.353 10.7898 0)
(280.152 14.0827 0)
(1623.96 23.0565 0)
(2050.28 -303.004 0)
(1985.15 -725.249 0)
(1618.2 -1087.01 0)
(1206.98 -1342.46 0)
(871.311 -1471.31 0)
(618.862 -1482.47 0)
(435.668 -1418.22 0)
(304.476 -1324.98 0)
(219.201 -1228.67 0)
(167.382 -1136.18 0)
(138.093 -1053.07 0)
(122.907 -979.915 0)
(116.291 -916.839 0)
(112.848 -862.738 0)
(110.828 -815.886 0)
(110.009 -774.471 0)
(111.052 -736.985 0)
(114.577 -701.799 0)
(120.199 -669.622 0)
(127.681 -640.134 0)
(136.55 -613.165 0)
(146.642 -588.827 0)
(157.412 -566.855 0)
(168.276 -546.87 0)
(178.771 -528.655 0)
(188.714 -511.885 0)
(198.27 -496.069 0)
(207.572 -481.024 0)
(216.435 -466.706 0)
(224.667 -453.097 0)
(232.294 -440.205 0)
(239.34 -428.049 0)
(245.82 -416.633 0)
(251.787 -405.99 0)
(257.277 -396.198 0)
(262.393 -387.33 0)
(267.336 -379.449 0)
(272.328 -372.595 0)
(277.61 -366.618 0)
(283.283 -360.901 0)
(289.037 -354.466 0)
(294.266 -346.417 0)
(298.551 -336.269 0)
(301.837 -324.075 0)
(304.219 -310.348 0)
(305.785 -295.779 0)
(306.654 -280.992 0)
(307.107 -266.518 0)
(307.545 -252.826 0)
(308.118 -240.252 0)
(308.715 -228.945 0)
(309.237 -218.946 0)
(309.651 -210.224 0)
(309.993 -202.661 0)
(310.336 -196.103 0)
(310.725 -190.385 0)
(311.152 -185.37 0)
(311.529 -180.969 0)
(311.783 -177.125 0)
(311.963 -173.78 0)
(312.077 -170.875 0)
(311.965 -168.347 0)
(311.466 -166.118 0)
(310.516 -164.093 0)
(309.115 -162.207 0)
(307.24 -160.449 0)
(304.788 -158.813 0)
(301.703 -157.199 0)
(298.1 -155.362 0)
(294.349 -153.106 0)
(291.063 -150.423 0)
(288.468 -147.362 0)
(286.216 -143.875 0)
(283.99 -139.853 0)
(281.833 -135.238 0)
(279.912 -129.9 0)
(278.339 -123.68 0)
(277.342 -116.529 0)
(277.098 -108.527 0)
(277.5 -99.8474 0)
(278.323 -90.7783 0)
(279.378 -81.6387 0)
(280.54 -72.6947 0)
(281.726 -64.1389 0)
(282.883 -56.0929 0)
(283.971 -48.6183 0)
(284.961 -41.7302 0)
(285.828 -35.4102 0)
(286.556 -29.6174 0)
(287.13 -24.2983 0)
(287.544 -19.3937 0)
(287.793 -14.8436 0)
(287.876 -10.5911 0)
(287.793 -6.58387 0)
(287.551 -2.77367 0)
(287.154 0.884798 0)
(286.599 4.43303 0)
(286.023 7.9084 0)
(283.977 11.3409 0)
(1385.54 -72.551 0)
(1665.64 -272.529 0)
(1691.58 -500.908 0)
(1567.04 -685.877 0)
(1376.95 -817.424 0)
(1174.95 -907.177 0)
(987.57 -965.926 0)
(826.907 -998.678 0)
(695.291 -1006.86 0)
(589.42 -993.775 0)
(504.42 -965.694 0)
(437.075 -929.862 0)
(386.02 -892.084 0)
(349.256 -856.135 0)
(322.231 -823.037 0)
(301.227 -792.336 0)
(284.222 -763.096 0)
(270.466 -734.549 0)
(259.711 -706.527 0)
(251.657 -679.441 0)
(246.061 -653.671 0)
(242.877 -629.383 0)
(241.969 -606.838 0)
(242.975 -585.975 0)
(245.441 -566.556 0)
(248.862 -548.267 0)
(252.717 -530.789 0)
(256.752 -513.938 0)
(260.96 -497.704 0)
(265.321 -482.111 0)
(269.758 -467.151 0)
(274.149 -452.821 0)
(278.327 -439.167 0)
(282.221 -426.25 0)
(285.882 -414.138 0)
(289.405 -402.884 0)
(292.903 -392.535 0)
(296.503 -383.171 0)
(300.418 -374.865 0)
(304.813 -367.524 0)
(309.334 -360.719 0)
(313.148 -353.745 0)
(315.661 -345.848 0)
(316.801 -336.496 0)
(316.756 -325.628 0)
(315.911 -313.623 0)
(314.779 -301.034 0)
(313.66 -288.391 0)
(312.613 -276.121 0)
(311.705 -264.562 0)
(311.001 -253.948 0)
(310.516 -244.366 0)
(310.253 -235.782 0)
(310.2 -228.096 0)
(310.311 -221.187 0)
(310.53 -214.948 0)
(310.798 -209.304 0)
(311.057 -204.198 0)
(311.252 -199.586 0)
(311.325 -195.406 0)
(311.236 -191.602 0)
(310.96 -188.158 0)
(310.475 -185.059 0)
(309.755 -182.256 0)
(308.744 -179.679 0)
(307.36 -177.217 0)
(305.539 -174.717 0)
(303.403 -172.009 0)
(301.399 -168.925 0)
(299.684 -165.413 0)
(297.739 -161.542 0)
(295.055 -157.419 0)
(291.788 -153.085 0)
(288.596 -148.343 0)
(285.898 -142.9 0)
(283.84 -136.57 0)
(282.594 -129.359 0)
(282.126 -121.384 0)
(282.214 -112.834 0)
(282.639 -103.985 0)
(283.258 -95.1124 0)
(283.993 -86.426 0)
(284.803 -78.0694 0)
(285.66 -70.1316 0)
(286.537 -62.6604 0)
(287.406 -55.6721 0)
(288.242 -49.1601 0)
(289.017 -43.1014 0)
(289.709 -37.462 0)
(290.298 -32.2019 0)
(290.768 -27.278 0)
(291.106 -22.6474 0)
(291.304 -18.2687 0)
(291.36 -14.1038 0)
(291.271 -10.1177 0)
(291.042 -6.27708 0)
(290.674 -2.54993 0)
(290.158 1.0935 0)
(289.63 4.68154 0)
(287.745 8.24368 0)
(1211.13 -57.5362 0)
(1422.5 -175.678 0)
(1459.76 -309.379 0)
(1397.27 -433.136 0)
(1288.81 -535.939 0)
(1168.98 -615.55 0)
(1053.79 -673.479 0)
(947.903 -713.044 0)
(851.62 -738.047 0)
(765.05 -752.012 0)