/*--------------------------------*- C++ -*----------------------------------*\
| =========                 |                                                 |
| \\      /  F ield         | OpenFOAM: The Open Source CFD Toolbox           |
|  \\    /   O peration     | Version:  2412                                  |
|   \\  /    A nd           | Website:  www.openfoam.com                      |
|    \\/     M anipulation  |                                                 |
\*---------------------------------------------------------------------------*/
FoamFile
{
    version     2.0;
    format      ascii;
    arch        "LSB;label=32;scalar=64";
    class       volScalarField;
    location    "7.5";
    object      p;
}
// * * * * * * * * * * * * * * * * * * * * * * * * * * * * * * * * * * * * * //

dimensions      [1 -1 -2 0 0 0 0];

internalField   nonuniform List<scalar> 
200
(
1.19546
0.861856
1.08192
0.923739
1.0411
0.97952
1.00884
1.00013
1.00097
1.00159
1.19283
0.835313
1.05832
0.986907
0.99873
0.99632
0.997004
0.998319
0.999427
1.00014
1.18818
0.839605
1.04396
0.980844
1.00057
0.996582
0.99812
0.9994
1.00028
1.00081
1.18055
0.872631
1.05045
0.951714
0.993651
0.981628
0.98893
0.992832
0.995851
0.997742
1.22717
0.927793
1.01161
0.984076
0.993581
0.993106
0.994726
0.995926
0.997113
0.998164
1.19392
0.862933
1.06578
0.951587
1.00687
0.986224
0.992279
0.991935
0.993407
0.995155
1.19596
0.822382
1.04715
0.993269
0.997087
0.996023
0.995744
0.996071
0.996557
0.997112
1.20515
0.841865
1.09949
0.974304
1.00499
1.0007
0.998698
0.998253
0.999059
0.999775
1.20358
0.859532
1.07161
0.89133
1.03837
0.979688
1.00537
0.998068
1.00086
1.00067
1.20353
0.854379
1.08503
0.945614
1.02406
0.980766
1.01119
0.990012
1.00763
0.996608
1.00182
1.00166
1.00157
1.00158
1.00168
1.00181
1.00191
1.00197
1.002
1.002
1.00055
1.00068
1.0008
1.00114
1.0015
1.00178
1.00193
1.00201
1.00204
1.00204
1.00113
1.00129
1.00145
1.00163
1.00179
1.0019
1.00196
1.002
1.00201
1.002
0.999279
1.00021
1.0007
1.00114
1.00151
1.00175
1.00191
1.00199
1.00201
1.00201
0.999189
0.999886
1.00057
1.00113
1.00153
1.00177
1.00189
1.00195
1.00195
1.00194
0.997619
0.999067
1.00036
1.00102
1.00146
1.00168
1.0018
1.00185
1.00186
1.00186
0.998344
0.999489
1.00048
1.00106
1.00139
1.00156
1.00164
1.00167
1.00169
1.00174
1.00077
1.00069
1.0011
1.00122
1.00134
1.00149
1.00158
1.00156
1.00151
1.00166
1.00117
1.00044
1.00109
1.00107
1.0012
1.00124
1.00145
1.00145
1.00144
1.00168
1.00429
0.999593
1.00168
1.00117
1.00138
1.0014
1.00151
1.00153
1.0015
1.00168
)
;

boundaryField
{
    inlet
    {
        type            fixedValue;
        value           uniform 1;
    }
    sym
    {
        type            slip;
    }
    wedge
    {
        type            slip;
    }
    top
    {
        type            slip;
    }
    back
    {
        type            empty;
    }
    front
    {
        type            empty;
    }
    outlet
    {
        type            zeroGradient;
    }
}


// ************************************************************************* //
