/*--------------------------------*- C++ -*----------------------------------*\
| =========                 |                                                 |
| \\      /  F ield         | OpenFOAM: The Open Source CFD Toolbox           |
|  \\    /   O peration     | Version:  2412                                  |
|   \\  /    A nd           | Website:  www.openfoam.com                      |
|    \\/     M anipulation  |                                                 |
\*---------------------------------------------------------------------------*/
FoamFile
{
    version     2.0;
    format      ascii;
    arch        "LSB;label=32;scalar=64";
    class       surfaceScalarField;
    location    "7.5";
    object      phi;
}
// * * * * * * * * * * * * * * * * * * * * * * * * * * * * * * * * * * * * * //

dimensions      [1 0 -1 0 0 0 0];

oriented        oriented;

internalField   nonuniform List<scalar> 
370
(
4.29793e-05
9.3968e-05
-0.00018608
0.000229025
-0.000195074
8.88985e-06
0.000319375
-0.000514406
0.000279089
4.02858e-05
0.000416846
-0.000137735
0.000417179
-3.24213e-07
0.000408492
8.70498e-06
0.000390642
1.78657e-05
2.55949e-05
0.000365065
0.000342957
-0.000134854
0.000787082
-0.000215
0.000974526
-0.000178579
0.000610507
-0.000150375
0.000707193
-5.64036e-05
0.000557062
1.24014e-05
0.00045391
0.000102831
0.000320707
0.000141923
0.00020398
0.000134607
0.000112186
0.000117399
0.000325974
-0.000366281
0.000680262
-0.000569215
0.000553609
-5.1994e-05
0.000406981
-3.76148e-06
0.000325059
2.54652e-05
0.000205086
0.000132346
0.000100604
0.000207265
8.50018e-06
0.000233979
-5.69212e-05
0.000200104
0.000149316
-9.40251e-05
9.70407e-05
-0.000388548
-0.000117032
-0.000355037
-0.000519198
0.000350101
-0.000608619
8.56651e-05
-0.000735451
0.00015231
-0.000722651
0.000119519
-0.000656656
0.000141254
-0.00056743
0.000144762
-0.000489619
0.000122317
8.96298e-05
-0.000429936
-0.000971378
0.000308327
-0.00177634
0.000449998
-0.00109953
-0.000326684
-0.00101783
4.09531e-06
-0.000867999
2.52298e-06
-0.000807019
5.8558e-05
-0.0007282
6.24526e-05
-0.000644524
6.10967e-05
-0.00055934
3.71417e-05
5.76865e-06
-0.000475475
5.94369e-06
0.000364465
-0.000144343
0.000600288
-0.000481139
1.06174e-05
-0.000519825
4.53605e-05
-0.000638903
0.000122012
-0.000612608
3.23232e-05
-0.000566016
1.58768e-05
-0.000486225
-1.86675e-05
-0.000390892
-5.81665e-05
-8.73231e-05
-0.000297776
0.000336572
0.000109002
0.000828268
0.000108741
0.000831554
6.8461e-06
0.000608813
0.000265584
0.000585658
0.000144592
0.000519829
9.81147e-05
0.000468546
6.71664e-05
0.000424756
2.51416e-05
0.00038003
-1.34224e-05
-4.65992e-05
0.000339321
0.000237776
-5.76344e-06
0.000606151
-0.000259517
0.000777623
-0.000164776
0.000772916
0.000270268
0.000937911
-2.0429e-05
0.000852168
0.000183852
0.000868066
5.1272e-05
0.000814519
7.86947e-05
0.000785123
1.59796e-05
2.11791e-05
0.00071735
9.17862e-05
4.82986e-05
-0.000142594
-2.52315e-05
-4.63293e-05
-0.000261269
0.000477663
-0.000253643
0.000334322
0.00012289
0.000418807
9.9386e-05
0.000440301
2.97825e-05
0.000296304
0.000222695
0.000298815
1.34724e-05
9.03185e-05
0.000229679
0.000193774
0.000168551
-9.28524e-05
-0.000346459
-0.00022361
-0.000124198
-9.44175e-05
0.000128288
0.000141766
0.000232092
0.000329442
3.56608e-05
0.000304728
2.47533e-05
0.0002773
2.74698e-05
0.00024489
3.24481e-05
0.000212838
3.20752e-05
0.00018676
2.60944e-05
0.000167849
1.89219e-05
0.000155867
1.19844e-05
0.000149379
6.4799e-06
6.1864e-06
-3.81554e-05
0.000191274
-0.000108334
9.49522e-05
-0.00012378
4.29135e-05
-0.000107851
1.653e-05
-7.6447e-05
6.72011e-07
-4.07802e-05
-9.56626e-06
-9.69671e-06
-1.21526e-05
1.30767e-05
-1.07802e-05
2.8832e-05
-9.27438e-06
2.00578e-07
-0.000162925
0.000260183
-0.000188767
0.000120767
-0.000169539
2.36767e-05
-0.000125857
-2.71488e-05
-7.63465e-05
-4.88336e-05
-3.34189e-05
-5.24814e-05
-7.69012e-07
-4.47907e-05
2.09285e-05
-3.24629e-05
2.87982e-05
-1.71316e-05
1.54427e-06
-0.000355443
0.000185687
-0.000271561
3.68843e-05
-0.000180198
-6.76817e-05
-0.00010154
-0.000105801
-4.15532e-05
-0.000108815
2.59897e-06
-9.66268e-05
3.16683e-05
-7.38524e-05
4.67636e-05
-4.75553e-05
5.02829e-05
-2.06379e-05
4.56048e-06
-0.000298941
9.16019e-06
-0.000148763
-0.000113285
-4.83216e-05
-0.000168118
1.44191e-05
-0.000168534
5.29272e-05
-0.000147316
7.44906e-05
-0.000118182
8.69818e-05
-8.63302e-05
9.25433e-05
-5.31076e-05
9.11783e-05
-1.92771e-05
9.94358e-06
-7.63959e-05
-0.0002122
4.87296e-05
-0.000238407
9.90574e-05
-0.000218443
0.000125503
-0.000194973
0.000136338
-0.000158142
0.000137343
-0.000119171
0.00013452
-8.34901e-05
0.000129598
-4.81573e-05
0.000121546
-1.12086e-05
1.6544e-05
0.000336113
-0.000208975
0.000306231
-0.000208526
0.000282697
-0.000194903
0.000251759
-0.000164028
0.000220564
-0.000126935
0.000192684
-9.12748e-05
0.000171905
-6.26873e-05
0.000156606
-3.28378e-05
0.000140631
4.78233e-06
2.35831e-05
0.000618752
-0.000110371
0.000489099
-7.88641e-05
0.00039887
-0.000104658
0.00030805
-7.31944e-05
0.000233748
-5.26115e-05
0.000176943
-3.44444e-05
0.000147891
-3.36229e-05
0.000134839
-1.97782e-05
0.000113746
2.58777e-05
2.85744e-05
0.000201433
-8.2117e-05
0.000105198
1.73915e-05
4.04864e-05
-3.99331e-05
-1.43665e-05
-1.83451e-05
-4.39153e-05
-2.308e-05
-4.16932e-05
-3.67062e-05
-2.36194e-05
-5.17511e-05
-4.05329e-06
-3.93355e-05
8.51793e-06
1.33394e-05
2.58712e-05
0.000149988
0.000167395
0.000127476
0.000109146
8.60803e-05
4.93903e-05
-2.37809e-06
-4.17088e-05
-2.83346e-05
)
;

boundaryField
{
    inlet
    {
        type            calculated;
        value           nonuniform List<scalar> 10(-0.000137548 -0.000114689 -9.5145e-05 -7.48703e-05 0.000274231 -6.29524e-05 -8.20085e-05 -0.000124215 -0.000147014 -0.000146673);
    }
    sym
    {
        type            calculated;
        value           uniform 0;
    }
    wedge
    {
        type            calculated;
        value           nonuniform List<scalar> 10(2.40138e-20 1.20058e-20 1.20062e-20 0 1.20094e-20 0 -1.20121e-20 1.20125e-20 0 1.20105e-20);
    }
    top
    {
        type            calculated;
        value           uniform 0;
    }
    back
    {
        type            empty;
    }
    front
    {
        type            empty;
    }
    outlet
    {
        type            calculated;
        value           nonuniform List<scalar> 10(0.000143184 3.48072e-05 2.74479e-05 4.72845e-05 8.57969e-05 0.000114953 0.000133604 0.000108758 1.12448e-05 -2.4243e-06);
    }
}


// ************************************************************************* //
