/*--------------------------------*- C++ -*----------------------------------*\
| =========                 |                                                 |
| \\      /  F ield         | OpenFOAM: The Open Source CFD Toolbox           |
|  \\    /   O peration     | Version:  2412                                  |
|   \\  /    A nd           | Website:  www.openfoam.com                      |
|    \\/     M anipulation  |                                                 |
\*---------------------------------------------------------------------------*/
FoamFile
{
    version     2.0;
    format      ascii;
    arch        "LSB;label=32;scalar=64";
    class       volVectorField;
    location    "7.5";
    object      U;
}
// * * * * * * * * * * * * * * * * * * * * * * * * * * * * * * * * * * * * * //

dimensions      [0 1 -1 0 0 0 0];

internalField   nonuniform List<vector> 
200
(
(-23.1264 0.474604 0)
(16.8699 2.35285 0)
(-12.2909 -0.783705 0)
(7.66252 -3.81704 0)
(-3.33481 -0.499923 0)
(3.12217 -1.31836 0)
(0.0108382 -0.607044 0)
(1.19768 -0.496948 0)
(0.97207 -0.400246 0)
(0.847512 -0.304831 0)
(-17.0115 0.232565 0)
(11.316 0.483465 0)
(-1.18393 0.811802 0)
(2.669 -0.748137 0)
(1.29773 0.672587 0)
(1.45334 0.0690243 0)
(1.23168 0.548553 0)
(0.908134 0.567705 0)
(0.584535 0.567946 0)
(0.355476 0.555969 0)
(-16.7396 -1.09079 0)
(11.1959 -3.69228 0)
(-2.25624 -2.97053 0)
(2.67709 -1.36401 0)
(0.250084 -1.05808 0)
(0.752138 0.0601216 0)
(0.346803 0.865359 0)
(0.123102 1.24785 0)
(-0.0834484 1.13727 0)
(-0.173055 0.860797 0)
(-17.1312 -2.20754 0)
(11.241 -3.54284 0)
(-7.17798 2.67334 0)
(2.41713 1.12147 0)
(-3.46749 1.25748 0)
(-1.03359 1.10209 0)
(-1.77532 1.17496 0)
(-1.37023 1.14593 0)
(-1.21816 0.951181 0)
(-1.05124 0.710474 0)
(-12.4065 -0.127397 0)
(1.98704 0.254357 0)
(-5.65854 0.119595 0)
(-1.16953 0.454193 0)
(-2.58922 0.401972 0)
(-1.78161 0.635734 0)
(-1.80482 0.712199 0)
(-1.56799 0.739568 0)
(-1.38036 0.614388 0)
(-1.1649 0.430623 0)
(-19.375 1.99608 0)
(12.7346 3.9793 0)
(-8.2897 -2.55913 0)
(3.31152 -0.720432 0)
(-3.79616 -0.295546 0)
(-0.40502 -0.161321 0)
(-1.77524 -0.117655 0)
(-1.13584 -0.164248 0)
(-1.017 -0.278473 0)
(-0.750521 -0.398406 0)
(-17.7984 0.999026 0)
(11.7649 3.46808 0)
(-1.30918 2.38525 0)
(2.52116 1.59036 0)
(1.21172 1.33933 0)
(1.2592 0.674098 0)
(1.16179 0.35008 0)
(1.05118 0.0126173 0)
(0.924951 -0.304725 0)
(0.809257 -0.535143 0)
(-19.4212 -0.332607 0)
(13.1185 -1.53451 0)
(-3.30518 -2.00513 0)
(3.88302 1.34835 0)
(1.54966 0.210043 0)
(1.90403 0.647461 0)
(2.0162 0.36362 0)
(1.9625 0.297701 0)
(1.84361 0.165675 0)
(1.73192 0.052953 0)
(-23.852 0.26871 0)
(17.8811 -1.15594 0)
(-13.1856 -0.212756 0)
(8.76689 0.747381 0)
(-2.88327 -0.250835 0)
(2.82596 1.02863 0)
(0.273309 0.290766 0)
(1.0754 0.688393 0)
(0.588312 -0.0254046 0)
(0.635327 0.227386 0)
(-22.2225 0.0751135 0)
(16.2495 0.73975 0)
(-9.44998 -1.76588 0)
(5.7315 -2.71758 0)
(-5.34699 1.19801 0)
(3.19398 0.395997 0)
(-3.03752 0.105815 0)
(2.08034 1.59143 0)
(-0.991521 0.244827 0)
(1.23898 0.675233 0)
(0.762485 -0.13018 -3.13906e-21)
(0.755708 0.0166541 0)
(0.725727 0.139362 0)
(0.673445 0.215341 0)
(0.607053 0.248053 1.1302e-17)
(0.543007 0.25083 0)
(0.495377 0.240341 0)
(0.467842 0.225794 0)
(0.459174 0.211587 0)
(0.461651 0.197419 -6.80124e-18)
(0.0537486 0.564439 -5.00405e-18)
(-0.246104 0.262363 5.17665e-18)
(-0.300394 0.128579 0)
(-0.306338 0.0662572 0)
(-0.243044 0.038562 3.19521e-22)
(-0.160316 0.0168298 0)
(-0.0711556 0.0100379 0)
(0.012967 0.00481815 0)
(0.0625713 -0.000118534 0)
(0.112066 0.0298966 0)
(-0.320326 0.566251 0)
(-0.463167 0.146177 -5.12798e-18)
(-0.453888 -0.0587251 0)
(-0.382607 -0.149664 0)
(-0.261438 -0.178064 -1.13334e-17)
(-0.143711 -0.152937 5.87344e-18)
(-0.044553 -0.111049 0)
(0.0398743 -0.0553614 6.32451e-18)
(0.0851728 -0.0144373 0)
(0.0882019 0.0288579 6.83014e-18)
(-0.92979 0.500183 0)
(-0.78921 0.169041 0)
(-0.559023 -0.0890907 0)
(-0.34327 -0.215839 0)
(-0.178029 -0.24062 5.66164e-18)
(-0.047842 -0.216489 -5.87222e-18)
(0.0604455 -0.151559 0)
(0.118813 -0.0860266 -1.26199e-17)
(0.154401 -0.0177823 0)
(0.151894 0.0432211 -6.81986e-18)
(-0.957217 0.23938 2.46163e-18)
(-0.494092 -0.211388 2.55833e-18)
(-0.214293 -0.44527 0)
(-0.0242296 -0.446906 2.73687e-18)
(0.0999759 -0.37938 2.82826e-18)
(0.177004 -0.293924 0)
(0.229553 -0.199693 0)
(0.264268 -0.101543 6.2877e-18)
(0.281582 -0.00883308 0)
(0.275775 0.0739122 0)
(-0.479152 -0.469036 -2.49105e-18)
(0.07637 -0.5679 -2.56984e-18)
(0.177015 -0.558359 0)
(0.298072 -0.493877 -2.71998e-18)
(0.347017 -0.398532 -2.81077e-18)
(0.371772 -0.293295 0)
(0.381374 -0.188743 0)
(0.385446 -0.0826025 0)
(0.380731 0.0213815 0)
(0.369586 0.103123 0)
(0.782905 -0.682361 2.4676e-18)
(0.780315 -0.657719 0)
(0.724548 -0.585531 0)
(0.676428 -0.486074 0)
(0.615801 -0.374955 2.7971e-18)
(0.55608 -0.267702 0)
(0.50535 -0.175655 0)
(0.4757 -0.079394 0)
(0.451052 0.0319734 0)
(0.429952 0.104144 3.39357e-18)
(1.47957 -0.175942 -1.20439e-18)
(1.34154 -0.235733 1.25053e-18)
(1.08197 -0.290579 0)
(0.895801 -0.263439 1.34792e-18)
(0.707892 -0.207202 -1.40334e-18)
(0.555781 -0.125557 1.45863e-18)
(0.438155 -0.0755571 1.51719e-18)
(0.404411 -0.00949725 0)
(0.380095 0.0830948 1.63836e-18)
(0.35055 0.112873 -1.70297e-18)
(0.427505 -0.395605 -1.87198e-18)
(0.442246 -0.120972 -1.93965e-18)
(0.128489 -0.266834 0)
(0.055426 -0.120745 -2.08668e-18)
(-0.123566 -0.0767857 -7.17558e-19)
(-0.126537 -0.0612714 -2.2217e-18)
(-0.0899337 -0.104871 -1.53189e-18)
(-0.0547435 -0.0879621 0)
(0.0257521 0.0936119 -1.64864e-18)
(0.0355909 0.0873306 -2.5696e-18)
(-0.266152 0.00578864 6.26634e-19)
(0.759642 0.246692 6.49022e-19)
(0.210527 0.0731854 0)
(0.354804 0.039345 6.91324e-19)
(0.252161 -0.0393602 -7.1471e-19)
(0.194005 -0.131455 7.3983e-19)
(0.0930754 -0.181329 0)
(-0.107938 -0.13105 0)
(-0.153904 -0.015278 0)
(-0.00830731 0.0610697 8.55412e-19)
)
;

boundaryField
{
    inlet
    {
        type            fixedValue;
        value           uniform (3 0 0);
    }
    sym
    {
        type            slip;
    }
    wedge
    {
        type            slip;
    }
    top
    {
        type            slip;
    }
    back
    {
        type            empty;
    }
    front
    {
        type            empty;
    }
    outlet
    {
        type            inletOutlet;
        inletValue      uniform (3 0 0);
        value           nonuniform List<vector> 10((0.461651 0.197419 -6.80124e-18) (0.112066 0.0298966 0) (0.0882019 0.0288579 6.83014e-18) (0.151894 0.0432211 -6.81986e-18) (0.275775 0.0739122 0) (0.369586 0.103123 0) (0.429952 0.104144 3.39357e-18) (0.35055 0.112873 -1.70297e-18) (0.0355909 0.0873306 -2.5696e-18) (3 0 0));
    }
}


// ************************************************************************* //
