/*--------------------------------*- C++ -*----------------------------------*\
| =========                 |                                                 |
| \\      /  F ield         | OpenFOAM: The Open Source CFD Toolbox           |
|  \\    /   O peration     | Version:  2412                                  |
|   \\  /    A nd           | Website:  www.openfoam.com                      |
|    \\/     M anipulation  |                                                 |
\*---------------------------------------------------------------------------*/
FoamFile
{
    version     2.0;
    format      ascii;
    arch        "LSB;label=32;scalar=64";
    class       volScalarField;
    location    "6.5";
    object      p;
}
// * * * * * * * * * * * * * * * * * * * * * * * * * * * * * * * * * * * * * //

dimensions      [1 -1 -2 0 0 0 0];

internalField   nonuniform List<scalar> 
5250
(
1.00001
1.00004
1.0001
1.0003
1.00061
1.00175
1.00343
1.01069
1.01873
1.0695
1.11386
1.45557
1.95379
4.16785
9.31821
11.173
11.0263
10.959
11.0452
11.2633
11.4703
11.5987
11.6968
11.7734
11.8306
1.00001
1.00004
1.0001
1.00029
1.0006
1.00172
1.00338
1.01053
1.01843
1.06842
1.11195
1.44831
1.93535
4.11963
9.20601
11.181
11.0291
10.953
11.0391
11.2569
11.4634
11.592
11.6913
11.769
11.8275
1.00001
1.00004
1.0001
1.00028
1.00058
1.00167
1.00328
1.01021
1.01787
1.06632
1.10843
1.43361
1.90323
4.00854
8.95416
11.198
11.0289
10.9297
11.0129
11.2268
11.4305
11.5574
11.6559
11.733
11.792
1.00001
1.00004
1.00009
1.00027
1.00056
1.0016
1.00313
1.00973
1.01706
1.06317
1.10315
1.41129
1.85419
3.83886
8.55524
11.233
11.0309
10.8893
10.967
11.1726
11.372
11.4949
11.5907
11.6661
11.7267
1.00001
1.00004
1.00009
1.00025
1.00052
1.0015
1.00294
1.0091
1.01598
1.059
1.0962
1.38174
1.78895
3.61481
8.00633
11.291
11.0373
10.834
10.904
11.0977
11.2913
11.4083
11.4988
11.5707
11.6333
1
1.00003
1.00008
1.00023
1.00049
1.00139
1.00275
1.00833
1.01501
1.05346
1.08848
1.3451
1.70861
3.34118
7.30019
11.3672
11.0486
10.7632
10.8224
10.9977
11.183
11.2903
11.3716
11.437
11.5015
1
1.00003
1.00007
1.00021
1.00044
1.00126
1.00253
1.00747
1.01392
1.04717
1.07984
1.30389
1.61844
3.03506
6.47008
11.4373
11.0605
10.683
10.7255
10.8708
11.0441
11.136
11.1992
11.2482
11.3083
1
1.00003
1.00007
1.00019
1.0004
1.00113
1.00229
1.00658
1.01272
1.04066
1.07083
1.26145
1.52152
2.7188
5.54026
11.3903
11.0376
10.5985
10.6126
10.711
10.8658
10.934
10.9676
10.9828
11.0193
1
1.00002
1.00006
1.00017
1.00036
1.001
1.00204
1.00583
1.01144
1.03547
1.06356
1.22747
1.44482
2.50923
4.9331
11.027
10.8802
10.5155
10.4622
10.5202
10.6397
10.6706
10.6564
10.5986
10.5473
1
1.00002
1.00005
1.00015
1.00031
1.00088
1.00179
1.00514
1.01014
1.03118
1.05662
1.20108
1.38067
2.37001
4.38475
10.2359
10.5913
10.4079
10.2782
10.3032
10.3598
10.3424
10.2544
10.0398
9.7063
1
1.00001
1.00005
1.0001
1.00029
1.00057
1.00176
1.00309
1.0111
1.01796
1.06986
1.11513
1.45943
1.97194
4.15363
9.19652
10.3971
10.2808
10.0878
10.066
10.0474
9.96347
9.72206
9.151
7.70404
1
1.00002
1.00004
1.00011
1.00023
1.00066
1.00133
1.00389
1.00738
1.02408
1.04143
1.15491
1.27181
2.05924
3.45536
8.1032
10.2796
10.1667
9.91706
9.81893
9.74014
9.5646
9.18298
8.41147
6.93571
1
1.00001
1.00003
1.0001
1.00021
1.00058
1.00118
1.00336
1.00665
1.02014
1.03672
1.12953
1.23031
1.85984
2.9919
6.86073
10.1978
10.067
9.75763
9.57361
9.43887
9.18882
8.7186
7.93371
6.76745
1
1.00001
1.00003
1.00009
1.00018
1.0005
1.00101
1.00286
1.00577
1.01666
1.03275
1.10225
1.19586
1.66969
2.55905
5.54688
10.028
9.93296
9.62956
9.34732
9.15043
8.85937
8.37837
7.66075
6.73575
1
1.00001
1.00002
1.00007
1.00015
1.00041
1.00084
1.00235
1.00474
1.01358
1.0269
1.0816
1.16042
1.52153
2.21115
4.54048
9.50783
9.68458
9.49176
9.14357
8.89409
8.58372
8.12915
7.49115
6.71414
1
1.00001
1.00002
1.00006
1.00012
1.00032
1.00066
1.00185
1.00369
1.01084
1.02017
1.06777
1.11701
1.43401
1.92515
3.90843
8.36812
9.39773
9.27542
8.98059
8.68031
8.35733
7.93065
7.36143
6.68608
1
1.00001
1.00002
1.00004
1.00009
1.00026
1.00052
1.00146
1.00293
1.00858
1.01597
1.05374
1.09096
1.3448
1.69778
3.28113
6.85092
9.15569
9.09027
8.86195
8.51511
8.1741
7.76822
7.25432
6.6584
1
1
1.00001
1.00003
1.00007
1.0002
1.00041
1.00115
1.00231
1.00662
1.0128
1.04068
1.07098
1.25901
1.5171
2.67529
5.25512
8.88901
8.94063
8.77541
8.41053
8.02688
7.63141
7.16705
6.6367
1
1
1.00001
1.00003
1.00005
1.00015
1.00031
1.00087
1.00177
1.00499
1.00992
1.0297
1.05488
1.18664
1.35697
2.21387
3.87787
8.25891
8.80784
8.66525
8.32548
7.90627
7.51683
7.09176
6.61644
1
1
1.00001
1.00002
1.00005
1.00009
1.00026
1.00053
1.00151
1.00292
1.00905
1.01574
1.05709
1.0938
1.36077
1.72628
3.34049
6.79752
8.54297
8.47855
8.24303
7.81535
7.42388
7.02657
6.59591
1
1
1.00001
1.00001
1.00004
1.00007
1.0002
1.00042
1.00116
1.00235
1.0067
1.01309
1.04061
1.07274
1.25563
1.5147
2.63155
5.09097
8.19574
8.3003
8.15178
7.79492
7.36943
6.98273
6.58027
1
1
1
1.00001
1.00002
1.00006
1.00013
1.00036
1.00072
1.00203
1.00409
1.01175
1.02333
1.06964
1.14105
1.4317
1.99675
3.75298
7.42483
8.13182
8.03337
7.76107
7.34176
6.95002
6.5707
1
1
1
1.00001
1.00002
1.00004
1.0001
1.00021
1.00059
1.00118
1.00337
1.00645
1.02039
1.03538
1.12785
1.22258
1.82776
2.82793
5.97046
7.90901
7.88501
7.72033
7.35052
6.94074
6.56396
1
1
1
1.00001
1.00001
1.00003
1.00006
1.00017
1.00035
1.00097
1.00194
1.00566
1.01047
1.03457
1.05889
1.21267
1.40542
2.30989
4.11836
7.4418
7.79383
7.67494
7.37323
6.94666
6.56572
1
1
1
1
1.00001
1.00002
1.00005
1.00011
1.0003
1.0006
1.00167
1.00338
1.0096
1.01888
1.05744
1.10769
1.35236
1.78224
3.20206
6.34956
7.60275
7.56227
7.36768
6.96872
6.57382
1
1
1
1
1.00001
1.00001
1.00004
1.00007
1.00021
1.00042
1.00116
1.00234
1.00657
1.01295
1.03901
1.07142
1.2404
1.48555
2.48824
4.61755
7.19761
7.41991
7.31638
7.02556
6.59606
1
1
1
1
1
1.00001
1.00002
1.00006
1.00012
1.00033
1.00067
1.00187
1.00377
1.01067
1.0214
1.06172
1.12807
1.37293
1.8567
3.28936
6.29869
7.24096
7.19718
7.01645
6.64165
1
1
1
1
1
1.00001
1.00002
1.00003
1.00009
1.00019
1.00052
1.00105
1.00293
1.0058
1.01709
1.03134
1.10491
1.18793
1.64417
2.41474
4.75124
6.88287
7.05764
6.96963
6.72203
1
1
1
1
1
1
1.00001
1.00003
1.00005
1.00014
1.00029
1.00081
1.00163
1.00454
1.00898
1.02638
1.04871
1.15965
1.30374
1.95655
3.17111
6.13281
6.90887
6.87099
6.71785
1
1
1
1
1
1
1.00001
1.00002
1.00004
1.0001
1.0002
1.00053
1.00108
1.00299
1.00602
1.01695
1.03322
1.10131
1.19083
1.6258
2.3753
4.59224
6.56465
6.75782
6.68236
1
1
1
1
1
1
1
1.00001
1.00003
1.00005
1.00014
1.00029
1.00079
1.00161
1.00443
1.00883
1.02545
1.0479
1.15183
1.29488
1.90444
3.04277
5.82245
6.60685
6.58969
1
1
1
1
1
1
1
1.00001
1.00002
1.00003
1.00009
1.00019
1.00051
1.00104
1.00284
1.00573
1.01603
1.03149
1.09478
1.18007
1.57766
2.26507
4.27108
6.23039
6.49819
1
1
1
1
1
1
1
1
1.00001
1.00002
1.00005
1.00013
1.00027
1.00073
1.00148
1.00407
1.00808
1.02341
1.04344
1.14047
1.26232
1.83055
2.82944
5.40156
6.31699
1
1
1
1
1
1
1
1
1.00001
1.00001
1.00004
1.00007
1.00019
1.00039
1.00107
1.00216
1.00596
1.01167
1.03474
1.06265
1.20904
1.39756
2.21249
3.77466
5.85788
1
1
1
1
1
1
1
1
1
1.00001
1.00002
1.00004
1.00012
1.00024
1.00066
1.00134
1.00366
1.00736
1.02057
1.03975
1.12209
1.22789
1.72577
2.58378
4.8548
1
1
1
1
1
1
1
1
1
1
1.00001
1.00003
1.00007
1.00015
1.0004
1.00081
1.00218
1.0044
1.01213
1.02404
1.0692
1.13715
1.40295
1.87818
3.17145
1
1
1
1
1
1
1
1
1
1
1.00001
1.00002
1.00004
1.0001
1.0002
1.00055
1.00111
1.00304
1.00598
1.01741
1.03151
1.10428
1.18278
1.61886
2.29801
1
1
1
1
1
1
1
1
1
1
1
1.00001
1.00002
1.00006
1.00013
1.00034
1.00069
1.00187
1.00377
1.01035
1.02086
1.05799
1.12033
1.3352
1.74211
1
1
1
1
1
1
1
1
1
1
1
1.00001
1.00002
1.00003
1.00009
1.00018
1.00048
1.00097
1.00264
1.00532
1.01474
1.02898
1.08524
1.16366
1.50133
1
1
1
1
1
1
1
1
1
1
1
1
1.00001
1.00002
1.00005
1.00014
1.00028
1.00075
1.00153
1.00417
1.00838
1.02353
1.04569
1.13875
1.26819
1
1
1
1
1
1
1
1
1
1
1
1
1.00001
1.00002
1.00004
1.0001
1.00021
1.00057
1.00116
1.00323
1.00651
1.01856
1.03651
1.11229
1.21639
1
1
1
1
1
1
1
1
1
1
1
1
1.00001
1.00001
1.00003
1.00007
1.00019
1.00039
1.00111
1.00214
1.00667
1.01159
1.04225
1.0692
1.26591
1
1
1
1
1
1
1
1
1
1
1
1
1
1.00001
1.00003
1.00008
1.00016
1.00045
1.00091
1.00262
1.00515
1.016
1.02868
1.10296
1.18325
1
1
1
1
1
1
1
1
1
1
1
1
1.00001
1.00001
1.00003
1.00006
1.00018
1.00037
1.00104
1.00207
1.00615
1.0114
1.03892
1.06563
1.25131
1
1
1
1
1
1
1
1
1
1
1
1
1.00001
1.00001
1.00003
1.00006
1.00018
1.00036
1.00102
1.00205
1.00604
1.0113
1.03813
1.06464
1.24712
1
1
1
1
1
1
1
1
1
1
1
1
1
1.00001
1.00003
1.00008
1.00016
1.00044
1.00089
1.00255
1.00513
1.01517
1.02909
1.09588
1.17807
1
1
1
1
1
1
1
1
1
1
1
1
1
1.00001
1.00003
1.00008
1.00016
1.00044
1.00089
1.00255
1.00514
1.01501
1.0295
1.09334
1.17823
1
1
1
1
1
1
1
1
1
1
1
1
1
1.00001
1.00003
1.00007
1.00015
1.00043
1.00088
1.00251
1.00506
1.01491
1.02878
1.09392
1.17503
1
1
1
1
1
1
1
1
1
1
1
1
1
1.00001
1.00003
1.00006
1.00016
1.00033
1.00096
1.00186
1.00586
1.01015
1.03767
1.06111
1.23997
1
1
1
1
1
1
1
1
1
1
1
1
1
1.00001
1.00003
1.00007
1.00015
1.00043
1.00087
1.00247
1.00498
1.01472
1.02827
1.09292
1.17226
3.57399
2.61495
3.13505
4.08263
3.89347
3.74342
3.64875
3.60218
3.54028
3.45448
3.36968
3.29642
3.22851
3.15466
3.07736
3.00121
2.93172
2.86926
2.80612
2.73855
2.70131
2.68603
2.68227
2.69879
2.75755
2.85835
2.99374
3.14922
3.31167
3.47344
3.63036
3.77956
3.91926
4.04719
4.16402
4.27035
4.36707
4.45579
4.53651
4.60853
4.67091
4.72491
4.7709
4.80871
4.84621
4.87424
4.89377
4.90735
4.91513
4.91781
4.91654
4.91177
4.90127
4.88606
4.86782
4.84722
4.82396
4.79831
4.77037
4.74053
4.70885
4.67563
4.64091
4.60494
4.56773
4.52947
4.49018
4.45003
4.409
4.36721
4.32467
4.28146
4.23761
4.19317
4.14818
4.1027
4.05678
4.01048
3.96387
3.91703
3.87002
3.82292
3.77581
3.72875
3.68183
3.63512
3.58867
3.54256
3.49687
3.45169
3.40711
3.36328
3.32036
3.2786
3.23835
3.20008
3.16454
3.1329
3.10678
3.08939
4.3561
3.54938
3.70686
4.0454
3.88162
3.71675
3.66384
3.63794
3.56335
3.45514
3.35815
3.283
3.22273
3.15253
3.07583
2.99901
2.92744
2.86382
2.80516
2.74647
2.70267
2.68289
2.6776
2.69129
2.74699
2.84496
2.98031
3.13729
3.30111
3.46383
3.62049
3.76937
3.90866
4.0366
4.15276
4.25834
4.35396
4.44174
4.52388
4.59701
4.65963
4.71427
4.76111
4.8011
4.83716
4.86557
4.88594
4.89996
4.90818
4.91115
4.91033
4.90654
4.8972
4.88117
4.86286
4.84253
4.8197
4.79438
4.76673
4.73709
4.70563
4.67257
4.63802
4.60218
4.56509
4.52693
4.48774
4.44764
4.40669
4.36496
4.32248
4.27932
4.23553
4.19114
4.14621
4.10079
4.05493
4.0087
3.96215
3.91537
3.86842
3.82138
3.77433
3.72734
3.68047
3.63381
3.58741
3.54135
3.4957
3.45053
3.40597
3.36211
3.31915
3.27729
3.23689
3.19836
3.1626
3.1306
3.10392
3.08603
5.15805
4.22658
3.96215
3.9667
3.90196
3.74957
3.65524
3.60111
3.53273
3.44135
3.35273
3.28534
3.23133
3.15258
3.07221
2.99199
2.9171
2.85113
2.79542
2.74666
2.70421
2.67844
2.66963
2.68116
2.73025
2.8218
2.95656
3.11554
3.27867
3.44072
3.59662
3.74767
3.88966
4.01933
4.13687
4.24437
4.342
4.43151
4.51343
4.58653
4.64995
4.70509
4.75246
4.79294
4.82782
4.85607
4.87698
4.89137
4.89982
4.9029
4.90227
4.89928
4.8915
4.87574
4.85673
4.83614
4.8136
4.78869
4.76139
4.73202
4.70078
4.66792
4.63357
4.59788
4.56096
4.52293
4.48387
4.44388
4.40302
4.3614
4.31901
4.27592
4.2322
4.18789
4.14304
4.09769
4.05192
4.00576
3.9593
3.91259
3.86574
3.81877
3.77182
3.72489
3.67813
3.63152
3.5852
3.53917
3.49357
3.4484
3.40387
3.35998
3.31696
3.27496
3.23444
3.19573
3.15954
3.12688
3.09925
3.08032
5.55682
4.65365
4.18053
4.01128
3.92138
3.78026
3.67086
3.60303
3.52528
3.43458
3.3473
3.27738
3.2135
3.14068
3.06204
2.98462
2.91166
2.84683
2.79255
2.74366
2.70308
2.671
2.65286
2.66297
2.71474
2.79979
2.93106
3.0892
3.25336
3.41712
3.575
3.72562
3.86688
3.99652
4.1146
4.22252
4.32081
4.41057
4.49233
4.56575
4.63002
4.68594
4.734
4.77517
4.80999
4.83847
4.86005
4.8752
4.88428
4.88787
4.88744
4.88526
4.8792
4.86609
4.84636
4.82529
4.80292
4.77859
4.75196
4.72315
4.69239
4.65991
4.62591
4.59052
4.55388
4.51608
4.47725
4.43744
4.39677
4.35524
4.31301
4.27007
4.2265
4.18233
4.13762
4.09241
4.04678
4.00074
3.95443
3.90784
3.86114
3.81431
3.76751
3.72073
3.67412
3.62765
3.58146
3.53554
3.49004
3.44493
3.40039
3.35656
3.31358
3.27156
3.23079
3.1917
3.1549
3.12141
3.09256
3.0721
5.77315
4.95231
4.41051
4.11909
3.97001
3.83839
3.71402
3.62132
3.53557
3.44401
3.35632
3.28111
3.20987
3.13385
3.05593
2.98081
2.9096
2.8458
2.79026
2.74165
2.70302
2.67599
2.66577
2.67486
2.7159
2.80362
2.9235
3.06753
3.22212
3.38164
3.53814
3.68804
3.82918
3.95966
4.07927
4.18881
4.2889
4.38023
4.46314
4.5375
4.60297
4.65995
4.70898
4.75085
4.78608
4.81495
4.83733
4.8534
4.86344
4.86787
4.86764
4.86615
4.86173
4.8517
4.83293
4.81164
4.78914
4.76512
4.73913
4.71103
4.68092
4.64902
4.61551
4.58056
4.54432
4.50689
4.46838
4.42888
4.38848
4.34723
4.30522
4.26249
4.21912
4.17513
4.1306
4.08555
4.04008
3.99422
3.94807
3.90167
3.85513
3.8085
3.76187
3.71529
3.66883
3.62256
3.57651
3.53071
3.48531
3.44042
3.39607
3.35229
3.30926
3.26713
3.22614
3.18665
3.14926
3.11486
3.08479
3.06277
5.90664
5.1822
4.63063
4.27478
4.06425
3.9102
3.77708
3.66373
3.56436
3.46967
3.37864
3.29438
3.2168
3.13962
3.06212
2.98715
2.91724
2.85563
2.80355
2.7607
2.72941
2.71136
2.71178
2.72314
2.76141
2.84086
2.94168
3.05976
3.186
3.32618
3.47624
3.62728
3.7725
3.90804
4.03175
4.14395
4.24574
4.33828
4.42225
4.49775
4.56477
4.62344
4.67413
4.7174
4.75379
4.78371
4.80731
4.82474
4.83621
4.8421
4.84232
4.84144
4.83837
4.83098
4.81571
4.79477
4.77216
4.74832
4.72289
4.69555
4.66626
4.6351
4.60225
4.56788
4.53214
4.49516
4.45707
4.41793
4.37787
4.33693
4.29522
4.25276
4.20965
4.1659
4.1216
4.07676
4.03151
3.98584
3.93991
3.89371
3.8474
3.80097
3.75459
3.70822
3.66195
3.61587
3.5701
3.52465
3.47955
3.43483
3.39057
3.34683
3.30375
3.26149
3.22026
3.18037
3.14234
3.10703
3.07571
3.05187
5.9956
5.35539
4.82351
4.43525
4.17281
3.98919
3.84173
3.7171
3.60853
3.50823
3.41256
3.32201
3.23663
3.15665
3.0794
3.00504
2.93747
2.88012
2.83596
2.80648
2.79108
2.79264
2.80415
2.83635
2.8931
2.94766
3.00789
3.08
3.16951
3.25986
3.37574
3.51914
3.67088
3.8216
3.95894
4.08109
4.18871
4.28418
4.36965
4.44621
4.51488
4.57572
4.6289
4.67454
4.71308
4.74493
4.77038
4.78965
4.80296
4.81065
4.81248
4.81191
4.80981
4.80453
4.7933
4.77427
4.75229
4.72874
4.70373
4.67706
4.64858
4.61825
4.5862
4.55254
4.51744
4.48102
4.44344
4.40476
4.36513
4.32457
4.28322
4.24108
4.19827
4.15479
4.11074
4.06615
4.02112
3.9757
3.93
3.88407
3.83802
3.7918
3.74572
3.69977
3.65396
3.60831
3.56282
3.51763
3.47268
3.42812
3.38392
3.34025
3.29716
3.25485
3.21343
3.17324
3.13468
3.09858
3.06619
3.04068
6.05681
5.48741
4.98645
4.58766
4.29274
4.07707
3.91129
3.77451
3.65641
3.54969
3.44993
3.35579
3.26789
3.18559
3.10805
3.03559
2.97213
2.92323
2.89424
2.88647
2.89112
2.91123
2.96279
3.04517
3.09416
3.11706
3.13343
3.14845
3.1751
3.23044
3.28863
3.37513
3.51031
3.674
3.83437
3.98013
4.10667
4.21431
4.30647
4.38587
4.45644
4.51896
4.57442
4.62258
4.6639
4.69845
4.72646
4.74813
4.76374
4.77365
4.77781
4.77759
4.77633
4.77283
4.76504
4.74938
4.72895
4.70612
4.68163
4.65558
4.62786
4.59841
4.56723
4.5344
4.50007
4.46434
4.42737
4.38925
4.35012
4.31002
4.26908
4.22733
4.18486
4.14171
4.09795
4.05364
4.00887
3.96375
3.91832
3.87269
3.82698
3.78142
3.73575
3.69016
3.64468
3.5993
3.55407
3.50904
3.46427
3.41984
3.37579
3.3322
3.28917
3.24681
3.20529
3.16483
3.12586
3.08905
3.05577
3.02882
6.10379
5.59074
5.12219
4.72687
4.414
4.17416
3.9878
3.83635
3.7092
3.5951
3.49139
3.39381
3.30351
3.21949
3.14231
3.07359
3.01824
2.98507
2.98323
2.99088
3.01956
3.09019
3.23255
3.33125
3.35269
3.34658
3.32486
3.27587
3.23176
3.23483
3.25533
3.30267
3.37757
3.49266
3.64941
3.81414
3.97001
4.10532
4.21822
4.31135
4.38898
4.45505
4.51248
4.56235
4.60582
4.64318
4.67413
4.69878
4.71746
4.73024
4.73735
4.73853
4.73789
4.73568
4.73038
4.71931
4.70136
4.67995
4.65638
4.63107
4.60414
4.57554
4.54528
4.51337
4.4799
4.44498
4.40874
4.37128
4.33274
4.29319
4.25273
4.21142
4.16933
4.12653
4.0831
4.03909
3.99466
3.94987
3.90487
3.85981
3.81467
3.7695
3.7243
3.67907
3.63389
3.58879
3.54383
3.49905
3.45453
3.4103
3.36643
3.32299
3.28006
3.23773
3.19616
3.15554
3.11626
3.0789
3.04491
3.01665
6.13581
5.67157
5.23404
4.84978
4.52979
4.27341
4.06919
3.90361
3.76523
3.64388
3.53608
3.43542
3.34306
3.25851
3.18347
3.12161
3.08096
3.07894
3.08798
3.12116
3.20439
3.3814
3.5864
3.66402
3.65761
3.62835
3.55654
3.42953
3.32811
3.27194
3.27263
3.28574
3.3224
3.38253
3.47543
3.60344
3.76422
3.9243
4.07088
4.1952
4.29589
4.37628
4.44128
4.49512
4.54082
4.58017
4.61358
4.64103
4.66323
4.67949
4.69013
4.69477
4.69464
4.69358
4.69048
4.68351
4.66943
4.65022
4.6281
4.60387
4.57787
4.55017
4.52084
4.48987
4.45734
4.4233
4.38788
4.35117
4.3133
4.27435
4.23444
4.19361
4.15195
4.10952
4.06642
4.02272
3.97873
3.93453
3.89018
3.84569
3.80105
3.75628
3.71142
3.66654
3.62165
3.57686
3.53218
3.48769
3.4434
3.39941
3.35574
3.31247
3.26967
3.22742
3.18587
3.14518
3.1057
3.06793
3.03341
3.00403
6.15912
5.7339
5.32601
4.95635
4.63662
4.37052
4.15255
3.97388
3.82464
3.69609
3.5827
3.47943
3.38621
3.30281
3.23373
3.18335
3.17526
3.18396
3.21666
3.30071
3.48384
3.80008
3.99639
4.01107
3.98961
3.9231
3.77997
3.60648
3.46882
3.37413
3.32185
3.31159
3.31834
3.34272
3.39208
3.45886
3.55456
3.69387
3.85248
4.00781
4.14488
4.2575
4.34606
4.41461
4.46822
4.51148
4.54735
4.57732
4.60221
4.62166
4.63592
4.64452
4.64742
4.64705
4.64545
4.64131
4.63239
4.61633
4.59629
4.57356
4.54873
4.52207
4.49371
4.46372
4.43215
4.39905
4.36452
4.32865
4.29154
4.25329
4.21398
4.17369
4.1325
4.09049
4.04786
4.00485
3.96148
3.91788
3.87406
3.83004
3.78581
3.74145
3.69697
3.65246
3.60793
3.56348
3.51911
3.47492
3.43092
3.38718
3.34375
3.30069
3.25808
3.21597
3.17452
3.13383
3.09429
3.05625
3.02139
2.99114
6.17999
5.78396
5.40135
5.04764
4.73297
4.46279
4.23556
4.04596
3.88682
3.75075
3.63211
3.52672
3.43326
3.35394
3.29597
3.2763
3.28356
3.31323
3.39217
3.5679
3.92584
4.27872
4.38806
4.37331
4.3183
4.19117
3.98312
3.79165
3.63608
3.51716
3.43199
3.37875
3.35264
3.35457
3.36723
3.39755
3.44232
3.51442
3.62102
3.76597
3.91964
4.06606
4.19283
4.29441
4.37167
4.42944
4.4732
4.50738
4.53487
4.55709
4.57432
4.58655
4.59383
4.59562
4.59508
4.59306
4.58805
4.57749
4.56039
4.53964
4.51634
4.49094
4.4637
4.43475
4.40419
4.37208
4.33851
4.30354
4.26728
4.22979
4.19117
4.15144
4.11076
4.06935
4.02745
3.98517
3.9425
3.89948
3.85616
3.81259
3.76881
3.72488
3.68082
3.63671
3.59257
3.54848
3.50446
3.46058
3.41689
3.37344
3.33029
3.28747
3.24509
3.20318
3.16189
3.1213
3.08179
3.04361
3.00857
2.97763
6.19324
5.82423
5.4637
5.12513
4.81829
4.54845
4.31615
4.11864
3.95106
3.80812
3.68472
3.57786
3.48706
3.4165
3.38572
3.39096
3.41636
3.48799
3.65328
3.99901
4.47814
4.73636
4.73582
4.70377
4.60945
4.41097
4.18117
3.98264
3.81899
3.6859
3.57922
3.4966
3.4362
3.39709
3.38246
3.38629
3.40043
3.42951
3.47741
3.5528
3.67161
3.81442
3.96503
4.10393
4.22036
4.31093
4.37766
4.4258
4.46086
4.48715
4.50742
4.52253
4.53329
4.53927
4.54033
4.53967
4.53734
4.5317
4.51999
4.50215
4.48084
4.45699
4.43106
4.40327
4.3738
4.34274
4.31019
4.2762
4.24087
4.20423
4.16632
4.12726
4.08734
4.04678
4.00567
3.9641
3.92206
3.87963
3.83683
3.79376
3.75044
3.70697
3.66334
3.61965
3.57592
3.53221
3.48856
3.44504
3.40168
3.35855
3.31571
3.27319
3.23108
3.18943
3.14836
3.10796
3.06858
3.03039
2.99532
2.96385
6.20617
5.85676
5.51711
5.19442
4.8964
4.6284
4.39348
4.19089
4.01694
3.86853
3.74176
3.63578
3.55146
3.50497
3.50812
3.52899
3.59265
3.74444
4.06692
4.62122
5.01329
5.093
5.0693
4.99263
4.82468
4.5886
4.3676
4.17522
4.01056
3.8689
3.74723
3.64339
3.55708
3.48827
3.43806
3.40415
3.39711
3.40151
3.41496
3.44465
3.49724
3.57856
3.70739
3.84954
3.99439
4.12485
4.23114
4.31112
4.36783
4.40693
4.43407
4.45339
4.46708
4.47632
4.48131
4.48151
4.48077
4.47823
4.47216
4.45966
4.44128
4.41948
4.39513
4.36868
4.34041
4.31049
4.27905
4.24613
4.2118
4.17603
4.13893
4.10078
4.06184
4.02217
3.98185
3.94097
3.89958
3.85774
3.81551
3.77297
3.73016
3.68716
3.644
3.60074
3.55744
3.51413
3.47089
3.42774
3.38477
3.342
3.29951
3.25733
3.21556
3.17422
3.13346
3.09331
3.05418
3.01611
2.98116
2.94935
6.21796
5.88434
5.56262
5.25419
4.96562
4.70299
4.46794
4.26238
4.08441
3.93261
3.80546
3.70474
3.63674
3.6375
3.65415
3.71062
3.84938
4.14618
4.73287
5.23334
5.40818
5.39592
5.3423
5.21353
4.98185
4.75309
4.54837
4.36618
4.20338
4.05641
3.92409
3.80524
3.70018
3.60875
3.53192
3.46995
3.42656
3.39845
3.39862
3.40161
3.41409
3.44399
3.5039
3.59667
3.7276
3.8701
4.00998
4.13215
4.22819
4.29752
4.34456
4.37542
4.3955
4.40855
4.41648
4.42004
4.41991
4.41897
4.41616
4.40972
4.3966
4.37788
4.35578
4.33109
4.30428
4.27567
4.24545
4.21368
4.18037
4.14555
4.10951
4.07245
4.03451
3.99575
3.95626
3.91613
3.87542
3.83423
3.79261
3.75064
3.70838
3.66589
3.62322
3.58044
3.53758
3.49472
3.45191
3.40918
3.36662
3.32425
3.28216
3.24038
3.19899
3.15804
3.11764
3.07786
3.03906
3.00124
2.96654
2.93454
6.23874
5.91459
5.60457
5.30803
5.02942
4.7726
4.54008
4.33392
4.15488
4.00273
3.8808
3.79484
3.77747
3.79152
3.8434
3.97456
4.25887
4.83175
5.4123
5.69136
5.68753
5.6509
5.55262
5.35292
5.12317
4.91304
4.7248
4.55215
4.39165
4.24144
4.10155
3.97191
3.85325
3.74587
3.65062
3.56771
3.4979
3.44289
3.40455
3.38733
3.38411
3.38719
3.4011
3.4353
3.50364
3.60699
3.73992
3.8821
4.0158
4.12829
4.21365
4.27274
4.31066
4.3337
4.34719
4.35412
4.35627
4.35597
4.35475
4.35157
4.34462
4.33071
4.31209
4.29001
4.26521
4.23821
4.20933
4.17873
4.14646
4.11277
4.0779
4.04197
4.00504
3.96723
3.92859
3.88926
3.84928
3.80878
3.7678
3.72644
3.68475
3.64281
3.60065
3.55837
3.51601
3.47362
3.43127
3.38901
3.34689
3.30498
3.26333
3.222
3.18105
3.14056
3.10061
3.06129
3.02294
2.98551
2.95123
2.91923
6.26827
5.94354
5.64399
5.3599
5.09022
4.83897
4.61067
4.40707
4.23032
4.08442
3.97598
3.93598
3.94738
3.99424
4.11803
4.39139
4.94804
5.58132
5.92534
5.9604
5.93321
5.84939
5.67307
5.45801
5.25484
5.06895
4.89573
4.73086
4.57222
4.42002
4.27476
4.13761
4.00915
3.89029
3.78129
3.68295
3.59548
3.51965
3.45718
3.40835
3.3771
3.36551
3.35807
3.36178
3.37887
3.41942
3.49804
3.61229
3.74638
3.88558
4.01258
4.11526
4.18948
4.238
4.26686
4.28237
4.28927
4.2903
4.28982
4.28827
4.28456
4.27674
4.26265
4.24427
4.22238
4.19761
4.17044
4.14113
4.11007
4.07763
4.04394
4.00913
3.97326
3.93645
3.89874
3.86028
3.8211
3.78135
3.74106
3.70037
3.65929
3.61794
3.57636
3.53464
3.4928
3.45095
3.4091
3.36736
3.32575
3.28435
3.2432
3.2024
3.16197
3.12202
3.08262
3.04386
3.0061
2.96922
2.93552
2.90377
6.32014
5.98033
5.68365
5.40834
5.14812
4.90526
4.68276
4.48426
4.31542
4.18394
4.11905
4.12728
4.16873
4.28515
4.54868
5.09016
5.76248
6.15383
6.22467
6.20023
6.12253
5.95769
5.75264
5.5612
5.38624
5.22079
5.05921
4.90007
4.74299
4.58964
4.44093
4.29864
4.16333
4.03616
3.91725
3.80747
3.70674
3.61588
3.53495
3.46601
3.40931
3.36563
3.34322
3.32737
3.32365
3.32887
3.3506
3.39906
3.48856
3.60918
3.7467
3.88252
4.00093
4.09249
4.15526
4.19337
4.21356
4.22189
4.22257
4.22193
4.21999
4.21565
4.20676
4.19261
4.17446
4.1528
4.12799
4.10055
4.07105
4.03995
4.00746
3.97379
3.93901
3.90325
3.86655
3.82902
3.79071
3.75177
3.71223
3.67224
3.63183
3.59113
3.55016
3.50905
3.4678
3.42653
3.38525
3.34408
3.30303
3.26222
3.22165
3.18144
3.14163
3.10231
3.06358
3.02552
2.98852
2.95239
2.91949
2.88832
6.38965
6.03123
5.72879
5.45839
5.20673
4.97221
4.75849
4.57104
4.42082
4.32798
4.33271
4.36886
4.479
4.73572
5.26759
5.96461
6.38811
6.47799
6.45451
6.37922
6.21895
6.01995
5.83688
5.67276
5.51832
5.36616
5.21269
5.05777
4.90239
4.74873
4.5983
4.45274
4.31289
4.17976
4.05375
3.93547
3.82496
3.7229
3.62897
3.54468
3.47021
3.40687
3.35601
3.32011
3.30076
3.28261
3.28268
3.29062
3.31761
3.37633
3.47819
3.60325
3.7405
3.87124
3.98029
4.06023
4.11163
4.13982
4.15191
4.15313
4.15235
4.15001
4.1449
4.13468
4.12041
4.10241
4.0808
4.05602
4.02867
3.99926
3.96818
3.93575
3.90212
3.86747
3.8318
3.79527
3.75789
3.71982
3.6811
3.64189
3.60222
3.56224
3.52195
3.48151
3.44092
3.4003
3.35968
3.31915
3.27876
3.23859
3.19871
3.15918
3.1201
3.08153
3.04363
3.00643
2.9704
2.93529
2.90346
2.87334
6.47348
6.10445
5.78621
5.51212
5.26688
5.0434
4.84291
4.67667
4.56295
4.56471
4.59669
4.70268
4.95773
5.49041
6.20076
6.63707
6.73402
6.70993
6.63162
6.46577
6.26586
6.08894
5.93405
5.79037
5.64865
5.50412
5.35544
5.20353
5.0501
4.89706
4.7461
4.59865
4.45595
4.31867
4.18768
4.06303
3.94542
3.83477
3.73169
3.6362
3.54911
3.47066
3.40184
3.34416
3.2987
3.26939
3.24771
3.23399
3.23602
3.24875
3.28264
3.35334
3.46241
3.59284
3.72868
3.85261
3.95132
4.01939
4.05934
4.07791
4.08154
4.08071
4.07801
4.07204
4.06091
4.04606
4.02786
4.00645
3.98199
3.95493
3.92573
3.89486
3.86255
3.82906
3.79446
3.75894
3.72253
3.68539
3.64757
3.60922
3.57037
3.53117
3.49166
3.45197
3.41212
3.37223
3.33234
3.29254
3.25289
3.21347
3.17437
3.13565
3.09743
3.05978
3.02288
2.98679
2.95198
2.9183
2.88789
2.85948
6.47278
6.20511
5.86261
5.58012
5.33854
5.12595
4.94678
4.82156
4.81461
4.84604
4.95595
5.22109
5.77324
6.48711
6.9162
7.00096
6.97274
6.88281
6.69612
6.49405
6.32289
6.17644
6.04247
5.91075
5.77559
5.6349
5.48902
5.33926
5.18752
5.0354
4.88469
4.73649
4.59212
4.45209
4.31732
4.18802
4.06496
3.94801
3.83791
3.7341
3.63757
3.54816
3.46694
3.394
3.33082
3.27802
3.23952
3.21267
3.19046
3.18113
3.18533
3.2032
3.24535
3.33059
3.44451
3.57814
3.71129
3.82667
3.91346
3.96906
3.99776
4.00688
4.00621
4.00347
3.99722
3.98499
3.96976
3.95134
3.9299
3.90573
3.87909
3.85036
3.81977
3.78767
3.75427
3.71983
3.68445
3.64831
3.61146
3.57405
3.53612
3.49782
3.45918
3.42034
3.38133
3.34227
3.30321
3.26424
3.22545
3.1869
3.14871
3.11096
3.07377
3.03726
3.0016
2.96694
2.93372
2.90201
2.87352
2.84787
6.44136
6.27721
5.94814
5.65825
5.42133
5.23214
5.09892
5.0868
5.12011
5.23779
5.52203
6.11111
6.82702
7.23414
7.28973
7.25409
7.14665
6.92928
6.71991
6.54722
6.40467
6.27882
6.15614
6.02984
5.89742
5.75846
5.61422
5.46604
5.31581
5.16481
5.01466
4.86628
4.72092
4.5791
4.4418
4.30923
4.18214
4.06035
3.94458
3.83458
3.731
3.63355
3.54301
3.45923
3.38331
3.31551
3.25759
3.21003
3.1771
3.14946
3.1286
3.12679
3.13353
3.15639
3.20708
3.30484
3.4246
3.55803
3.68594
3.79143
3.86579
3.90879
3.92771
3.92752
3.92543
3.91989
3.90847
3.89211
3.87286
3.85135
3.8275
3.80134
3.77296
3.74269
3.71081
3.67768
3.64349
3.60846
3.57267
3.53631
3.49941
3.46211
3.42447
3.38659
3.34855
3.31044
3.27234
3.23434
3.19653
3.15901
3.1219
3.08531
3.04938
3.01427
2.9802
2.94743
2.91634
2.88745
2.86162
2.84027
6.35058
6.27301
6.07696
5.77343
5.53707
5.38421
5.37304
5.41092
5.54322
5.85837
6.50612
7.21902
7.59601
7.60698
7.55849
7.42336
7.17039
6.94778
6.77007
6.62805
6.50633
6.38922
6.27021
6.14522
6.01336
5.87512
5.7319
5.58504
5.43609
5.28621
5.13671
4.98848
4.84257
4.69963
4.56048
4.42543
4.29515
4.16969
4.04959
3.93477
3.82566
3.72216
3.62464
3.53307
3.44793
3.36954
3.29853
3.23595
3.1822
3.14132
3.10873
3.08281
3.06595
3.0678
3.07905
3.10883
3.17149
3.27454
3.39958
3.53198
3.6527
3.74681
3.80815
3.83945
3.84584
3.8443
3.83947
3.82897
3.81223
3.7927
3.77102
3.74724
3.72129
3.69332
3.66349
3.63211
3.59941
3.56569
3.53111
3.4959
3.46012
3.42394
3.38741
3.35064
3.3137
3.2767
3.23971
3.20284
3.16621
3.12992
3.09411
3.05894
3.02459
2.99128
2.9593
2.92908
2.90098
2.87611
2.85424
2.83938
6.26055
6.24076
6.14417
5.93029
5.71073
5.67555
5.71938
5.87255
6.23218
6.9625
7.66893
7.99085
7.97716
7.89475
7.70313
7.42878
7.18775
6.99854
6.85352
6.73163
6.61814
6.50343
6.38355
6.25711
6.12423
5.98582
5.84303
5.69708
5.54909
5.40017
5.25124
5.10332
4.95708
4.81344
4.67285
4.53605
4.40326
4.27509
4.15155
4.03307
3.91962
3.81145
3.7085
3.61103
3.51901
3.43291
3.35274
3.27931
3.21273
3.15476
3.10565
3.06963
3.03653
3.01216
3.00057
3.00442
3.02028
3.05786
3.13425
3.24208
3.3699
3.49909
3.61066
3.69224
3.74027
3.76005
3.75934
3.75587
3.74748
3.73062
3.7108
3.68848
3.66446
3.63883
3.61142
3.5823
3.55156
3.51955
3.48648
3.45264
3.41815
3.38324
3.34796
3.31246
3.27679
3.24107
3.2054
3.16988
3.13465
3.09984
3.06566
3.03227
2.99997
2.96904
2.93994
2.91326
2.8896
2.87048
2.85481
2.84427
6.03966
6.19987
6.17177
6.08598
6.01526
6.06249
6.23772
6.64971
7.47846
8.17411
8.42577
8.39456
8.26926
8.00209
7.70314
7.4463
7.24308
7.09017
6.96488
6.85039
6.73662
6.6186
6.49477
6.3651
6.23012
6.0908
5.9479
5.80243
5.65509
5.50688
5.35845
5.21076
5.06439
4.92023
4.77869
4.64053
4.50598
4.37564
4.24953
4.12809
4.01127
3.89939
3.79222
3.69007
3.59283
3.50082
3.41396
3.33274
3.25725
3.18834
3.12639
3.07202
3.02847
2.99168
2.96109
2.93756
2.93639
2.94221
2.9618
3.00557
3.09346
3.20651
3.33501
3.45887
3.55977
3.62839
3.66328
3.66988
3.66795
3.66155
3.64758
3.62699
3.60415
3.57995
3.55446
3.52757
3.49916
3.46938
3.43831
3.40623
3.37334
3.3399
3.30606
3.27198
3.23777
3.20353
3.1694
3.13548
3.10197
3.06899
3.03686
3.00579
2.97622
2.94859
2.92359
2.90202
2.88546
2.87286
2.86224
2.85881
5.49833
6.10562
6.2342
6.27993
6.39087
6.65921
7.22195
8.10717
8.74487
8.9013
8.84774
8.67492
8.32584
7.9984
7.723
7.50705
7.34532
7.2131
7.09374
6.9767
6.85681
6.73211
6.60268
6.46879
6.33111
6.19024
6.04675
5.90119
5.75416
5.60627
5.45823
5.31068
5.16433
5.01982
4.87773
4.73861
4.60286
4.47089
4.34283
4.21898
4.09955
3.98457
3.87436
3.76879
3.66788
3.57143
3.47959
3.39241
3.31017
3.23318
3.1617
3.09635
3.03808
2.98785
2.9482
2.91013
2.88209
2.86372
2.8654
2.87508
2.90083
2.95526
3.05099
3.1689
3.29626
3.41225
3.50212
3.55474
3.57643
3.57577
3.57169
3.56194
3.54208
3.51915
3.49433
3.46877
3.44239
3.41497
3.38631
3.35647
3.32565
3.29407
3.26198
3.22957
3.19705
3.16452
3.13221
3.10019
3.06877
3.03811
3.00864
2.98067
2.95489
2.932
2.91296
2.8998
2.88993
2.88403
2.88458
2.88841
4.27857
5.82796
6.301
6.60633
7.09112
7.8849
8.84058
9.42145
9.43496
9.34192
9.08888
8.67697
8.31902
8.02396
7.79384
7.62319
7.48267
7.35514
7.23096
7.10509
6.97592
6.84337
6.70744
6.56895
6.42825
6.28536
6.14069
5.99445
5.84713
5.69916
5.55113
5.40359
5.25717
5.11243
4.96996
4.83021
4.69363
4.56051
4.43122
4.30582
4.18448
4.06724