/*--------------------------------*- C++ -*----------------------------------*\
| =========                 |                                                 |
| \\      /  F ield         | OpenFOAM: The Open Source CFD Toolbox           |
|  \\    /   O peration     | Version:  2412                                  |
|   \\  /    A nd           | Website:  www.openfoam.com                      |
|    \\/     M anipulation  |                                                 |
\*---------------------------------------------------------------------------*/
FoamFile
{
    version     2.0;
    format      ascii;
    arch        "LSB;label=32;scalar=64";
    class       surfaceScalarField;
    location    "6.5";
    object      phi;
}
// * * * * * * * * * * * * * * * * * * * * * * * * * * * * * * * * * * * * * //

dimensions      [1 0 -1 0 0 0 0];

oriented        oriented;

internalField   nonuniform List<scalar> 
10325
(
0.00840003
9.17961e-11
0.00840003
7.10969e-10
0.00840003
2.1792e-09
0.00840002
6.58652e-09
0.0084
1.55811e-08
0.00839996
4.17425e-08
0.00839987
9.3618e-08
0.0083996
2.51566e-07
0.00839908
5.41001e-07
0.00839731
1.6326e-06
0.00839394
3.52509e-06
0.00838102
1.24565e-05
0.00834512
3.59479e-05
0.00820327
0.00014116
0.00752939
0.000671441
0.00684471
0.000685422
0.00620439
0.000640358
0.00555263
0.0006511
0.00488106
0.000670764
0.00417368
0.000705744
0.0034223
0.000749967
0.00262561
0.000794759
0.00178777
0.000835872
0.000911049
0.000875911
0.000910108
0.00840003
1.74514e-10
0.00840003
1.35298e-09
0.00840003
4.16211e-09
0.00840002
1.25544e-08
0.00840001
2.96346e-08
0.00839997
7.98236e-08
0.00839988
1.75304e-07
0.00839963
4.89314e-07
0.00839917
1.01718e-06
0.00839754
3.15338e-06
0.00839447
6.70108e-06
0.00838188
2.46101e-05
0.00835197
6.58942e-05
0.00820089
0.000291442
0.00753229
0.00133745
0.00683818
0.00138018
0.00620681
0.00127159
0.00556193
0.00129517
0.00489338
0.00133841
0.00418004
0.00141744
0.00342129
0.00150739
0.00261816
0.00159589
0.00177305
0.00167895
0.000892221
0.00175593
0.00180132
0.00840003
2.55593e-10
0.00840003
1.98256e-09
0.00840003
6.08925e-09
0.00840002
1.83974e-08
0.00840001
4.33916e-08
0.00839997
1.17387e-07
0.00839989
2.57218e-07
0.00839963
7.24794e-07
0.00839917
1.50167e-06
0.0083975
4.70336e-06
0.00839434
9.96804e-06
0.00838168
3.68513e-05
0.00834876
9.87995e-05
0.00820964
0.000429758
0.00756682
0.00197754
0.00686729
0.00208048
0.00624213
0.00189667
0.0056073
0.00192911
0.0049452
0.00199964
0.00423338
0.00212776
0.00347296
0.00226633
0.00266251
0.00240469
0.00180606
0.0025336
0.000910214
0.002651
0.00271064
0.00840003
3.26833e-10
0.00840003
2.53577e-09
0.00840003
7.75096e-09
0.00840002
2.34813e-08
0.00840001
5.52641e-08
0.00839997
1.50317e-07
0.0083999
3.28841e-07
0.00839968
9.32911e-07
0.00839926
1.9365e-06
0.00839774
6.11067e-06
0.00839475
1.30489e-05
0.00838304
4.81426e-05
0.00835204
0.000129762
0.0082293
0.00055168
0.00765672
0.00254711
0.00695312
0.00278508
0.00633059
0.00251915
0.00570392
0.00255488
0.00505085
0.00265172
0.00434553
0.00283172
0.00358523
0.0030254
0.002768
0.00322018
0.00188708
0.00341273
0.000955927
0.00358153
0.00366573
0.00840003
3.5838e-10
0.00840003
2.77898e-09
0.00840003
8.56533e-09
0.00840002
2.58789e-08
0.00840002
6.06913e-08
0.0084
1.67973e-07
0.00839998
3.4797e-07
0.00839979
1.1035e-06
0.00839974
2.00486e-06
0.00839806
7.67512e-06
0.00839613
1.50647e-05
0.00838568
5.81647e-05
0.00835901
0.000156348
0.00826102
0.0006489
0.00782788
0.00297674
0.0071165
0.0034978
0.00648473
0.00315106
0.0058619
0.00317691
0.00521732
0.0032953
0.00451732
0.00353033
0.00375636
0.00378537
0.00292844
0.00404627
0.00202597
0.00431337
0.00104003
0.00456635
0.00470487
0.00840003
4.05527e-10
0.00840003
3.14213e-09
0.00840003
9.639e-09
0.00840002
2.9171e-08
0.00840002
6.84102e-08
0.00839999
1.8909e-07
0.00839995
3.94768e-07
0.0083998
1.23676e-06
0.00839957
2.24712e-06
0.00839853
8.59883e-06
0.00839685
1.68285e-05
0.00839023
6.43558e-05
0.00837377
0.000172679
0.0083229
0.000699138
0.00814345
0.00315229
0.00741587
0.00422696
0.00674224
0.00382485
0.00611052
0.00380783
0.00547602
0.00392911
0.00478022
0.00422487
0.00401405
0.00455082
0.00316824
0.00489042
0.00222076
0.00525885
0.00116353
0.00562289
0.0058676
0.00840003
4.35466e-10
0.00840003
3.37132e-09
0.00840003
1.03308e-08
0.00840003
3.1246e-08
0.00840002
7.34525e-08
0.00840001
2.00909e-07
0.00839997
4.28646e-07
0.0083999
1.29001e-06
0.00839978
2.37617e-06
0.00839941
8.87745e-06
0.00839913
1.71644e-05
0.00839838
6.46827e-05
0.00839623
0.000174724
0.00840913
0.000684976
0.00865887
0.00289829
0.00792384
0.00496379
0.00713924
0.00460985
0.00648319
0.00446311
0.00584178
0.00456984
0.00513917
0.00492616
0.00436577
0.00532344
0.00350195
0.0057529
0.00252065
0.00623802
0.00136444
0.00677795
0.00723137
0.00840003
4.32559e-10
0.00840003
3.34356e-09
0.00840003
1.03167e-08
0.00840003
3.09383e-08
0.00840003
7.31596e-08
0.00840003
1.93702e-07
0.00840003
4.30576e-07
0.00840015
1.16091e-06
0.00840013
2.39202e-06
0.00840134
7.58078e-06
0.00840384
1.46817e-05
0.00841501
5.31569e-05
0.00844698
0.000142031
0.00863047
0.000505048
0.00956842
0.00195348
0.0087884
0.00574626
0.00776792
0.0056318
0.00708903
0.00514214
0.00636583
0.00529289
0.00565413
0.00563605
0.00486193
0.00611418
0.00396334
0.00665024
0.00293509
0.00726531
0.00167802
0.00803398
0.00890873
0.00840003
3.90077e-10
0.00840003
3.6502e-09
0.00840003
1.09982e-08
0.00840003
3.35208e-08
0.00840002
7.82161e-08
0.0084
2.10133e-07
0.00839998
4.55016e-07
0.00839989
1.24236e-06
0.00839985
2.43374e-06
0.00839982
7.54304e-06
0.00840158
1.29756e-05
0.00840483
4.95842e-05
0.00843506
0.000111664
0.00853779
0.000401836
0.00898308
0.00150441
0.00886902
0.00585989
0.00830471
0.00619699
0.00758416
0.00586324
0.00687691
0.00600095
0.00619307
0.00631946
0.0054332
0.00687233
0.00458499
0.00749686
0.00358533
0.00826378
0.00223278
0.00938571
0.0111409
0.00840003
1.77679e-10
0.00840003
5.44616e-09
0.00840003
8.36067e-09
0.00840002
4.70809e-08
0.00840003
6.0043e-08
0.00839994
3.02074e-07
0.00840007
3.21901e-07
0.00839944
1.87261e-06
0.00840042
1.45161e-06
0.00839646
1.14534e-05
0.00840341
6.04571e-06
0.00837823
7.44769e-05
0.00843872
5.11912e-05
0.00833876
0.00050103
0.00875206
0.00108883
0.00876526
0.00584174
0.00847702
0.00648316
0.00789991
0.00643963
0.00732424
0.0065759
0.00671547
0.00692778
0.00607424
0.00751251
0.00535885
0.00821043
0.0044343
0.00918655
0.00312211
0.0106969
0.0142621
0.00840003
6.2685e-10
0.00840003
1.00698e-09
0.00840003
9.43842e-09
0.00840007
1.09941e-08
0.00840006
6.7367e-08
0.0084003
6.62217e-08
0.00840016
4.51567e-07
0.00840171
3.32533e-07
0.00839988
3.24932e-06
0.0084096
1.67753e-06
0.0083926
2.28057e-05
0.00845492
1.13741e-05
0.0083358
0.000169326
0.0086473
0.000189512
0.00842368
0.0013115
0.0086122
0.00564895
0.00835917
0.00673475
0.0080078
0.00678991
0.00764518
0.00693763
0.007196
0.00737593
0.0067501
0.00795729
0.0062476
0.00871131
0.00578144
0.00965043
0.00571378
0.0107621
0.0114996
0.00847528
0.00840003
3.30049e-10
0.00840003
1.76558e-09
0.00840003
6.08666e-09
0.00840003
1.68385e-08
0.00840005
4.29474e-08
0.00840001
1.05273e-07
0.0084002
2.61993e-07
0.00839989
6.33935e-07
0.00840157
1.58526e-06
0.00839894
4.35913e-06
0.00841107
1.08378e-05
0.00839192
3.12417e-05
0.00847553
8.60889e-05
0.00832151
0.000342648
0.00865686
0.000974978
0.00884812
0.00545434
0.00852533
0.0070572
0.00819692
0.00711721
0.00789706
0.00723589
0.00759636
0.00767514
0.00727782
0.00827476
0.00700455
0.00898317
0.00688572
0.00976685
0.00725558
0.0103882
0.0105325
0.00821942
0.00840003
2.80747e-10
0.00840003
2.17639e-09
0.00840003
6.69477e-09
0.00840003
2.02145e-08
0.00840002
4.78058e-08
0.0084
1.27804e-07
0.00839997
2.86382e-07
0.00839983
7.69054e-07
0.0083998
1.61762e-06
0.00839908
5.04853e-06
0.00840106
8.90966e-06
0.00839434
3.77084e-05
0.00840872
7.19108e-05
0.00842148
0.000329279
0.00849973
0.000896024
0.00923321
0.00471713
0.00888515
0.00740545
0.00845706
0.0075447
0.00817972
0.00751164
0.0079827
0.00787002
0.00780453
0.00845068
0.00771228
0.00907366
0.00782824
0.00964944
0.00825906
0.00995429
0.00991154
0.00887581
0.00840003
2.97115e-10
0.00840003
2.30524e-09
0.00840003
7.0666e-09
0.00840003
2.13469e-08
0.00840003
5.05624e-08
0.00840002
1.34961e-07
0.0084
3.04138e-07
0.00839997
7.97448e-07
0.00839981
1.76988e-06
0.00840007
4.76343e-06
0.0083986
1.0378e-05
0.00840465
3.14763e-05
0.00840847
6.80939e-05
0.00847557
0.000261522
0.00866325
0.000707992
0.0100805
0.00329502
0.00951533
0.0079709
0.00900699
0.00805317
0.00859898
0.00791888
0.00838116
0.00808609
0.00830426
0.00852531
0.0083466
0.00902761
0.0085203
0.0094731
0.00887599
0.00959531
0.00944065
0.00934258
0.00840003
2.85637e-10
0.00840003
2.22044e-09
0.00840003
6.78381e-09
0.00840003
2.05434e-08
0.00840003
4.86096e-08
0.00840004
1.3015e-07
0.00840005
2.93518e-07
0.00840008
7.6534e-07
0.00840011
1.73741e-06
0.0084005
4.34389e-06
0.00840024
1.06403e-05
0.00840712
2.4467e-05
0.00840665
6.85042e-05
0.00848621
0.000181397
0.00862759
0.00056687
0.00972997
0.00219052
0.0098844
0.00781413
0.00957655
0.00835976
0.00906707
0.00842677
0.00881895
0.00833243
0.00875264
0.00858983
0.00884064
0.00893686
0.00904823
0.00926218
0.00934128
0.00929843
0.00907965
0.00969738
0.00840003
2.3358e-10
0.00840003
1.81012e-09
0.00840003
5.59487e-09
0.00840004
1.68037e-08
0.00840004
3.98991e-08
0.00840007
1.05309e-07
0.00840012
2.37338e-07
0.00840027
6.12964e-07
0.00840065
1.35649e-06
0.00840139
3.58464e-06
0.00840432
7.70739e-06
0.00840649
2.21695e-05
0.00842652
4.8448e-05
0.00844982
0.000157566
0.00856956
0.000446706
0.0089976
0.00176113
0.00984739
0.00696005
0.00969955
0.008506
0.00944451
0.0086804
0.00921397
0.00856091
0.00914406
0.00865762
0.00921765
0.00886065
0.00941546
0.00906109
0.00967817
0.0090318
0.00878557
0.00996742
0.00840003
1.93786e-10
0.00840003
1.50015e-09
0.00840003
4.63791e-09
0.00840003
1.39103e-08
0.00840004
3.29714e-08
0.00840006
8.68637e-08
0.0084001
1.94976e-07
0.00840021
5.05627e-07
0.00840047
1.0954e-06
0.00840101
3.02116e-06
0.00840269
6.04085e-06
0.00840542
1.93186e-05
0.00841524
3.86864e-05
0.00843485
0.000137438
0.00852472
0.000356583
0.00886437
0.00142004
0.0100032
0.00581643
0.00994101
0.00856723
0.00974809
0.00887222
0.00955159
0.00875595
0.00951133
0.0086958
0.00957598
0.00879347
0.0097263
0.00890792
0.00992152
0.00883299
0.00855458
0.010148
0.00840003
1.59526e-10
0.00840003
1.29347e-09
0.00840003
4.01281e-09
0.00840003
1.19386e-08
0.00840004
2.85478e-08
0.00840005
7.46006e-08
0.00840007
1.69214e-07
0.00840014
4.3333e-07
0.00840028
9.6297e-07
0.00840073
2.55043e-06
0.00840144
5.32799e-06
0.00840437
1.62956e-05
0.00841148
3.1601e-05
0.00843567
0.00011278
0.00850585
0.000286118
0.00886255
0.00106215
0.0108785
0.00379499
0.0105077
0.00893672
0.0103037
0.0090752
0.0100124
0.00904598
0.00986564
0.00884064
0.00989139
0.00876518
0.0100223
0.00877389
0.0101673
0.00868479
0.0084069
0.0103112
0.00840003
6.44417e-11
0.00840003
1.36345e-09
0.00840003
2.59732e-09
0.00840003
1.1936e-08
0.00840004
1.91348e-08
0.00840004
7.42774e-08
0.00840009
1.15048e-07
0.00840009
4.34265e-07
0.0084004
6.50159e-07
0.00840036
2.58381e-06
0.00840233
3.35645e-06
0.00840211
1.64482e-05
0.00841738
1.63162e-05
0.00842
0.000109837
0.00857089
0.000134997
0.00881189
0.000820023
0.0103937
0.00221021
0.011193
0.00813419
0.0109034
0.00936344
0.0105365
0.00941148
0.0102721
0.00910357
0.0101867
0.00884837
0.010257
0.00870067
0.0103837
0.00855443
0.0082953
0.010492
0.00840003
1.1464e-10
0.00840003
6.73604e-10
0.00840003
2.44724e-09
0.00840004
6.4219e-09
0.00840004
1.72391e-08
0.00840007
4.00133e-08
0.00840009
1.01077e-07
0.00840029
2.28184e-07
0.00840035
5.85249e-07
0.00840169
1.25076e-06
0.00840137
3.64392e-06
0.00841081
7.02949e-06
0.00840366
2.32901e-05
0.00846657
4.70036e-05
0.00843376
0.000167096
0.00882853
0.000424965
0.00920143
0.00183479
0.010945
0.00638394
0.0110936
0.0092133
0.0109442
0.00955914
0.0106625
0.00938372
0.0105283
0.00898097
0.0104951
0.00873162
0.0105559
0.00849033
0.00820693
0.0106407
0.00840003
1.44824e-10
0.00840003
4.23278e-10
0.00840003
2.46737e-09
0.00840003
4.31929e-09
0.00840003
1.7051e-08
0.00840005
2.73812e-08
0.00840005
1.00543e-07
0.00840012
1.5721e-07
0.00840012
5.76938e-07
0.0084005
8.7374e-07
0.00840074
3.3844e-06
0.00840302
4.73526e-06
0.00840473
2.1475e-05
0.00842409
2.76174e-05
0.00844377
0.000146875
0.00860036
0.000267893
0.00927415
0.00115925
0.011319
0.00433219
0.0114418
0.00908796
0.0113949
0.0096051
0.011186
0.00959147
0.010947
0.00921822
0.0108365
0.00884053
0.0107966
0.00852801
0.00819591
0.0108042
0.00840003
5.24202e-11
0.00840003
5.72767e-10
0.00840003
1.31794e-09
0.00840003
5.16965e-09
0.00840004
9.53804e-09
0.00840003
3.23912e-08
0.00840008
5.7328e-08
0.00840004
1.89242e-07
0.00840029
3.31322e-07
0.00840006
1.097e-06
0.00840155
1.88872e-06
0.00839976
6.49592e-06
0.00841046
1.07679e-05
0.00839808
3.97981e-05
0.00847702
6.78467e-05
0.00846106
0.000283036
0.00900793
0.000612168
0.010888
0.00244797
0.0118101
0.00816034
0.0116812
0.00973232
0.0114682
0.00980319
0.0112288
0.00945613
0.0111385
0.00892934
0.0110795
0.00858537
0.00824178
0.0110307
0.00840003
6.99276e-11
0.00840003
2.72079e-10
0.00840003
1.34423e-09
0.00840003
2.68389e-09
0.00840003
9.39804e-09
0.00840005
1.7036e-08
0.00840005
5.57152e-08
0.00840014
9.89927e-08
0.00840015
3.20305e-07
0.00840068
5.6147e-07
0.00840069
1.87694e-06
0.00840412
3.06973e-06
0.00840306
1.17559e-05
0.00842594
1.69399e-05
0.00841579
7.76277e-05
0.00858057
0.000118154
0.00858793
0.000603578
0.00951047
0.0015236
0.0117539
0.00590815
0.011968
0.00951571
0.0119008
0.00986863
0.0116542
0.00970137
0.0114125
0.00916972
0.0113178
0.00867903
0.0083008
0.0112563
0.00840003
2.38376e-11
0.00840003
2.85911e-10
0.00840003
6.38811e-10
0.00840003
2.5637e-09
0.00840004
4.61817e-09
0.00840004
1.58755e-08
0.00840007
2.73757e-08
0.00840007
9.10667e-08
0.00840024
1.54944e-07
0.00840028
5.16948e-07
0.00840129
8.65957e-07
0.00840132
3.01409e-06
0.00840824
4.83623e-06
0.00840612
1.89076e-05
0.00845492
2.88571e-05
0.00844269
0.000129623
0.00880555
0.000240234
0.00928108
0.00104549
0.0119186
0.00326086
0.012433
0.00899839
0.0124065
0.00989395
0.0121184
0.00998841
0.011779
0.00950792
0.011592
0.00886523
0.00840736
0.0114838
0.00840003
2.83522e-11
0.00840003
1.61692e-10
0.00840003
6.02652e-10
0.00840003
1.53899e-09
0.00840003
4.25197e-09
0.00840004
9.65646e-09
0.00840004
2.51677e-08
0.00840008
5.56855e-08
0.00840009
1.4358e-07
0.00840029
3.15787e-07
0.00840033
8.14999e-07
0.00840154
1.79708e-06
0.00840166
4.67637e-06
0.0084101
1.04655e-05
0.00841039
2.83947e-05
0.00847448
6.5381e-05
0.008514
0.000199694
0.00898891
0.000569649
0.010129
0.00211867
0.0122691
0.00685289
0.01251
0.00965151
0.0125462
0.00995089
0.0121577
0.00989521
0.0119108
0.00911129
0.00859511
0.0117216
0.00840003
2.95979e-11
0.00840003
9.71578e-11
0.00840003
5.17601e-10
0.00840003
9.8122e-10
0.00840003
3.5841e-09
0.00840003
6.22848e-09
0.00840004
2.10923e-08
0.00840006
3.5988e-08
0.00840008
1.20028e-07
0.00840019
2.03142e-07
0.00840033
6.79789e-07
0.00840098
1.13774e-06
0.00840172
3.90744e-06
0.00840587
6.29494e-06
0.00841036
2.37795e-05
0.00843918
3.61358e-05
0.00848294
0.000155673
0.00873601
0.00031464
0.00961901
0.00123573
0.0121605
0.00430185
0.012728
0.0090813
0.0128075
0.00987075
0.0127259
0.00997626
0.0123038
0.00953264
0.00885542
0.0120425
0.00840003
1.05038e-11
0.00840003
1.0786e-10
0.00840003
2.59368e-10
0.00840003
9.75029e-10
0.00840003
1.86634e-09
0.00840003
6.06307e-09
0.00840004
1.111e-08
0.00840004
3.49441e-08
0.0084001
6.34155e-08
0.0084001
1.98397e-07
0.00840042
3.58652e-07
0.00840043
1.12804e-06
0.0084023
2.02648e-06
0.00840205
6.51084e-06
0.00841418
1.16367e-05
0.00841091
3.91893e-05
0.00849394
7.2507e-05
0.00853701
0.00027066
0.00914154
0.000631069
0.011147
0.00229175
0.0127876
0.00743469
0.0129159
0.0097413
0.0129113
0.00998012
0.0125876
0.00985554
0.00912026
0.0123222
0.00840003
1.29609e-11
0.00840003
4.97988e-11
0.00840003
2.43377e-10
0.00840003
4.93664e-10
0.00840003
1.69626e-09
0.00840003
3.12719e-09
0.00840003
9.99223e-09
0.00840005
1.80903e-08
0.00840006
5.67932e-08
0.00840015
1.02447e-07
0.00840019
3.20804e-07
0.00840074
5.77403e-07
0.00840093
1.82691e-06
0.00840422
3.22371e-06
0.00840489
1.08935e-05
0.00842639
1.77439e-05
0.00842748
7.0983e-05
0.00858302
0.000115275
0.00869312
0.000519707
0.00964688
0.00133639
0.0125309
0.00454163
0.0131061
0.00916254
0.0131515
0.00993384
0.0130509
0.00995541
0.00953325
0.0126369
0.00840003
6.08797e-12
0.00840003
4.33432e-11
0.00840003
1.34672e-10
0.00840003
4.03737e-10
0.00840003
9.5653e-10
0.00840003
2.51546e-09
0.00840004
5.6453e-09
0.00840004
1.44103e-08
0.00840006
3.19462e-08
0.00840009
8.09681e-08
0.00840023
1.78836e-07
0.00840035
4.53173e-07
0.00840117
1.00041e-06
0.00840182
2.55952e-06
0.00840709
5.6177e-06
0.00840964
1.50898e-05
0.00844816
3.24434e-05
0.00846618
9.67332e-05
0.00875592
0.000229504
0.00930359
0.000787198
0.0115543
0.00228731
0.013268
0.00744068
0.0133663
0.00983261
0.013343
0.00997665
0.00987235
0.0130019
0.00840003
2.52647e-12
0.00840003
3.55358e-11
0.00840003
8.03692e-11
0.00840003
3.15215e-10
0.00840003
5.82778e-10
0.00840003
1.94195e-09
0.00840003
3.45953e-09
0.00840004
1.1098e-08
0.00840005
1.96355e-08
0.00840007
6.23876e-08
0.00840014
1.10165e-07
0.00840024
3.49842e-07
0.00840062
6.15314e-07
0.0084012
1.97176e-06
0.00840339
3.41607e-06
0.00840698
1.14439e-05
0.00842064
1.87434e-05
0.00844452
7.25105e-05
0.00855544
0.000118422
0.00881684
0.00052452
0.00971985
0.00138204
0.0126514
0.0045006
0.0134199
0.00906055
0.0135568
0.00983787
0.00999616
0.0134314
0.00840003
3.08804e-12
0.00840003
1.7797e-11
0.00840003
6.57641e-11
0.00840003
1.69628e-10
0.00840003
4.6295e-10
0.00840003
1.05908e-09
0.00840003
2.71666e-09
0.00840004
6.0579e-09
0.00840004
1.53065e-08
0.00840007
3.39434e-08
0.00840009
8.54079e-08
0.00840025
1.89118e-07
0.00840039
4.75651e-07
0.00840131
1.05273e-06
0.00840204
2.66768e-06
0.00840761
5.8696e-06
0.00841073
1.5521e-05
0.00844963
3.35638e-05
0.00847078
9.677e-05
0.0087624
0.000232394
0.00936381
0.000779087
0.0116245
0.00223557
0.0134936
0.00718521
0.0136139
0.00971474
0.00984811
0.0137594
0.00840003
2.77947e-12
0.00840003
1.01215e-11
0.00840003
4.97676e-11
0.00840003
1.00939e-10
0.00840003
3.43858e-10
0.00840003
6.36306e-10
0.00840003
2.00797e-09
0.00840003
3.64972e-09
0.00840004
1.12997e-08
0.00840005
2.0474e-08
0.00840007
6.30661e-08
0.00840015
1.14127e-07
0.00840027
3.51664e-07
0.00840069
6.34123e-07
0.00840137
1.96962e-06
0.00840373
3.5038e-06
0.00840786
1.13323e-05
0.00842221
1.91613e-05
0.00844819
7.04191e-05
0.00856099
0.000119352
0.00883838
0.000500206
0.00978248
0.00128919
0.012817
0.00413962
0.013705
0.00882301
0.00971054
0.0138401
0.00840003
9.18247e-13
0.00840003
9.28849e-12
0.00840003
2.31041e-11
0.00840003
8.39379e-11
0.00840003
1.6574e-10
0.00840003
5.17676e-10
0.00840003
9.77509e-10
0.00840003
2.94464e-09
0.00840004
5.51156e-09
0.00840004
1.64389e-08
0.00840007
3.07297e-08
0.0084001
9.13808e-08
0.00840028
1.70689e-07
0.0084004
5.08052e-07
0.00840142
9.46768e-07
0.00840206
2.84891e-06
0.00840815
5.22414e-06
0.00841055
1.66601e-05
0.00845187
2.90316e-05
0.00846466
0.00010601
0.00876811
0.000196155
0.00925656
0.000798869
0.0112352
0.00215637
0.0135622
0.00648701
0.00944067
0.0138297
0.00840003
7.90716e-13
0.00840003
4.70281e-12
0.00840003
1.72511e-11
0.00840003
4.46055e-11
0.00840003
1.21296e-10
0.00840003
2.77544e-10
0.00840003
7.09479e-10
0.00840003
1.58013e-09
0.00840003
3.97876e-09
0.00840004
8.80418e-09
0.00840005
2.20795e-08
0.00840009
4.87552e-08
0.00840014
1.22174e-07
0.00840038
2.69307e-07
0.00840064
6.76427e-07
0.008402
1.48905e-06
0.00840339
3.796e-06
0.00841178
8.26012e-06
0.00841827
2.23404e-05
0.00847648
4.77418e-05
0.00852742
0.000144223
0.00897479
0.00035088
0.00987453
0.00125341
0.012816
0.00353452
0.00830544
0.0139461
0.00840003
5.55597e-13
0.00840003
3.01987e-12
0.00840003
1.11263e-11
0.00840003
2.87617e-11
0.00840003
7.78335e-11
0.00840003
1.78989e-10
0.00840003
4.544e-10
0.00840003
1.01799e-09
0.00840003
2.5456e-09
0.00840004
5.66823e-09
0.00840004
1.41191e-08
0.00840006
3.13937e-08
0.0084001
7.81045e-08
0.0084002
1.73545e-07
0.00840044
4.31855e-07
0.00840097
9.58199e-07
0.00840235
2.39748e-06
0.0084053
5.29514e-06
0.00841387
1.36741e-05
0.00843206
2.94311e-05
0.00849075
8.50235e-05
0.00865406
0.0001869
0.00924339
0.00066207
0.010952
0.00182105
0.0057172
0.0135296
0.00840003
4.3565e-13
0.00840003
1.60797e-12
0.00840003
7.75109e-12
0.00840003
1.60628e-11
0.00840003
5.3426e-11
0.00840003
1.00838e-10
0.00840003
3.09968e-10
0.00840003
5.74157e-10
0.00840003
1.72953e-09
0.00840003
3.1937e-09
0.00840004
9.56039e-09
0.00840005
1.76576e-08
0.00840008
5.27326e-08
0.00840015
9.73851e-08
0.00840029
2.90977e-07
0.00840071
5.35858e-07
0.00840149
1.61118e-06
0.00840384
2.93079e-06
0.00840831
9.12847e-06
0.00842189
1.57778e-05
0.00845193
5.45921e-05
0.00854495
9.34876e-05
0.0088502
0.000355053
0.00979765
0.000871113
0.00271512
0.0127875
0.00840003
1.74042e-13
0.00840003
1.22975e-12
0.00840003
3.85492e-12
0.00840003
1.1444e-11
0.00840003
2.72039e-11
0.00840003
7.06077e-11
0.00840003
1.58547e-10
0.00840003
3.98515e-10
0.00840003
8.8331e-10
0.00840003
2.20027e-09
0.00840004
4.86405e-09
0.00840004
1.20709e-08
0.00840007
2.66783e-08
0.0084001
6.60428e-08
0.00840024
1.45933e-07
0.00840042
3.60875e-07
0.00840123
7.96835e-07
0.00840214
1.99272e-06
0.00840694
4.31639e-06
0.00841106
1.15407e-05
0.00844204
2.35247e-05
0.0084627
7.22453e-05
0.00866957
0.000147384
0.00899491
0.000543856
0.00139126
0.010314
0.00840003
7.22744e-14
0.00840003
8.65412e-13
0.00840003
2.0806e-12
0.00840003
7.69789e-12
0.00840003
1.49083e-11
0.00840003
4.69726e-11
0.00840003
8.71342e-11
0.00840003
2.64257e-10
0.00840003
4.85321e-10
0.00840003
1.45783e-09
0.00840003
2.67014e-09
0.00840004
8.00243e-09
0.00840005
1.46362e-08
0.00840007
4.3872e-08
0.00840014
8.00559e-08
0.00840025
2.40601e-07
0.00840061
4.3706e-07
0.00840126
1.32499e-06
0.00840318
2.38025e-06
0.00840724
7.40015e-06
0.00841751
1.31417e-05
0.00844661
4.27035e-05
0.00851344
7.99293e-05
0.00878084
0.000274244
0.000684948
0.00948546
0.00840003
8.31895e-14
0.00840003
3.3872e-13
0.00840003
1.5793e-12
0.00840003
3.32303e-12
0.00840003
1.09044e-11
0.00840003
2.06541e-11
0.00840003
6.29046e-11
0.00840003
1.16276e-10
0.00840003
3.47874e-10
0.00840003
6.38343e-10
0.00840003
1.90287e-09
0.00840004
3.47986e-09
0.00840004
1.03745e-08
0.00840007
1.89209e-08
0.00840009
5.6496e-08
0.00840022
1.02704e-07
0.00840035
3.07723e-07
0.00840111
5.56955e-07
0.00840177
1.68294e-06
0.00840611
3.0198e-06
0.00840964
9.40582e-06
0.00843567
1.64442e-05
0.00845785
5.65815e-05
0.00863216
9.86692e-05
0.000386197
0.00892554
0.00840003
3.30048e-14
0.00840003
2.31863e-13
0.00840003
7.27431e-13
0.00840003
2.1484e-12
0.00840003
5.10236e-12
0.00840003
1.31207e-11
0.00840003
2.93839e-11
0.00840003
7.29242e-11
0.00840003
1.61079e-10
0.00840003
3.95123e-10
0.00840003
8.70634e-10
0.00840003
2.12224e-09
0.00840004
4.68105e-09
0.00840005
1.13473e-08
0.00840008
2.50867e-08
0.00840012
6.04494e-08
0.00840029
1.34013e-07
0.0084005
3.20834e-07
0.00840146
7.12487e-07
0.00840267
1.70087e-06
0.00840821
3.76271e-06
0.00841493
9.14955e-06
0.00845101
1.99941e-05
0.00849436
5.20247e-05
0.000122372
0.0087551
0.00840003
9.25142e-15
0.00840003
1.61156e-13
0.00840003
3.16251e-13
0.00840003
1.40374e-12
0.00840003
2.26265e-12
0.00840003
8.45683e-12
0.00840003
1.29493e-11
0.00840003
4.68755e-11
0.00840003
6.9987e-11
0.00840003
2.54342e-10
0.00840003
3.72139e-10
0.00840003
1.37251e-09
0.00840003
1.96893e-09
0.00840004
7.40413e-09
0.00840005
1.03954e-08
0.00840007
4.00448e-08
0.00840014
5.46497e-08
0.00840023
2.17568e-07
0.00840064
2.78926e-07
0.00840103
1.20924e-06
0.00840339
1.28549e-06
0.00840504
6.9039e-06
0.00841912
5.19549e-06
0.0084285
3.93198e-05
2.37432e-05
0.00852305
0.00840003
1.41911e-14
0.00840003
4.12197e-14
0.00840003
2.54902e-13
0.00840003
4.06117e-13
0.00840003
1.72203e-12
0.00840003
2.43937e-12
0.00840003
9.65138e-12
0.00840003
1.29976e-11
0.00840003
5.1411e-11
0.00840003
6.65588e-11
0.00840003
2.6885e-10
0.00840003
3.34461e-10
0.00840003
1.39205e-09
0.00840004
1.65525e-09
0.00840004
7.15711e-09
0.00840007
8.04497e-09
0.00840008
3.67136e-08
0.00840026
3.81632e-08
0.00840031
1.94477e-07
0.00840131
1.64121e-07
0.00840116
1.18228e-06
0.00840743
4.2865e-07
0.00840332
7.89852e-06
0.00844031
2.14544e-07
4.47353e-05
0.00841199
0.00840003
-7.99789e-16
0.00840003
4.52426e-14
0.00840003
3.7487e-14
0.00840003
3.7544e-13
0.00840003
2.73688e-13
0.00840003
2.23783e-12
0.00840003
1.46683e-12
0.00840003
1.22985e-11
0.00840003
7.07482e-12
0.00840003
6.60327e-11
0.00840003
3.23885e-11
0.00840003
3.52095e-10
0.00840003
1.49164e-10
0.00840003
1.87665e-09
0.00840004
5.36838e-10
0.00840003
1.00665e-08
0.00840006
1.36761e-09
0.00840003
5.50286e-08
0.00840021
-6.13798e-10
0.00839996
3.19918e-07
0.00840112
-9.97239e-08
0.00839851
2.39203e-06
0.00840813
-2.29958e-06
0.00838513
1.94363e-05
-1.8347e-05
0.00844396
0.00840003
1.9846e-15
0.00840003
1.10287e-14
0.00840003
4.01595e-14
0.00840003
1.02473e-13
0.00840003
2.67939e-13
0.00840003
6.01812e-13
0.00840003
1.44568e-12
0.00840003
3.1369e-12
0.00840003
7.29017e-12
0.00840003
1.56344e-11
0.00840003
3.57017e-11
0.00840003
7.61402e-11
0.00840003
1.71789e-10
0.00840003
3.64235e-10
0.00840003
8.14378e-10
0.00840004
1.71232e-09
0.00840003
3.8226e-09
0.00840007
8.00235e-09
0.00840003
1.85067e-08
0.00840027
3.85374e-08
0.00839986
9.5074e-08
0.00840205
2.26641e-07
0.00839757
5.80492e-07
0.00841484
1.83056e-06
5.61834e-06
0.00838381
0.00840003
8.99118e-15
0.00840003
-2.03731e-14
0.00840003
7.65181e-14
0.00840003
-1.31279e-13
0.00840003
4.79545e-13
0.00840003
-8.06022e-13
0.00840003
2.68347e-12
0.00840003
-5.05059e-12
0.00840003
1.45534e-11
0.00840003
-3.16475e-11
0.00840003
7.80156e-11
0.00840003
-1.96807e-10
0.00840003
4.15156e-10
0.00840003
-1.21755e-09
0.00840003
2.19557e-09
0.00840004
-7.55535e-09
0.00840002
1.16102e-08
0.00840007
-4.7499e-08
0.0084
6.40454e-08
0.00840032
-3.11264e-07
0.00839975
4.61923e-07
0.00840237
-2.40167e-06
0.00839657
4.96436e-06
0.00841692
-1.90655e-05
4.26193e-05
0.00837362
0.00840003
1.8838e-15
0.00840003
-3.53645e-15
0.00840003
1.65873e-14
0.00840003
-2.1494e-14
0.00840003
1.08053e-13
0.00840003
-1.29408e-13
0.00840003
6.11983e-13
0.00840003
-8.29907e-13
0.00840003
3.32198e-12
0.00840003
-5.38223e-12
0.00840003
1.77098e-11
0.00840003
-3.46358e-11
0.00840003
9.32385e-11
0.00840003
-2.21081e-10
0.00840003
4.85535e-10
0.00840002
-1.41005e-09
0.00840003
2.5158e-09
0.00839998
-9.07297e-09
0.00840001
1.35155e-08
0.00839968
-6.00876e-08
0.00839996
9.39202e-08
0.00839749
-4.42974e-07
0.0084011
9.15678e-07
0.00838201
-3.28712e-06
8.49611e-06
0.008413
0.00840003
-7.53575e-16
0.00840003
1.17199e-14
0.00840003
1.34568e-14
0.00840003
9.6463e-14
0.00840003
1.07072e-13
0.00840003
5.83687e-13
0.00840003
6.4349e-13
0.00840003
3.36531e-12
0.00840003
3.71136e-12
0.00840003
1.92971e-11
0.00840003
2.14827e-11
0.00840003
1.11107e-10
0.00840003
1.26312e-10
0.00840003
6.45154e-10
0.00840003
7.56035e-10
0.00840002
3.79312e-09
0.00840002
4.55553e-09
0.00839997
2.2605e-08
0.00839994
2.49544e-08
0.00839966
1.40907e-07
0.0083996
7.08249e-08
0.00839777
8.9911e-07
0.0083984
-2.80434e-07
0.0083867
5.4394e-06
-3.8533e-06
0.00839595
0.00840003
-4.39883e-15
0.00840003
2.63176e-14
0.00840003
-1.06951e-14
0.00840003
1.9969e-13
0.00840003
-4.66412e-14
0.00840003
1.2288e-12
0.00840003
-2.1213e-13
0.00840003
7.30685e-12
0.00840003
-9.03478e-13
0.00840003
4.32254e-11
0.00840003
-3.15111e-12
0.00840003
2.55726e-10
0.00840003
-4.63007e-12
0.00840003
1.51878e-09
0.00840003
5.93229e-11
0.00840002
9.10475e-09
0.00840002
7.92761e-10
0.00839998
5.52834e-08
0.00839998
2.15962e-09
0.00839969
3.57178e-07
0.00839979
-1.06532e-07
0.00839778
2.45587e-06
0.00839965
-2.53816e-06
0.00838608
1.61587e-05
-2.2585e-05
0.00840177
0.00840003
5.24697e-15
0.00840003
-1.85283e-14
0.00840003
3.78783e-14
0.00840003
-1.27229e-13
0.00840003
2.31749e-13
0.00840003
-7.77317e-13
0.00840003
1.29166e-12
0.00840003
-4.71082e-12
0.00840003
6.95812e-12
0.00840003
-2.86232e-11
0.00840003
3.65361e-11
0.00840003
-1.74495e-10
0.00840003
1.86274e-10
0.00840003
-1.07056e-09
0.00840003
9.16777e-10
0.00840005
-6.64782e-09
0.00840004
4.40307e-09
0.00840013
-4.1897e-08
0.00840008
2.64589e-08
0.00840069
-2.84772e-07
0.00840013
2.91924e-07
0.00840455
-2.08832e-06
0.00839741
3.62415e-06
0.00842671
-1.43131e-05
2.85271e-05
0.00837044
0.00840003
0.00840003
0.00840003
0.00840003
0.00840003
0.00840003
0.00840003
0.00840003
0.00840003
0.00840003
0.00840003
0.00840003
0.00840003
0.00840003
0.00840003
0.00840002
0.00840002
0.00839997
0.00839998
0.00839963
0.00839986
0.00839736
0.00840075
0.00838361
0.00841001
0.00423575
0.00422923
0.00217242
0.00205218
0.000825044
0.00130325
-0.000811187
0.00162139
-0.00153999
0.000726978
-0.00209261
0.000545957
-0.00242152
0.000322911
-0.0025581
0.000131424
-0.00267666
0.000116988
-0.00283699
0.000161079
-0.0029908
0.000155516
-0.00311385
0.000125457
-0.00320938
9.87058e-05
-0.00329951
9.48114e-05
-0.00338539
9.16013e-05
-0.00346509
8.55498e-05
-0.00353506
7.53513e-05
-0.00358878
5.82611e-05
-0.00362094
3.60602e-05
-0.00363888
2.12073e-05
-0.00367319
3.5222e-05
-0.0037118
3.86305e-05
-0.00374174
2.95292e-05
-0.00376167
1.52983e-05
-0.00376412
-5.34628e-06
-0.00373525
-3.7957e-05
-0.00366686
-8.08491e-05
-0.00355579
-0.000121995
-0.00341381
-0.000153699
-0.00324566
-0.000178404
-0.0030599
-0.000196643
-0.00285507
-0.000213322
-0.00263942
-0.000224391
-0.00241596
-0.000231057
-0.00218691
-0.000233919
-0.00195522
-0.000236645
-0.00171939
-0.000239619
-0.00147831
-0.000244307
-0.00123191
-0.000248838
-0.000984231
-0.000249273
-0.000739398
-0.000245791
-0.00049519
-0.000244587
-0.000251125
-0.000243638
3.41743e-06
-0.000254258
0.000245463
-0.000239964
0.000473713
-0.000226503
0.00069419
-0.00021831
0.000906424
-0.000209822
0.00111079
-0.000201842
0.00130687
-0.000193192
0.0014945
-0.000184731
0.00167603
-0.000178391
0.00185504
-0.000175878
0.00202755
-0.000169612
0.00219351
-0.000162814
0.00235187