/*--------------------------------*- C++ -*----------------------------------*\
| =========                 |                                                 |
| \\      /  F ield         | OpenFOAM: The Open Source CFD Toolbox           |
|  \\    /   O peration     | Version:  2412                                  |
|   \\  /    A nd           | Website:  www.openfoam.com                      |
|    \\/     M anipulation  |                                                 |
\*---------------------------------------------------------------------------*/
FoamFile
{
    version     2.0;
    format      ascii;
    arch        "LSB;label=32;scalar=64";
    class       volScalarField;
    location    "6.5";
    object      T;
}
// * * * * * * * * * * * * * * * * * * * * * * * * * * * * * * * * * * * * * //

dimensions      [0 0 0 1 0 0 0];

internalField   nonuniform List<scalar> 
5250
(
1.00001
1.00002
1.00007
1.00013
1.00042
1.00077
1.00226
1.00481
1.01223
1.03283
1.07297
1.22927
1.53265
2.34588
2.68544
2.73476
2.73294
2.73457
2.74808
2.76091
2.77329
2.78098
2.78869
2.79296
2.79319
1.00001
1.00002
1.00007
1.00013
1.00041
1.00076
1.00223
1.00473
1.01202
1.03232
1.07171
1.22583
1.52121
2.33345
2.6814
2.73488
2.73286
2.73406
2.74739
2.76004
2.77202
2.77947
2.78716
2.79046
2.79037
1.00001
1.00002
1.00007
1.00012
1.0004
1.00074
1.00216
1.00459
1.01167
1.03131
1.06959
1.21843
1.50372
2.30785
2.67094
2.73401
2.7316
2.73214
2.74544
2.75763
2.7699
2.77693
2.78482
2.78818
2.78721
1.00001
1.00002
1.00007
1.00012
1.00038
1.00071
1.00206
1.00437
1.01114
1.02977
1.0664
1.20711
1.47685
2.26525
2.65384
2.73203
2.72861
2.72831
2.74164
2.75282
2.76481
2.77142
2.77798
2.78312
2.78309
1.00001
1.00002
1.00006
1.00011
1.00036
1.00066
1.00194
1.00408
1.01045
1.02773
1.0622
1.19206
1.44115
2.20122
2.62968
2.72886
2.72453
2.72176
2.73517
2.74664
2.75917
2.7663
2.77291
2.77498
2.77387
1.00001
1.00002
1.00006
1.0001
1.00033
1.00061
1.00183
1.00373
1.00979
1.02496
1.05705
1.17303
1.39698
2.11072
2.59585
2.72334
2.71963
2.71242
2.72579
2.73511
2.74643
2.75391
2.76051
2.76636
2.76529
1.00001
1.00001
1.00005
1.00009
1.0003
1.00055
1.0017
1.00333
1.00904
1.02181
1.05123
1.15156
1.34703
1.99772
2.55014
2.71219
2.70901
2.70161
2.71645
2.72564
2.73653
2.74364
2.74895
2.74875
2.74655
1.00001
1.00001
1.00005
1.00009
1.00027
1.00049
1.00155
1.00292
1.00825
1.01855
1.04537
1.12915
1.29513
1.83569
2.50021
2.6864
2.68341
2.67717
2.69537
2.70566
2.71598
2.72166
2.72929
2.73122
2.72481
1.00001
1.00001
1.00004
1.00008
1.00024
1.00044
1.00139
1.00258
1.00753
1.01606
1.04097
1.11097
1.25839
1.70092
2.51005
2.67369
2.6621
2.66003
2.67568
2.68821
2.69924
2.70043
2.70041
2.69551
2.67592
1
1.00001
1.00004
1.00007
1.00021
1.00039
1.00121
1.00228
1.00665
1.01415
1.03658
1.09751
1.22879
1.6423
2.49402
2.64675
2.64267
2.641
2.64378
2.65875
2.67181
2.67239
2.66762
2.65044
2.59913
1
1.00001
1.00002
1.00007
1.00013
1.00036
1.0008
1.00198
1.00519
1.01167
1.03397
1.07125
1.23256
1.54409
2.33464
2.62765
2.64507
2.63685
2.62878
2.63288
2.64116
2.63836
2.62053
2.57288
2.39877
1
1.00001
1.00003
1.00005
1.00016
1.00029
1.00088
1.00174
1.00472
1.01108
1.02654
1.07606
1.16138
1.52423
2.2657
2.558
2.63667
2.62771
2.61578
2.60863
2.60918
2.60232
2.57725
2.51955
2.33779
1
1.00001
1.00002
1.00004
1.00014
1.00025
1.00081
1.00148
1.00444
1.00904
1.02388
1.06201
1.14062
1.42138
2.11818
2.49947
2.62575
2.61536
2.60593
2.5906
2.57589
2.56036
2.52858
2.47846
2.33891
1
1.00001
1.00002
1.00004
1.00012
1.00022
1.00069
1.00125
1.0039
1.00742
1.0212
1.04766
1.11864
1.32092
1.91929
2.40234
2.59532
2.58697
2.5852
2.5765
2.55773
2.53058
2.48851
2.44695
2.34234
1
1
1.00002
1.00003
1.0001
1.00018
1.00057
1.00103
1.0032
1.00603
1.01753
1.03761
1.09774
1.24701
1.7271
2.32993
2.55962
2.55705
2.55249
2.54704
2.53401
2.51094
2.45705
2.41793
2.3374
1
1
1.00001
1.00002
1.00008
1.00014
1.00045
1.00081
1.00246
1.00483
1.01297
1.03157
1.07324
1.21488
1.51709
2.23437
2.52085
2.54004
2.52869
2.51935
2.50698
2.48967
2.44693
2.4002
2.33117
1
1
1.00001
1.00002
1.00006
1.00011
1.00035
1.00064
1.00195
1.00382
1.0103
1.02483
1.058
1.17158
1.39248
2.02887
2.44359
2.52685
2.51238
2.50223
2.47805
2.46045
2.42429
2.3885
2.32957
1
1
1.00001
1.00002
1.00005
1.00009
1.00028
1.0005
1.00156
1.00294
1.00826
1.01856
1.04515
1.12798
1.29027
1.84987
2.29162
2.49162
2.49329
2.48683
2.46697
2.44227
2.40466
2.36346
2.32244
1
1
1.00001
1.00001
1.00004
1.00007
1.00021
1.00038
1.00119
1.00221
1.00651
1.0134
1.03503
1.08983
1.21129
1.57119
2.25643
2.41698
2.4429
2.44602
2.43876
2.42462
2.39568
2.35348
2.30735
1
1
1
1.00001
1.00002
1.00006
1.00012
1.00035
1.00067
1.00186
1.0041
1.01003
1.02699
1.05947
1.18064
1.40701
2.06406
2.38509
2.42909
2.4205
2.40991
2.38884
2.37627
2.34719
2.30446
1
1
1
1.00001
1.00002
1.00005
1.00009
1.00028
1.00051
1.00158
1.00297
1.00846
1.01852
1.04589
1.12513
1.29477
1.74927
2.27095
2.41074
2.40559
2.38945
2.36819
2.33823
2.32323
2.29631
1
1
1
1
1.00001
1.00003
1.00008
1.00016
1.00048
1.0009
1.00267
1.0053
1.01469
1.03231
1.08505
1.20146
1.62961
2.06171
2.34446
2.38414
2.37896
2.36226
2.33008
2.29997
2.27399
1
1
1
1
1.00001
1.00002
1.00005
1.00014
1.00026
1.00077
1.00151
1.00406
1.00934
1.02231
1.06217
1.13223
1.41085
1.99417
2.23725
2.32339
2.34157
2.33785
2.32292
2.29349
2.26181
1
1
1
1
1.00001
1.00001
1.00004
1.00008
1.00023
1.00043
1.00124
1.00254
1.00659
1.01601
1.03724
1.105
1.23137
1.64214
2.14448
2.3056
2.31274
2.3086
2.29837
2.27963
2.25229
1
1
1
1
1
1.00001
1.00002
1.00007
1.00013
1.0004
1.00074
1.00221
1.0043
1.0119
1.02672
1.06454
1.17103
1.43788
1.97428
2.25755
2.29402
2.29167
2.27867
2.25852
2.23928
1
1
1
1
1
1.00001
1.00002
1.00005
1.00009
1.00028
1.00051
1.00155
1.00291
1.00833
1.01772
1.04454
1.11653
1.27665
1.69023
2.13026
2.26823
2.26813
2.25932
2.24112
2.21418
1
1
1
1
1
1
1.00001
1.00003
1.00008
1.00015
1.00044
1.00083
1.00243
1.00481
1.01326
1.02843
1.076
1.17244
1.53961
1.92874
2.19823
2.24658
2.24582
2.23279
2.20935
1
1
1
1
1
1
1.00001
1.00002
1.00004
1.00012
1.00023
1.00069
1.0013
1.00371
1.0077
1.0197
1.04999
1.11242
1.31465
1.81122
2.07359
2.18656
2.21044
2.20821
2.19877
1
1
1
1
1
1
1.00001
1.00001
1.00003
1.00006
1.00019
1.00036
1.00106
1.00201
1.0057
1.01194
1.03026
1.07676
1.17516
1.46367
1.98222
2.14607
2.17383
2.1804
2.17345
1
1
1
1
1
1
1
1.00001
1.00002
1.00004
1.00013
1.00023
1.00072
1.00131
1.00394
1.00755
1.02084
1.04734
1.1122
1.30312
1.78908
2.05409
2.15142
2.1556
2.15013
1
1
1
1
1
1
1
1.00001
1.00001
1.00003
1.00006
1.00019
1.00035
1.00104
1.00196
1.00562
1.01149
1.02955
1.0724
1.1699
1.43626
1.92913
2.10335
2.13417
2.13318
1
1
1
1
1
1
1
1
1.00001
1.00002
1.00004
1.00012
1.00022
1.00068
1.00125
1.00373
1.00713
1.0197
1.04413
1.10556
1.27903
1.7313
1.99547
2.10553
2.11463
1
1
1
1
1
1
1
1
1.00001
1.00001
1.00003
1.00006
1.00017
1.00032
1.00095
1.0018
1.00509
1.01057
1.02683
1.06734
1.15207
1.40664
1.8801
2.05277
2.08812
1
1
1
1
1
1
1
1
1
1.00001
1.00002
1.00005
1.00008
1.00025
1.00047
1.00139
1.00265
1.00727
1.01578
1.03852
1.10144
1.22484
1.59572
1.93455
2.06277
1
1
1
1
1
1
1
1
1
1.00001
1.00001
1.00003
1.00005
1.00016
1.00029
1.00088
1.0016
1.0048
1.00913
1.02469
1.05746
1.13049
1.35566
1.78512
1.99505
1
1
1
1
1
1
1
1
1
1
1.00001
1.00002
1.00003
1.0001
1.00017
1.00052
1.00096
1.00284
1.00538
1.01494
1.03182
1.07942
1.19127
1.5295
1.83975
1
1
1
1
1
1
1
1
1
1
1
1.00001
1.00002
1.00004
1.00013
1.00024
1.00071
1.00134
1.00373
1.00782
1.01936
1.04954
1.10683
1.30823
1.7089
1
1
1
1
1
1
1
1
1
1
1
1
1.00001
1.00003
1.00008
1.00015
1.00045
1.00082
1.00243
1.00458
1.01299
1.02624
1.07069
1.15413
1.4678
1
1
1
1
1
1
1
1
1
1
1
1
1.00001
1.00002
1.00004
1.00011
1.00021
1.00062
1.00116
1.00335
1.00658
1.0176
1.03962
1.09412
1.24036
1
1
1
1
1
1
1
1
1
1
1
1
1.00001
1.00001
1.00003
1.00006
1.00018
1.00033
1.00098
1.00183
1.00532
1.0105
1.02788
1.06463
1.15379
1
1
1
1
1
1
1
1
1
1
1
1
1
1.00001
1.00002
1.00004
1.00014
1.00025
1.00076
1.00141
1.00423
1.00825
1.02287
1.05196
1.12842
1
1
1
1
1
1
1
1
1
1
1
1
1
1.00001
1.00002
1.00005
1.00008
1.00025
1.00049
1.00135
1.00302
1.00734
1.01981
1.04394
1.13217
1
1
1
1
1
1
1
1
1
1
1
1
1
1.00001
1.00002
1.00003
1.00011
1.0002
1.0006
1.00116
1.00329
1.00724
1.01831
1.04921
1.1122
1
1
1
1
1
1
1
1
1
1
1
1
1
1.00001
1.00001
1.00004
1.00008
1.00025
1.00045
1.00137
1.00275
1.00731
1.01793
1.04221
1.12398
1
1
1
1
1
1
1
1
1
1
1
1
1
1.00001
1.00001
1.00004
1.00008
1.00024
1.00045
1.00136
1.00269
1.00725
1.01752
1.04161
1.1219
1
1
1
1
1
1
1
1
1
1
1
1
1
1.00001
1.00002
1.00003
1.0001
1.00019
1.0006
1.00112
1.00342
1.00678
1.01869
1.04515
1.10831
1
1
1
1
1
1
1
1
1
1
1
1
1
1.00001
1.00002
1.00003
1.00011
1.00019
1.00061
1.00111
1.00348
1.00665
1.01914
1.04329
1.10863
1
1
1
1
1
1
1
1
1
1
1
1
1
1.00001
1.00002
1.00003
1.0001
1.00019
1.00059
1.0011
1.00337
1.00667
1.01848
1.04414
1.10638
1
1
1
1
1
1
1
1
1
1
1
1
1
1.00001
1.00001
1.00004
1.00007
1.00022
1.00043
1.00118
1.00265
1.0065
1.01767
1.03971
1.11951
1
1
1
1
1
1
1
1
1
1
1
1
1
1.00001
1.00002
1.00003
1.0001
1.00019
1.00058
1.00109
1.00332
1.00659
1.01817
1.04376
1.10483
2.42185
2.53839
2.9678
2.96968
2.98617
2.9811
2.94535
2.93385
2.92237
2.91155
2.89437
2.88113
2.86642
2.85374
2.83748
2.8226
2.80562
2.79195
2.77558
2.75979
2.74669
2.73938
2.73709
2.74194
2.7508
2.77473
2.80357
2.83556
2.86958
2.89699
2.92525
2.94191
2.96394
2.97377
2.98699
2.99661
3.00186
3.00751
3.00952
3.01066
3.00968
3.00688
3.00187
2.99945
2.99231
2.98679
2.97857
2.97234
2.9645
2.95795
2.94864
2.9417
2.93153
2.92418
2.91432
2.90605
2.89655
2.88795
2.87791
2.86906
2.8594
2.85075
2.84108
2.83256
2.82287
2.81424
2.80438
2.79563
2.78583
2.77695
2.76716
2.75814
2.74847
2.73936
2.72975
2.72049
2.71089
2.70153
2.69195
2.68253
2.67287
2.66345
2.65374
2.64434
2.63467
2.62527
2.61565
2.6063
2.59678
2.58757
2.57819
2.56923
2.56009
2.55165
2.54297
2.53554
2.52794
2.52242
2.51731
2.51455
2.2994
2.37337
2.63395
2.86273
2.93948
3.01331
3.06579
3.07597
3.05835
3.07728
3.08159
3.08127
3.08079
3.08044
3.07597
3.07228
3.06577
3.05783
3.04951
3.0364
3.02731
3.02038
3.01995
3.02524
3.03398
3.05422
3.07148
3.0938
3.10696
3.11915
3.12648
3.12993
3.13042
3.12718
3.11944
3.11269
3.10153
3.09548
3.07985
3.07108
3.05526
3.04255
3.02757
3.01514
3.00124
2.98912
2.97408
2.95918
2.94305
2.92649
2.91029
2.89412
2.87766
2.8613
2.84474
2.82978
2.81453
2.80037
2.78548
2.77159
2.75694
2.74346
2.72952
2.71665
2.70347
2.69094
2.67816
2.66571
2.6532
2.64088
2.62877
2.61678
2.60517
2.59355
2.58235
2.57101
2.56007
2.54898
2.53823
2.52742
2.51689
2.50639
2.49615
2.48597
2.47606
2.46621
2.45662
2.44715
2.43783
2.42882
2.41973
2.41132
2.40247
2.39486
2.38643
2.37996
2.37245
2.36785
2.36283
2.36132
2.28301
2.26002
2.34912
2.49707
2.65093
2.75927
2.87825
2.97151
3.01045
3.06331
3.08518
3.09995
3.12456
3.14312
3.18174
3.19449
3.19782
3.1974
3.18999
3.18258
3.17799
3.17205
3.17599
3.17802
3.18665
3.19745
3.20512
3.21124
3.21189
3.19804
3.18037
3.16455
3.14429
3.12554
3.1014
3.07979
3.05759
3.03636
3.0145
2.99384
2.97276
2.95243
2.93232
2.91283
2.89359
2.8753
2.8566
2.83911
2.82143
2.8047
2.78862
2.7727
2.75795
2.74237
2.72785
2.71305
2.69934
2.68579
2.67316
2.66056
2.64864
2.63646
2.62506
2.61339
2.60266
2.59152
2.58118
2.57021
2.55986
2.54884
2.53835
2.52731
2.51671
2.50575
2.49495
2.48408
2.473
2.46227
2.4509
2.4404
2.42882
2.41864
2.40696
2.39715
2.38546
2.37607
2.36446
2.35555
2.34411
2.33572
2.32463
2.31682
2.30627
2.29918
2.28935
2.28319
2.27477
2.27038
2.26494
2.26353
2.28189
2.22996
2.24547
2.30438
2.37963
2.47287
2.55825
2.67454
2.78468
2.87007
2.94976
2.99662
3.04109
3.07685
3.12571
3.1709
3.19131
3.19571
3.20196
3.21235
3.2165
3.22197
3.23661
3.24441
3.24658
3.24114
3.22319
3.19998
3.15734
3.12022
3.0835
3.04701
3.01456
2.98213
2.95054
2.92159
2.89268
2.86646
2.83955
2.81564
2.79057
2.76896
2.74605
2.72646
2.70612
2.68861
2.66989
2.65419
2.63679
2.6225
2.60714
2.59487
2.5809
2.56874
2.55505
2.54367
2.53138
2.52079
2.50945
2.4997
2.48915
2.48003
2.46998
2.46131
2.45172
2.44358
2.43444
2.4268
2.41793
2.4107
2.40199
2.39516
2.38651
2.37998
2.37126
2.36492
2.3561
2.34984
2.34098
2.33476
2.32595
2.31964
2.31095
2.30439
2.29585
2.28889
2.28044
2.27295
2.26454
2.25652
2.24816
2.2397
2.23135
2.22263
2.21469
2.20622
2.19927
2.19186
2.18725
2.18245
2.27622
2.23095
2.20085
2.22116
2.25068
2.29545
2.34954
2.41313
2.48969
2.56913
2.65044
2.73915
2.81956
2.89029
2.94843
2.99854
3.05688
3.0941
3.11819
3.14195
3.16181
3.17606
3.18369
3.1781
3.16215
3.13409
3.08968
3.048
2.99762
2.95213
2.90636
2.86373
2.82644
2.79282
2.76151
2.73271
2.70622
2.68187
2.66013
2.6401
2.62186
2.60503
2.58987
2.57565
2.56274
2.55042
2.53914
2.52833
2.518
2.50815
2.49885
2.49035
2.48185
2.47342
2.4646
2.4561
2.44786
2.43987
2.43185
2.42402
2.41593
2.40808
2.39978
2.39193
2.38352
2.37565
2.36705
2.359
2.35014
2.34191
2.33299
2.32478
2.31603
2.30792
2.29942
2.29138
2.28312
2.27503
2.26696
2.25873
2.25079
2.24247
2.23463
2.2263
2.21859
2.21048
2.20299
2.1953
2.18806
2.18086
2.17378
2.16719
2.16033
2.15441
2.14779
2.14268
2.13662
2.1328
2.12848
2.12746
2.26587
2.22193
2.19541
2.17974
2.19258
2.20829
2.23485
2.26638
2.30731
2.35334
2.40734
2.46442
2.53
2.59405
2.66047
2.72557
2.78536
2.85243
2.908
2.96179
2.99776
3.0237
3.03889
3.03157
3.00399
2.9558
2.89841
2.83661
2.77332
2.71635
2.67157
2.63258
2.60241
2.57561
2.55264
2.53301
2.51638
2.5024
2.49078
2.48095
2.47232
2.46504
2.45812
2.45203
2.446
2.44056
2.43505
2.42996
2.42457
2.41952
2.41417
2.40944
2.4044
2.39931
2.39317
2.38712
2.38073
2.37483
2.36846
2.36241
2.35583
2.34958
2.34281
2.33644
2.32952
2.32307
2.31607
2.30968
2.3027
2.2964
2.28934
2.28299
2.27563
2.2691
2.26132
2.25462
2.24642
2.23961
2.2311
2.22421
2.2155
2.2085
2.19967
2.19248
2.18354
2.17597
2.16691
2.15895
2.14993
2.14175
2.1329
2.12465
2.11609
2.10797
2.09992
2.09227
2.08521
2.07864
2.07375
2.06989
2.26661
2.21581
2.18263
2.16472
2.1557
2.16083
2.17061
2.18676
2.20584
2.23075
2.25895
2.29244
2.32937
2.37215
2.41612
2.46593
2.51526
2.56846
2.62507
2.67491
2.7274
2.75942
2.78401
2.78043
2.75214
2.69764
2.63324
2.56651
2.51093
2.46502
2.43389
2.41657
2.40706
2.40281
2.39746
2.39469
2.39274
2.39163
2.39128
2.39056
2.38982
2.3891
2.38822
2.38727
2.38587
2.38385
2.38143
2.37823
2.37475
2.37066
2.36645
2.36216
2.35792
2.35323
2.34767
2.34152
2.33485
2.32849
2.3216
2.3152
2.30805
2.30153
2.29418
2.28763
2.28016
2.27357
2.26592
2.25921
2.25137
2.24456
2.23668
2.22985
2.22205
2.21525
2.20763
2.20081
2.19344
2.18652
2.17944
2.17234
2.16563
2.1583
2.15193
2.14433
2.13817
2.1304
2.12442
2.11663
2.1107
2.103
2.09705
2.08953
2.08354
2.07625
2.07029
2.06334
2.05771
2.05157
2.04728
2.04373
2.26869
2.21697
2.17765
2.15153
2.13663
2.12919
2.1296
2.13465
2.14453
2.15545
2.17023
2.18798
2.20777
2.23233
2.25833
2.28855
2.32335
2.361
2.40528
2.44837
2.49269
2.52952
2.56026
2.56074
2.5362
2.49093
2.43439
2.38329
2.34265
2.31316
2.29522
2.28608
2.29058
2.29914
2.30865
2.31645
2.32229
2.3255
2.32901
2.32978
2.33082
2.33081
2.33043
2.32952
2.32754
2.32561
2.32265
2.31985
2.31597
2.31223
2.30752
2.30316
2.29867
2.2945
2.28959
2.28436
2.27849
2.27286
2.26681
2.26107
2.25487
2.24896
2.24254
2.23649
2.22999
2.22388
2.21738
2.21115
2.20463
2.19822
2.19168
2.18506
2.17854
2.1717
2.1652
2.15814
2.15163
2.14437
2.13774
2.13032
2.12344
2.11593
2.10879
2.10135
2.09407
2.08677
2.0794
2.07223
2.06489
2.05792
2.05073
2.04405
2.0371
2.03081
2.02419
2.01842
2.01235
2.00748
2.00283
2.00063
2.26417
2.21856
2.17748
2.14639
2.12509
2.1109
2.10449
2.10071
2.10246
2.10746
2.11224
2.12225
2.13053
2.14489
2.15957
2.17741
2.20198
2.22917
2.26516
2.29963
2.3403
2.38363
2.4163
2.4218
2.39752
2.36122
2.31407
2.27358
2.23643
2.21433
2.19582
2.18884
2.18878
2.19697
2.21082
2.22396
2.23496
2.24381
2.24881
2.25313
2.2555
2.25753
2.25852
2.25851
2.25825
2.25758
2.25655
2.25536
2.25357
2.25173
2.24903
2.24646
2.24342
2.24081
2.23732
2.23369
2.22899
2.22445
2.2193
2.21448
2.2091
2.20405
2.19842
2.19309
2.1872
2.1816
2.17554
2.16969
2.16349
2.15743
2.1511
2.14484
2.13837
2.13196
2.12529
2.1188
2.11197
2.10549
2.09859
2.09218
2.0853
2.07899
2.07217
2.0658
2.05901
2.05251
2.04575
2.03911
2.03234
2.02566
2.01884
2.01225
2.0054
1.999
1.99223
1.98614
1.9798
1.97439
1.96944
1.96656
2.25936
2.21774
2.17859
2.14398
2.11928
2.09935
2.08764
2.07899
2.07492
2.07295
2.07374
2.07674
2.08102
2.08676
2.09668
2.10839
2.12761
2.15252
2.17964
2.21654
2.25925
2.31323
2.3426
2.34234
2.3221
2.2867
2.25026
2.20626
2.17308
2.14738
2.13573
2.12485
2.12231
2.12283
2.13131
2.14456
2.16183
2.1784
2.192
2.2023
2.20939
2.21426
2.21776
2.21961
2.22184
2.22247
2.22383
2.22378
2.22351
2.22284
2.22126
2.21967
2.21703
2.21514
2.21226
2.2096
2.20549
2.2016
2.19686
2.1925
2.18747
2.18278
2.17753
2.17249
2.16695
2.16156
2.15574
2.15009
2.14403
2.13821
2.13193
2.12596
2.11946
2.11333
2.10666
2.10038
2.09356
2.08703
2.08016
2.07344
2.06659
2.05967
2.0529
2.04586
2.03919
2.03216
2.02555
2.01858
2.01198
2.00507
1.99849
1.99165
1.98516
1.9784
1.97214
1.96555
1.95969
1.95367
1.94894
1.94539
2.25695
2.21618
2.17925
2.14423
2.11647
2.09316
2.07692
2.06396
2.05598
2.04967
2.0466
2.04457
2.04511
2.04812
2.05405
2.06703
2.08162
2.10781
2.13291
2.17597
2.23575
2.28869
2.31088
2.3024
2.28072
2.25119
2.21135
2.17159
2.13704
2.11314
2.09437
2.08369
2.07533
2.07298
2.07354
2.079
2.0915
2.10848
2.12667
2.14222
2.15478
2.16378
2.16985
2.17416
2.17692
2.1791
2.1805
2.18114
2.18141
2.18095
2.1799
2.17853
2.17644
2.17449
2.17218
2.16988
2.16669
2.16324
2.15908
2.15503
2.15046
2.14601
2.14114
2.13631
2.1311
2.12584
2.12032
2.11472
2.10899
2.10314
2.09725
2.09119
2.08516
2.07893
2.07279
2.06638
2.06025
2.05382
2.04775
2.04129
2.03523
2.02873
2.02261
2.01607
2.00986
2.00332
1.99703
1.99051
1.98418
1.97772
1.97136
1.965
1.95861
1.95243
1.94608
1.94022
1.93414
1.92898
1.924
1.9214
2.24773
2.21241
2.17816
2.14437
2.1158
2.09048
2.0705
2.05495
2.04252
2.03401
2.02702
2.02299
2.02075
2.02154
2.02808
2.04231
2.05894
2.08345
2.11988
2.17574
2.24726
2.28952
2.29687
2.2838
2.26104
2.22859
2.1886
2.1515
2.12032
2.09356
2.07188
2.0554
2.04481
2.03809
2.03378
2.03393
2.03677
2.04619
2.05948
2.0773
2.09524
2.11091
2.12353
2.13269
2.13909
2.1432
2.14585
2.14758
2.14849
2.14907
2.14893
2.14835
2.14704
2.1457
2.14376
2.1421
2.13966
2.13692
2.13325
2.12951
2.12524
2.12101
2.11627
2.11164
2.10651
2.10154
2.09606
2.09079
2.08503
2.07956
2.0736
2.06794
2.06183
2.05599
2.04975
2.04381
2.03753
2.03142
2.02509
2.01882
2.01243
2.00602
1.9996
1.99308
1.98663
1.98007
1.97358
1.96708
1.96055
1.95418
1.94762
1.94141
1.93487
1.9288
1.92237
1.91641
1.91031
1.90474
1.8997
1.89643
2.2326
2.20262
2.1736
2.14278
2.11467
2.08941
2.06759
2.04937
2.03485
2.02249
2.01397
2.0069
2.00388
2.00483
2.01402
2.02815
2.04847
2.07994
2.13132
2.20644
2.27047
2.2935
2.28794
2.2713
2.2483
2.21301
2.17542
2.14177
2.11144
2.08449
2.061
2.04162
2.02637
2.01495
2.00868
2.00426
2.00323
2.00379
2.00897
2.01979
2.03644
2.05531
2.07344
2.08906
2.10071
2.10897
2.11406
2.11735
2.11899
2.1202
2.12067
2.12086
2.12037
2.11969
2.11826
2.11714
2.11538
2.11355
2.11066
2.10746
2.10355
2.09967
2.09527
2.09092
2.08615
2.08141
2.07633
2.07125
2.06588
2.06047
2.05487
2.04919
2.0434
2.03755
2.03178
2.02583
2.02006
2.014
2.00819
2.00201
1.99613
1.98983
1.98385
1.97745
1.97137
1.96491
1.95874
1.95228
1.94605
1.93963
1.9334
1.92705
1.92087
1.91464
1.90859
1.90257
1.89678
1.89128
1.8864
1.88329
2.22283
2.1918
2.16269
2.13569
2.10983
2.08647
2.06535
2.04607
2.03128
2.01693
2.00707
1.999
1.9956
2.00018
2.01139
2.02787
2.05284
2.09986
2.17486
2.25124
2.2893
2.29339
2.2839
2.26522
2.23607
2.20142
2.16742
2.13705
2.10844
2.08291
2.05901
2.03863
2.01987
2.00564
1.99362
1.98553
1.98025
1.97738
1.97643
1.97856
1.9863
1.99793
2.01526
2.03346
2.05026
2.06417
2.07446
2.08143
2.08568
2.08821
2.08957
2.09021
2.09021
2.08974
2.08874
2.08751
2.086
2.08443
2.0821
2.07922
2.07551
2.07168
2.06738
2.06316
2.05848
2.05393
2.04888
2.044
2.03864
2.03346
2.02787
2.02239
2.01668
2.01103
2.00529
1.99948
1.9937
1.98774
1.9819
1.97581
1.96987
1.96368
1.95763
1.9514
1.94522
1.93903
1.93276
1.92667
1.92031
1.91436
1.90796
1.90214
1.89577
1.89008
1.88383
1.8783
1.87235
1.86725
1.86225
1.85944
2.21542
2.1873
2.15848
2.13009
2.10428
2.07915
2.06034
2.04011
2.02604
2.01246
2.00245
1.99705
1.99626
2.00507
2.01839
2.03976
2.08185
2.15001
2.23474
2.28578
2.29774
2.29247
2.27734
2.25824
2.22567
2.19581
2.16463
2.13844
2.11109
2.08742
2.06356
2.04267
2.02274
2.00544
1.98888
1.97534
1.96385
1.95778
1.95267
1.95086
1.95012
1.9537
1.96318
1.97708
1.99499
2.01333
2.02976
2.043
2.05233
2.05875
2.06242
2.06487
2.06565
2.06632
2.06595
2.06539
2.06438
2.06348
2.06203
2.06025
2.05747
2.05432
2.05057
2.04677
2.0426
2.0384
2.0339
2.02928
2.02444
2.01939
2.01421
2.00885
2.00348
1.99788
1.99237
1.98661
1.981
1.97513
1.9694
1.96341
1.9575
1.95138
1.94529
1.93905
1.9328
1.9265
1.92015
1.91386
1.90748
1.90125
1.89491
1.88874
1.8825
1.87639
1.87033
1.86434
1.8586
1.85302
1.84815
1.8448
2.19465
2.17486
2.15192
2.12636
2.10167
2.07706
2.05511
2.03691
2.019
2.00838
1.99756
1.99788
2.00491
2.01688
2.038
2.07529
2.13864
2.22444
2.28438
2.30482
2.30211
2.29313
2.27522
2.24923
2.22053
2.19298
2.16645
2.1416
2.11638
2.09327
2.06941
2.04797
2.02619
2.00668
1.98793
1.97183
1.95702
1.94503
1.93629
1.93164
1.92804
1.92777
1.92803
1.93335
1.94453
1.96031
1.97877
1.99682
2.01271
2.02485
2.03347
2.03868
2.04172
2.04283
2.04349
2.043
2.04218
2.04111
2.04
2.03848
2.03643
2.03354
2.03015
2.02644
2.02247
2.01833
2.01404
2.00957
2.00496
2.00008
1.99515
1.98997
1.98481
1.97936
1.974
1.96835
1.96283
1.95705
1.95138
1.94548
1.93966
1.93364
1.92767
1.92156
1.91547
1.90931
1.90314
1.89697
1.89078
1.88462
1.87849
1.87234
1.86632
1.86021
1.85436
1.84836
1.84279
1.83717
1.83242
1.82895
2.18279
2.159
2.13755
2.11583
2.09559
2.07412
2.05299
2.03509
2.01872
2.00685
2.00184
2.00558
2.01676
2.03583
2.07136
2.13131
2.21616
2.28131
2.30806
2.30871
2.30201
2.28765
2.26603
2.24
2.21563
2.19096
2.1677
2.14358
2.12075
2.09708
2.07482
2.05199
2.03087
2.00949
1.99053
1.9714
1.95575
1.94047
1.92946
1.92021
1.9136
1.91033
1.90679
1.90674
1.90807
1.91522
1.9275
1.94454
1.96306
1.98057
1.99522
2.00599
2.0131
2.01719
2.01914
2.01964
2.01906
2.01804
2.01682
2.01562
2.01403
2.01196
2.0093
2.00615
2.00266
1.99882
1.99482
1.99049
1.98605
1.98128
1.97653
1.97147
1.9665
1.96123
1.95608
1.95062
1.9453
1.93966
1.93421
1.92843
1.92287
1.91699
1.91132
1.90534
1.89959
1.89354
1.88775
1.88166
1.87587
1.86977
1.86402
1.85793
1.85225
1.84622
1.84065
1.83476
1.82943
1.82396
1.81938
1.816
2.17703
2.15251
2.12912
2.10629
2.08457
2.066
2.04763
2.03235
2.01876
2.01113
2.0126
2.02226
2.04021
2.07029
2.12801
2.20984
2.27919
2.31007
2.31349
2.30787
2.29595
2.27602
2.25345
2.23107
2.211
2.18925
2.16849
2.14535
2.12393
2.10072
2.0795
2.05688
2.03635
2.01476
1.99562
1.97596
1.95925
1.94258
1.92902
1.91537
1.9063
1.89639
1.89139
1.88657
1.88402
1.88369
1.88619
1.89497
1.9086
1.92613
1.94427
1.96078
1.97385
1.98338
1.98903
1.99208
1.99301
1.99263
1.99166
1.99061
1.98938
1.98779
1.98562
1.98289
1.9798
1.97629
1.97257
1.96841
1.96421
1.95966
1.9552
1.95036
1.94569
1.94058
1.93571
1.93039
1.92537
1.91986
1.91469
1.90901
1.90373
1.89795
1.89258
1.88675
1.88129
1.87542
1.8699
1.86404
1.85849
1.85269
1.84715
1.84143
1.83594
1.83032
1.82495
1.81948
1.81436
1.80929
1.8049
1.80183
2.1636
2.14485
2.12413
2.10254
2.08022
2.06016
2.04226
2.02778
2.02006
2.02085
2.03083
2.04827
2.07726
2.13263
2.21181
2.28203
2.31501
2.31935
2.31448
2.3031
2.28543
2.26439
2.24556
2.22667
2.20832
2.1887
2.16921
2.14859
2.12835
2.10683
2.08589
2.06415
2.04298
2.02186
2.00171
1.98223
1.96427
1.94651
1.93087
1.91462
1.90161
1.88805
1.87943
1.87022
1.86558
1.85994
1.8588
1.85851
1.86274
1.87284
1.88867
1.90638
1.92471
1.9404
1.95247
1.96042
1.96479
1.96651
1.9666
1.96572
1.96474
1.9636
1.96205
1.95985
1.95733
1.95431
1.95107
1.94723
1.94336
1.939
1.9348
1.93011
1.92565
1.92066
1.91596
1.91072
1.90586
1.90046
1.89547
1.88995
1.88483
1.87922
1.87399
1.86834
1.86302
1.85737
1.85197
1.84636
1.84091
1.83537
1.82992
1.82449
1.81911
1.8138
1.8086
1.80346
1.79857
1.79385
1.78972
1.7869
2.14175
2.12669
2.11342
2.09713
2.07805
2.05927
2.0435
2.03038
2.02883
2.03857
2.05632
2.08479
2.13889
2.21601
2.28639
2.31971
2.32481
2.32025
2.30982
2.29261
2.27372
2.25627
2.24021
2.22383
2.2072
2.18945
2.17098
2.15149
2.1313
2.11076
2.08951
2.06833
2.04678
2.02617
2.0054
1.98618
1.96661
1.94876
1.93054
1.91414
1.89788
1.88373
1.87012
1.85883
1.84977
1.84249
1.83766
1.83335
1.83327
1.83426
1.8406
1.85302
1.86986
1.88838
1.90603
1.92057
1.9311
1.93743
1.94076
1.94148
1.94094
1.93995
1.9388
1.93705
1.93498
1.93234
1.92955
1.92609
1.92264
1.91856
1.91465
1.91016
1.90594
1.90112
1.89664
1.89157
1.88688
1.88164
1.87678
1.87141
1.86638
1.8609
1.85571
1.8502
1.84489
1.8394
1.834
1.82858
1.82314
1.81781
1.81241
1.80719
1.80193
1.79687
1.79185
1.78702
1.78239
1.77804
1.77424
1.77172
2.12309
2.10987
2.09263
2.0808
2.07011
2.0573
2.04725
2.04234
2.05105
2.06602
2.09462
2.1471
2.22277
2.29073
2.32286
2.32748
2.32295
2.31238
2.29502
2.27726
2.26193
2.24798
2.23402
2.21942
2.20363
2.18702
2.1691
2.15059
2.13098
2.11099
2.09011
2.06954
2.04831
2.02815
2.00735
1.98795
1.96795
1.94969
1.93074
1.91398
1.89621
1.88111
1.86525
1.85273
1.83966
1.83075
1.82204
1.81669
1.81167
1.80942
1.80956
1.81216
1.82033
1.8347
1.85196
1.87062
1.88723
1.90056
1.90952
1.91451
1.91634
1.91624
1.91532
1.91401
1.91268
1.91041
1.90798
1.9049
1.90179
1.89809
1.89446
1.89028
1.88624
1.88169
1.87736
1.87255
1.86801
1.86303
1.85831
1.85319
1.84831
1.84309
1.83804
1.83275
1.82755
1.82227
1.81697
1.81172
1.8064
1.80122
1.79594
1.79085
1.78573
1.78079
1.77596
1.77131
1.76697
1.76291
1.75954
1.75725
2.11133
2.10175
2.08361
2.06811
2.05804
2.05112
2.05254
2.06568
2.08117
2.11262
2.16431
2.2393
2.30197
2.33166
2.33315
2.32792
2.31533
2.29693
2.27881
2.26471
2.25166
2.24007
2.22691
2.21362
2.19811
2.18244
2.16463
2.14698
2.12747
2.10834
2.08779
2.06789
2.04703
2.02721
2.00656
1.98749
1.96759
1.94945
1.93041
1.91332
1.89541
1.87957
1.86316
1.84904
1.83465
1.82322
1.81158
1.80393
1.796
1.79127
1.78634
1.78576
1.78592
1.78997
1.79995
1.81506
1.83277
1.85085
1.86654
1.87825
1.88555
1.88925
1.88988
1.88919
1.88841
1.88694
1.88506
1.88236
1.87964
1.87632
1.87306
1.86925
1.86558
1.86138
1.85735
1.85284
1.84856
1.84388
1.83947
1.8347
1.83011
1.82521
1.82044
1.81545
1.81053
1.80548
1.80042
1.79534
1.79024
1.78519
1.78017
1.77524
1.77041
1.76567
1.76119
1.75678
1.75289
1.74917
1.74641
1.74435
2.08899
2.08337
2.07665
2.06291
2.05416
2.05494
2.06987
2.08764
2.12491
2.18011
2.25798
2.31578
2.34214
2.34128
2.33473
2.32046
2.29961
2.28221
2.26767
2.25615
2.24476
2.23346
2.22063
2.20716
2.19202
2.17632
2.15916
2.14166
2.12289
2.10409
2.0843
2.06483
2.04481
2.0253
2.00566
1.98674
1.96757
1.94943
1.93084
1.91345
1.8956
1.87912
1.86239
1.84716
1.83204
1.81848
1.80556
1.79413
1.78439
1.77598
1.76958
1.76355
1.7604
1.75942
1.76049
1.76609
1.77733
1.79333
1.8115
1.82892
1.84319
1.85346
1.85918
1.86154
1.86143
1.86074
1.85962
1.85777
1.85546
1.85268
1.84984
1.84653
1.84316
1.83932
1.83555
1.83134
1.82729
1.8228
1.81856
1.81394
1.80961
1.80495
1.80053
1.79585
1.79133
1.78665
1.78207
1.77741
1.7728
1.76819
1.76363
1.75913
1.75475
1.75048
1.74648
1.74268
1.73942
1.7365
1.73465
1.73323
2.07271
2.07139
2.06307
2.05572
2.05597
2.07105
2.09169
2.13346
2.192
2.27287
2.32723
2.34894
2.3483
2.34071
2.32335
2.30194
2.28404
2.26958
2.25809
2.24769
2.23716
2.2257
2.21326
2.19972
2.18514
2.16958
2.15304
2.13574
2.1179
2.09944
2.08099
2.0619
2.04323
2.02394
2.00539
1.98616
1.96788
1.94895
1.931
1.91258
1.89512
1.87756
1.86099
1.84434
1.82917
1.81341
1.79998
1.78572
1.7743
1.76244
1.75385
1.74526
1.73949
1.73362
1.7318
1.73097
1.73354
1.74106
1.75399
1.77121
1.78963
1.80647
1.81985
1.82837
1.83323
1.83394
1.83353
1.83253
1.8311
1.82826
1.82553
1.82217
1.81924
1.81557
1.81216
1.80798
1.80419
1.79977
1.79582
1.79129
1.78727
1.78274
1.77869
1.77421
1.77011
1.76571
1.76155
1.75732
1.75316
1.74914
1.7451
1.74137
1.73765
1.73432
1.73118
1.7285
1.72642
1.72487
1.7242
1.72347
2.05523
2.06244
2.06179
2.06
2.07059
2.09613
2.13999
2.20496
2.28707
2.33812
2.35316
2.35026
2.34047
2.32214
2.3008
2.28327
2.26998
2.25886
2.24963
2.23964
2.22947
2.21751
2.20539
2.19163
2.17776
2.16228
2.14676
2.12979
2.11304
2.0949
2.07722
2.05823
2.03989
2.02058
2.00196
1.98273
1.96423
1.94525
1.92718
1.90861
1.89115
1.8732
1.85635
1.8392
1.823
1.80692
1.79203
1.77739
1.76442
1.75179
1.74134
1.73139
1.72385
1.71658
1.71132
1.70726
1.70714
1.70793
1.71216
1.72191
1.73673
1.75471
1.77291
1.78873
1.80058
1.80739
1.81048
1.81029
1.80956
1.80793
1.8056
1.80255
1.79945
1.79604
1.79275
1.78879
1.78505
1.78067
1.77663
1.77204
1.7677
1.76306
1.75856
1.75409
1.74955
1.74529
1.74079
1.73675
1.73243
1.72869
1.72473
1.72139
1.71801
1.7153
1.71289
1.71138
1.71047
1.71039
1.71077
1.71113
2.01385
2.04401
2.05892
2.07242
2.10038
2.15203
2.23062
2.30096
2.34387
2.35413
2.3502
2.33752
2.31611
2.2952
2.27753
2.26407
2.25411
2.24538
2.23645
2.22678
2.21586
2.20406
2.19128
2.1778
2.16359
2.14881
2.13329
2.11742
2.10066
2.08381
2.06601
2.04835
2.02997
2.01173
1.99322
1.97475
1.95635
1.93807
1.91992
1.90187
1.88401
1.8666
1.84941
1.83307
1.81705
1.802
1.78726
1.77345
1.76014
1.74767
1.73606
1.72523
1.71571
1.70742
1.70043
1.69433
1.68938
1.68742
1.68742
1.68949
1.69555
1.70655
1.72315
1.74162
1.75975
1.77488
1.78476
1.79027
1.79115
1.79072
1.78974
1.78726
1.78483
1.78092
1.77802
1.77417
1.77083
1.76676
1.7629
1.75872
1.75452
1.75022
1.74571
1.74133
1.73667
1.73234
1.72768
1.72349
1.71897
1.71513
1.71101
1.70785
1.70447
1.70246
1.70046
1.70015
1.69974
1.70061
1.70251
1.70274
1.94237
2.03214
2.0642
2.10828
2.17067
2.25637
2.32269
2.36027
2.36112
2.35395
2.33628
2.31102
2.28938
2.27142
2.25675
2.24672
2.23845
2.23108
2.22235
2.21303
2.2018
2.19055
2.17773
2.16524
2.15122
2.13715
2.1218
2.10616
2.08971
2.07296
2.05568
2.03814
2.02024
2.00222
1.98407
1.96601
1.94807
1.93038
1.91285
1.89579
1.87894
1.86262
1.8465
1.83112
1.81573
1.80127
1.78663
1.77305
1.75939
1.74662
1.73402
1.72235
1.71124
1.70128
1.69224
1.68473
1.67776
1.6719