/*--------------------------------*- C++ -*----------------------------------*\
| =========                 |                                                 |
| \\      /  F ield         | OpenFOAM: The Open Source CFD Toolbox           |
|  \\    /   O peration     | Version:  2412                                  |
|   \\  /    A nd           | Website:  www.openfoam.com                      |
|    \\/     M anipulation  |                                                 |
\*---------------------------------------------------------------------------*/
FoamFile
{
    version     2.0;
    format      ascii;
    arch        "LSB;label=32;scalar=64";
    class       volVectorField;
    location    "6.5";
    object      U;
}
// * * * * * * * * * * * * * * * * * * * * * * * * * * * * * * * * * * * * * //

dimensions      [0 1 -1 0 0 0 0];

internalField   nonuniform List<vector> 
5250
(
(2.99999 1.36899e-08 0)
(2.99998 1.0635e-07 0)
(2.99995 3.27415e-07 0)
(2.99989 9.90072e-07 0)
(2.99972 2.34826e-06 0)
(2.99939 6.283e-06 0)
(2.99831 1.41197e-05 0)
(2.99652 3.77639e-05 0)
(2.98943 8.08169e-05 0)
(2.97828 0.000238697 0)
(2.9321 0.000502445 0)
(2.82792 0.00160861 0)
(2.5215 0.0040702 0)
(1.5602 0.0116044 0)
(0.744529 0.0273709 0)
(0.516582 0.0260937 0)
(0.547798 0.0256218 0)
(0.544609 0.0268057 0)
(0.489582 0.028168 0)
(0.402153 0.0297967 0)
(0.321327 0.0318684 0)
(0.254547 0.0342958 0)
(0.187011 0.0368647 0)
(0.110881 0.0396744 0)
(0.0467411 0.0427353 0)
(2.99999 3.96597e-08 0)
(2.99998 3.07736e-07 0)
(2.99995 9.47027e-07 0)
(2.99989 2.85884e-06 0)
(2.99972 6.75803e-06 0)
(2.9994 1.81502e-05 0)
(2.99834 4.0157e-05 0)
(2.99657 0.000110137 0)
(2.98959 0.000230705 0)
(2.97864 0.000694748 0)
(2.93318 0.00144549 0)
(2.83113 0.00479478 0)
(2.5291 0.0115043 0)
(1.57923 0.0361222 0)
(0.756817 0.0827566 0)
(0.513836 0.0744341 0)
(0.547083 0.069888 0)
(0.545139 0.0709996 0)
(0.490069 0.0726888 0)
(0.402793 0.0752024 0)
(0.321945 0.0784177 0)
(0.254661 0.0819609 0)
(0.186327 0.0852579 0)
(0.109231 0.0882939 0)
(0.0447494 0.0901312 0)
(2.99999 6.40152e-08 0)
(2.99998 4.96794e-07 0)
(2.99995 1.52814e-06 0)
(2.9999 4.61361e-06 0)
(2.99973 1.08856e-05 0)
(2.99941 2.93664e-05 0)
(2.99839 6.43677e-05 0)
(2.99668 0.000179922 0)
(2.98991 0.000372002 0)
(2.97931 0.00113918 0)
(2.93534 0.00235565 0)
(2.83696 0.00800277 0)
(2.54531 0.0187723 0)
(1.62323 0.0620773 0)
(0.783422 0.143529 0)
(0.508953 0.126011 0)
(0.547759 0.117061 0)
(0.549231 0.11939 0)
(0.49478 0.122977 0)
(0.40833 0.128369 0)
(0.327697 0.134488 0)
(0.259841 0.14103 0)
(0.190459 0.147236 0)
(0.111742 0.152582 0)
(0.0452089 0.154884 0)
(2.99999 8.68437e-08 0)
(2.99998 6.75523e-07 0)
(2.99996 2.07698e-06 0)
(2.9999 6.28662e-06 0)
(2.99974 1.48402e-05 0)
(2.99944 4.02069e-05 0)
(2.99846 8.82005e-05 0)
(2.99683 0.000248187 0)
(2.99039 0.000513352 0)
(2.98031 0.0015841 0)
(2.93862 0.00327511 0)
(2.84584 0.0111704 0)
(2.57012 0.0263627 0)
(1.69295 0.0869753 0)
(0.825665 0.20495 0)
(0.502864 0.176773 0)
(0.551256 0.162966 0)
(0.558411 0.166825 0)
(0.504951 0.172582 0)
(0.419678 0.181232 0)
(0.339169 0.190613 0)
(0.270563 0.200647 0)
(0.199659 0.210619 0)
(0.118029 0.219296 0)
(0.0475191 0.222804 0)
(3 1.02099e-07 0)
(2.99999 7.9271e-07 0)
(2.99996 2.43676e-06 0)
(2.99991 7.37207e-06 0)
(2.99976 1.73293e-05 0)
(2.99947 4.75128e-05 0)
(2.99856 0.000101123 0)
(2.99703 0.000302735 0)
(2.99102 0.000586043 0)
(2.98163 0.00201152 0)
(2.94295 0.0040191 0)
(2.85762 0.0140848 0)
(2.603 0.0334903 0)
(1.7881 0.110018 0)
(0.883949 0.266152 0)
(0.497582 0.227724 0)
(0.559056 0.208757 0)
(0.573616 0.213826 0)
(0.521218 0.221549 0)
(0.437296 0.233638 0)
(0.356663 0.246614 0)
(0.287067 0.260673 0)
(0.214224 0.275149 0)
(0.12862 0.288179 0)
(0.0520646 0.293918 0)
(3 1.13673e-07 0)
(2.99999 8.81014e-07 0)
(2.99996 2.70814e-06 0)
(2.99991 8.18798e-06 0)
(2.99978 1.91949e-05 0)
(2.99951 5.30529e-05 0)
(2.99868 0.00011031 0)
(2.99724 0.000346221 0)
(2.9918 0.000630043 0)
(2.9832 0.00236971 0)
(2.94822 0.00458759 0)
(2.8722 0.0163955 0)
(2.64345 0.0392075 0)
(1.90971 0.128341 0)
(0.962561 0.320988 0)
(0.50027 0.278055 0)
(0.575097 0.254923 0)
(0.597552 0.260219 0)
(0.545984 0.269634 0)
(0.463434 0.285966 0)
(0.382158 0.303399 0)
(0.311074 0.322598 0)
(0.235591 0.343283 0)
(0.14441 0.362991 0)
(0.0593661 0.373445 0)
(3 1.2526e-07 0)
(2.99999 9.72012e-07 0)
(2.99997 2.98851e-06 0)
(2.99992 9.04325e-06 0)
(2.9998 2.12696e-05 0)
(2.99955 5.84214e-05 0)
(2.99881 0.000123635 0)
(2.99747 0.000377771 0)
(2.99269 0.000694187 0)
(2.98496 0.00257265 0)
(2.95416 0.00497023 0)
(2.8885 0.0175961 0)
(2.68897 0.0427892 0)
(2.05224 0.138577 0)
(1.06313 0.363065 0)
(0.521759 0.333085 0)
(0.60356 0.309005 0)
(0.632318 0.310274 0)
(0.581984 0.319313 0)
(0.500881 0.339713 0)
(0.418017 0.362155 0)
(0.344978 0.387609 0)
(0.266646 0.416374 0)
(0.168906 0.446301 0)
(0.0717626 0.466745 0)
(3 1.29225e-07 0)
(2.99999 1.00034e-06 0)
(2.99997 3.07961e-06 0)
(2.99993 9.27692e-06 0)
(2.99982 2.18923e-05 0)
(2.99959 5.89078e-05 0)
(2.99894 0.000128332 0)
(2.99771 0.000365412 0)
(2.99362 0.000710146 0)
(2.9868 0.00241892 0)
(2.9603 0.00463916 0)
(2.90574 0.0161191 0)
(2.73683 0.0396925 0)
(2.21047 0.12197 0)
(1.21068 0.333957 0)
(0.591743 0.367422 0)
(0.655344 0.363719 0)
(0.681959 0.360794 0)
(0.633487 0.371833 0)
(0.553618 0.395301 0)
(0.467939 0.423671 0)
(0.392052 0.456944 0)
(0.310846 0.496091 0)
(0.206644 0.54156 0)
(0.0931714 0.583052 0)
(3 1.30952e-07 0)
(2.99999 1.00172e-06 0)
(2.99997 3.08964e-06 0)
(2.99994 9.20679e-06 0)
(2.99984 2.17698e-05 0)
(2.99964 5.71128e-05 0)
(2.99906 0.00012711 0)
(2.99795 0.000334643 0)
(2.99439 0.000698456 0)
(2.98826 0.002074 0)
(2.96522 0.00403792 0)
(2.91932 0.013062 0)
(2.77007 0.0323636 0)
(2.31715 0.0881016 0)
(1.35454 0.256856 0)
(0.640125 0.395714 0)
(0.681634 0.420476 0)
(0.712892 0.41479 0)
(0.680108 0.428465 0)
(0.609264 0.452838 0)
(0.527196 0.487922 0)
(0.451794 0.529851 0)
(0.371775 0.58154 0)
(0.267222 0.651334 0)
(0.132801 0.738067 0)
(3 5.66647e-08 0)
(2.99999 1.50937e-06 0)
(2.99998 3.04611e-06 0)
(2.99995 1.3371e-05 0)
(2.99986 2.19972e-05 0)
(2.99968 8.55388e-05 0)
(2.99917 0.000120557 0)
(2.99819 0.000524288 0)
(2.99506 0.000537337 0)
(2.9896 0.00314585 0)
(2.9692 0.00196877 0)
(2.93036 0.0191284 0)
(2.7935 0.0153769 0)
(2.40217 0.10203 0)
(1.52349 0.20654 0)
(0.720961 0.441526 0)
(0.693531 0.471447 0)
(0.723106 0.468008 0)
(0.712143 0.483364 0)
(0.6587 0.509323 0)
(0.589583 0.551006 0)
(0.521547 0.602069 0)
(0.45321 0.672127 0)
(0.366819 0.783843 0)
(0.207595 0.987388 0)
(3 1.11147e-07 0)
(2.99999 8.68897e-07 0)
(2.99998 2.67239e-06 0)
(2.99995 8.08845e-06 0)
(2.9999 1.91951e-05 0)
(2.99972 5.10701e-05 0)
(2.99943 0.000116173 0)
(2.9983 0.000295896 0)
(2.99657 0.000688556 0)
(2.98947 0.00170338 0)
(2.97806 0.00388248 0)
(2.93144 0.0104924 0)
(2.82551 0.0266103 0)
(2.51453 0.0700589 0)
(1.59432 0.210533 0)
(0.820493 0.477552 0)
(0.693511 0.49975 0)
(0.727305 0.505518 0)
(0.735223 0.525294 0)
(0.701736 0.557686 0)
(0.651628 0.604974 0)
(0.602249 0.665955 0)
(0.566473 0.753139 0)
(0.559606 0.891847 0)
(0.587732 1.12661 0)
(3 1.60115e-07 0)
(2.99999 1.70558e-07 0)
(2.99998 2.12463e-06 0)
(2.99996 2.19452e-06 0)
(2.99989 1.48336e-05 0)
(2.99976 1.22209e-05 0)
(2.99938 9.87422e-05 0)
(2.99866 5.0576e-05 0)
(2.99624 0.000714099 0)
(2.99225 0.000320972 0)
(2.97651 0.00525683 0)
(2.9491 0.00258823 0)
(2.84232 0.035982 0)
(2.56098 0.0505543 0)
(1.86205 0.208031 0)
(0.93993 0.519035 0)
(0.701487 0.52642 0)
(0.736393 0.533926 0)
(0.75886 0.556175 0)
(0.742949 0.595663 0)
(0.712735 0.647485 0)
(0.687613 0.715838 0)
(0.686945 0.809935 0)
(0.736933 0.942856 0)
(0.862092 1.11561 0)
(3 8.07975e-08 0)
(2.99999 6.29984e-07 0)
(2.99998 1.9356e-06 0)
(2.99996 5.86785e-06 0)
(2.99991 1.38229e-05 0)
(2.99979 3.72942e-05 0)
(2.99946 8.22639e-05 0)
(2.99881 0.000230026 0)
(2.9968 0.000454786 0)
(2.99326 0.00153508 0)
(2.98011 0.00271353 0)
(2.95716 0.0105166 0)
(2.87059 0.0208635 0)
(2.64306 0.0807286 0)
(2.07257 0.197383 0)
(1.08272 0.555209 0)
(0.721005 0.561308 0)
(0.755204 0.566705 0)
(0.788385 0.583866 0)
(0.786601 0.62532 0)
(0.772816 0.680214 0)
(0.770329 0.749811 0)
(0.795815 0.838795 0)
(0.86967 0.947752 0)
(1.01359 1.05476 0)
(3 8.60724e-08 0)
(3 6.68501e-07 0)
(2.99999 2.05626e-06 0)
(2.99997 6.21026e-06 0)
(2.99992 1.47055e-05 0)
(2.99982 3.92562e-05 0)
(2.99954 8.8199e-05 0)
(2.99898 0.000233615 0)
(2.99732 0.000503927 0)
(2.99414 0.00145304 0)
(2.98388 0.00282004 0)
(2.96451 0.00986282 0)
(2.89716 0.0193546 0)
(2.72443 0.0714183 0)
(2.27721 0.175325 0)
(1.26913 0.52802 0)
(0.786466 0.589591 0)
(0.795948 0.606352 0)
(0.828071 0.615494 0)
(0.837486 0.651574 0)
(0.834168 0.704861 0)
(0.845463 0.770216 0)
(0.885708 0.846414 0)
(0.966312 0.929889 0)
(1.10371 0.999297 0)
(3 8.69854e-08 0)
(3 6.77987e-07 0)
(2.99999 2.08552e-06 0)
(2.99997 6.31115e-06 0)
(2.99993 1.49813e-05 0)
(2.99985 4.0019e-05 0)
(2.99962 9.04242e-05 0)
(2.99916 0.00023595 0)
(2.99781 0.000530707 0)
(2.9952 0.00136874 0)
(2.98705 0.0031518 0)
(2.97119 0.00813504 0)
(2.91888 0.0192051 0)
(2.78781 0.0547873 0)
(2.43927 0.141651 0)
(1.4742 0.421703 0)
(0.880796 0.608227 0)
(0.84348 0.643144 0)
(0.867569 0.655001 0)
(0.888363 0.679104 0)
(0.894165 0.724353 0)
(0.912655 0.7816 0)
(0.958628 0.844558 0)
(1.03882 0.907839 0)
(1.16336 0.957071 0)
(3 7.74233e-08 0)
(3 6.02001e-07 0)
(2.99999 1.85272e-06 0)
(2.99998 5.5914e-06 0)
(2.99995 1.32653e-05 0)
(2.99988 3.52791e-05 0)
(2.9997 7.96107e-05 0)
(2.99934 0.000206435 0)
(2.99826 0.00046389 0)
(2.99633 0.00118229 0)
(2.98948 0.00273368 0)
(2.97808 0.00675487 0)
(2.93425 0.0165719 0)
(2.83388 0.043154 0)
(2.54855 0.113996 0)
(1.68338 0.328671 0)
(0.998201 0.642448 0)
(0.877103 0.677598 0)
(0.895815 0.693744 0)
(0.925892 0.705947 0)
(0.945735 0.740422 0)
(0.971033 0.788019 0)
(1.01895 0.839864 0)
(1.09564 0.888894 0)
(1.2064 0.92551 0)
(3 6.35325e-08 0)
(3 4.91056e-07 0)
(2.99999 1.51326e-06 0)
(2.99998 4.54046e-06 0)
(2.99996 1.07523e-05 0)
(2.99991 2.83566e-05 0)
(2.99976 6.36563e-05 0)
(2.99948 0.000164664 0)
(2.99863 0.00035984 0)
(2.99709 0.000967142 0)
(2.99166 0.00200283 0)
(2.98285 0.00595064 0)
(2.94793 0.0123447 0)
(2.87318 0.0387648 0)
(2.64762 0.0945616 0)
(1.93542 0.292244 0)
(1.17376 0.671528 0)
(0.916295 0.707299 0)
(0.922704 0.722601 0)
(0.955698 0.728306 0)
(0.988871 0.751884 0)
(1.0211 0.790935 0)
(1.06963 0.834036 0)
(1.14161 0.872925 0)
(1.23972 0.900805 0)
(3 5.38686e-08 0)
(3 4.15251e-07 0)
(2.99999 1.28016e-06 0)
(2.99999 3.83555e-06 0)
(2.99997 9.08408e-06 0)
(2.99993 2.39316e-05 0)
(2.99981 5.36981e-05 0)
(2.99959 0.0001389 0)
(2.99893 0.000303069 0)
(2.9977 0.000820231 0)
(2.99361 0.00166968 0)
(2.98677 0.00517064 0)
(2.96053 0.0101501 0)
(2.90616 0.0338848 0)
(2.73938 0.080531 0)
(2.21694 0.251011 0)
(1.40553 0.648251 0)
(1.00062 0.728938 0)
(0.97107 0.743773 0)
(0.99196 0.74912 0)
(1.03068 0.762608 0)
(1.0681 0.793214 0)
(1.11477 0.828631 0)
(1.18037 0.859744 0)
(1.26714 0.881187 0)
(3 2.98507e-08 0)
(3 4.02925e-07 0)
(3 9.87143e-07 0)
(2.99999 3.61694e-06 0)
(2.99998 7.16194e-06 0)
(2.99994 2.25847e-05 0)
(2.99986 4.28356e-05 0)
(2.99969 0.000131911 0)
(2.99919 0.000243202 0)
(2.99823 0.000782431 0)
(2.99527 0.00128961 0)
(2.98997 0.00494862 0)
(2.97112 0.00666517 0)
(2.9347 0.031516 0)
(2.81248 0.0523117 0)
(2.46379 0.205353 0)
(1.71081 0.499611 0)
(1.11274 0.742915 0)
(1.02977 0.766794 0)
(1.03676 0.776714 0)
(1.07328 0.780709 0)
(1.11354 0.799831 0)
(1.15727 0.826307 0)
(1.21565 0.850538 0)
(1.29158 0.866832 0)
(3 2.20888e-08 0)
(3 3.03523e-07 0)
(3 7.38424e-07 0)
(2.99999 2.72218e-06 0)
(2.99998 5.34866e-06 0)
(2.99996 1.69269e-05 0)
(2.99991 3.18416e-05 0)
(2.99976 9.80837e-05 0)
(2.99947 0.000181543 0)
(2.99857 0.000566031 0)
(2.99707 0.0010077 0)
(2.99127 0.00342776 0)
(2.98212 0.00533814 0)
(2.94562 0.0219904 0)
(2.86756 0.0361681 0)
(2.62811 0.13896 0)
(1.93676 0.360143 0)
(1.27058 0.749345 0)
(1.07647 0.793192 0)
(1.07313 0.807065 0)
(1.1064 0.80556 0)
(1.15177 0.80984 0)
(1.19546 0.826492 0)
(1.24822 0.844138 0)
(1.31484 0.856383 0)
(3 4.20514e-08 0)
(3 1.52282e-07 0)
(3 7.24466e-07 0)
(2.99999 1.51637e-06 0)
(2.99999 5.00957e-06 0)
(2.99997 9.49517e-06 0)
(2.99993 2.93349e-05 0)
(2.99981 5.37882e-05 0)
(2.99958 0.000168265 0)
(2.99892 0.000289601 0)
(2.99765 0.00101438 0)
(2.99358 0.00153745 0)
(2.98656 0.00651825 0)
(2.96072 0.00963431 0)
(2.90672 0.0427406 0)
(2.74274 0.0837702 0)
(2.23177 0.302197 0)
(1.50576 0.703579 0)
(1.15711 0.809632 0)
(1.12128 0.828274 0)
(1.13901 0.830191 0)
(1.18363 0.824396 0)
(1.23032 0.830329 0)
(1.27923 0.841113 0)
(1.3382 0.849234 0)
(3 2.75526e-08 0)
(3 1.5007e-07 0)
(3 5.58549e-07 0)
(3 1.43343e-06 0)
(2.99999 3.94736e-06 0)
(2.99998 9.0531e-06 0)
(2.99994 2.35348e-05 0)
(2.99987 5.26798e-05 0)
(2.99967 0.000135615 0)
(2.99927 0.000301655 0)
(2.99811 0.000780457 0)
(2.99584 0.00172112 0)
(2.9889 0.00462804 0)
(2.97491 0.00992367 0)
(2.93154 0.0283973 0)
(2.82529 0.0711755 0)
(2.52695 0.192965 0)
(1.76744 0.573479 0)
(1.27684 0.811141 0)
(1.17869 0.840973 0)
(1.17843 0.851242 0)
(1.2143 0.843657 0)
(1.26192 0.838924 0)
(1.30883 0.842398 0)
(1.3615 0.846247 0)
(3 1.61347e-08 0)
(3 1.25656e-07 0)
(3 3.86711e-07 0)
(3 1.1674e-06 0)
(2.99999 2.76799e-06 0)
(2.99998 7.35424e-06 0)
(2.99996 1.65765e-05 0)
(2.9999 4.29952e-05 0)
(2.99979 9.58241e-05 0)
(2.99946 0.000248095 0)
(2.99884 0.000553459 0)
(2.99679 0.00142977 0)
(2.9934 0.00325731 0)
(2.98045 0.00828328 0)
(2.95811 0.0201897 0)
(2.874 0.0514415 0)
(2.6629 0.144648 0)
(2.12038 0.382065 0)
(1.42127 0.819065 0)
(1.22287 0.867525 0)
(1.21152 0.873456 0)
(1.23789 0.865154 0)
(1.28631 0.851959 0)
(1.33547 0.848032 0)
(1.38487 0.847527 0)
(3 1.44589e-08 0)
(3 7.76452e-08 0)
(3 2.89389e-07 0)
(3 7.41988e-07 0)
(3 2.03598e-06 0)
(2.99999 4.65784e-06 0)
(2.99997 1.20307e-05 0)
(2.99994 2.68015e-05 0)
(2.99984 6.85376e-05 0)
(2.99965 0.000150794 0)
(2.99909 0.000394668 0)
(2.99809 0.000828723 0)
(2.99461 0.00238858 0)
(2.98893 0.00470232 0)
(2.96747 0.0149222 0)
(2.92529 0.0315608 0)
(2.7898 0.100956 0)
(2.40261 0.274646 0)
(1.71293 0.688493 0)
(1.32395 0.855064 0)
(1.26411 0.878308 0)
(1.27178 0.881129 0)
(1.31238 0.867603 0)
(1.36181 0.857638 0)
(1.40885 0.852778 0)
(3 5.58641e-09 0)
(3 6.70696e-08 0)
(3 1.71629e-07 0)
(3 6.0472e-07 0)
(3 1.23795e-06 0)
(2.99999 3.74638e-06 0)
(2.99998 7.33177e-06 0)
(2.99995 2.14991e-05 0)
(2.99989 4.14913e-05 0)
(2.99973 0.000122078 0)
(2.9994 0.000230259 0)
(2.99845 0.000712167 0)
(2.99662 0.00124596 0)
(2.99089 0.00439767 0)
(2.98038 0.00707683 0)
(2.94495 0.0276718 0)
(2.86121 0.0519658 0)
(2.62729 0.176951 0)
(1.98996 0.48023 0)
(1.45362 0.830494 0)
(1.31436 0.883877 0)
(1.30611 0.896232 0)
(1.33586 0.886974 0)
(1.38471 0.870071 0)
(1.43184 0.861071 0)
(3 9.29354e-09 0)
(3 3.75469e-08 0)
(3 1.66414e-07 0)
(3 3.70253e-07 0)
(3 1.15968e-06 0)
(2.99999 2.34075e-06 0)
(2.99999 6.846e-06 0)
(2.99997 1.3525e-05 0)
(2.99993 3.90505e-05 0)
(2.99981 7.65642e-05 0)
(2.99959 0.000221842 0)
(2.99894 0.000431079 0)
(2.99768 0.00127693 0)
(2.99379 0.00241494 0)
(2.9869 0.00766828 0)
(2.96267 0.0140162 0)
(2.91184 0.047572 0)
(2.75983 0.106676 0)
(2.29899 0.341693 0)
(1.67914 0.755022 0)
(1.38944 0.883886 0)
(1.34794 0.906175 0)
(1.36019 0.906789 0)
(1.40355 0.888821 0)
(1.45301 0.87345 0)
(3 5.55729e-09 0)
(3 3.02925e-08 0)
(3 1.12475e-07 0)
(3 2.88633e-07 0)
(3 7.90971e-07 0)
(3 1.81185e-06 0)
(2.99999 4.67509e-06 0)
(2.99998 1.04495e-05 0)
(2.99995 2.66234e-05 0)
(2.99988 5.90967e-05 0)
(2.9997 0.000150511 0)
(2.99933 0.00033277 0)
(2.99828 0.000856169 0)
(2.99619 0.00186787 0)
(2.99008 0.00502401 0)
(2.97738 0.0106961 0)
(2.94002 0.0303625 0)
(2.84918 0.0742697 0)
(2.59378 0.206427 0)
(1.95552 0.58768 0)
(1.51132 0.862236 0)
(1.40055 0.909931 0)
(1.39296 0.922108 0)
(1.42233 0.910951 0)
(1.47004 0.888383 0)
(3 2.99292e-09 0)
(3 2.32471e-08 0)
(3 7.16203e-08 0)
(3 2.15382e-07 0)
(3 5.10511e-07 0)
(3 1.3465e-06 0)
(2.99999 3.03016e-06 0)
(2.99998 7.77611e-06 0)
(2.99997 1.72838e-05 0)
(2.99992 4.41783e-05 0)
(2.99981 9.77988e-05 0)
(2.99952 0.000251019 0)
(2.99896 0.000553702 0)
(2.99727 0.00143559 0)
(2.99426 0.00319795 0)
(2.98369 0.0082751 0)
(2.96501 0.0197249 0)
(2.89975 0.0503952 0)
(2.73796 0.137738 0)
(2.31177 0.365897 0)
(1.68433 0.814431 0)
(1.45715 0.915622 0)
(1.42566 0.933541 0)
(1.43894 0.931466 0)
(1.48116 0.909629 0)
(3 3.08992e-09 0)
(3 1.28999e-08 0)
(3 5.58853e-08 0)
(3 1.26931e-07 0)
(3 3.8947e-07 0)
(3 8.01197e-07 0)
(3 2.29147e-06 0)
(2.99999 4.61599e-06 0)
(2.99998 1.29883e-05 0)
(2.99995 2.60118e-05 0)
(2.99987 7.30369e-05 0)
(2.99971 0.000145606 0)
(2.99926 0.000412984 0)
(2.9984 0.000806589 0)
(2.99578 0.00241239 0)
(2.99109 0.00441074 0)
(2.97504 0.0148423 0)
(2.94416 0.0271359 0)
(2.84515 0.0938363 0)
(2.57475 0.229329 0)
(2.00335 0.614171 0)
(1.5729 0.884567 0)
(1.47841 0.931252 0)
(1.46975 0.94225 0)
(1.49565 0.930758 0)
(3 1.10461e-09 0)
(3 1.16023e-08 0)
(3 3.12951e-08 0)
(3 1.05031e-07 0)
(3 2.24423e-07 0)
(3 6.49605e-07 0)
(3 1.32689e-06 0)
(2.99999 3.71422e-06 0)
(2.99998 7.51146e-06 0)
(2.99997 2.08623e-05 0)
(2.99991 4.20335e-05 0)
(2.99981 0.000116787 0)
(2.99951 0.000234299 0)
(2.99893 0.00065832 0)
(2.99726 0.00129404 0)
(2.99404 0.00384193 0)
(2.98392 0.00707003 0)
(2.96506 0.0235231 0)
(2.90172 0.0451927 0)
(2.74164 0.15213 0)
(2.33773 0.373063 0)
(1.7476 0.823606 0)
(1.5339 0.928048 0)
(1.50154 0.947764 0)
(1.51133 0.947191 0)
(3 7.62044e-10 0)
(3 7.82556e-09 0)
(3 2.12601e-08 0)
(3 7.08514e-08 0)
(3 1.52205e-07 0)
(3 4.37979e-07 0)
(3 8.9924e-07 0)
(3 2.50329e-06 0)
(2.99999 5.09077e-06 0)
(2.99998 1.40583e-05 0)
(2.99995 2.85159e-05 0)
(2.99987 7.86713e-05 0)
(2.99972 0.000159134 0)
(2.99928 0.000441132 0)
(2.99843 0.00088598 0)
(2.99591 0.00251122 0)
(2.99129 0.00491701 0)
(2.97607 0.0150516 0)
(2.94614 0.0287259 0)
(2.85202 0.0948875 0)
(2.59723 0.232651 0)
(2.05866 0.613466 0)
(1.64863 0.888799 0)
(1.55411 0.941036 0)
(1.5417 0.953029 0)
(3 9.1575e-10 0)
(3 4.00401e-09 0)
(3 1.68457e-08 0)
(3 3.90532e-08 0)
(3 1.17034e-07 0)
(3 2.4495e-07 0)
(3 6.84475e-07 0)
(3 1.4019e-06 0)
(2.99999 3.85159e-06 0)
(2.99998 7.85021e-06 0)
(2.99997 2.14772e-05 0)
(2.99992 4.36739e-05 0)
(2.99982 0.000119559 0)
(2.99954 0.000242261 0)
(2.99898 0.000668958 0)
(2.9974 0.0013345 0)
(2.99436 0.00385413 0)
(2.98491 0.0072695 0)
(2.96712 0.0232104 0)
(2.90866 0.0453821 0)
(2.76184 0.149228 0)
(2.38958 0.364255 0)
(1.82895 0.810351 0)
(1.61196 0.930256 0)
(1.57369 0.95384 0)
(3 5.20862e-10 0)
(3 2.83564e-09 0)
(3 1.05112e-08 0)
(3 2.69684e-08 0)
(3 7.35739e-08 0)
(3 1.68247e-07 0)
(3 4.3123e-07 0)
(3 9.61603e-07 0)
(3 2.42938e-06 0)
(2.99999 5.38552e-06 0)
(2.99998 1.35616e-05 0)
(2.99995 3.00054e-05 0)
(2.99988 7.55606e-05 0)
(2.99974 0.000166872 0)
(2.99934 0.000421598 0)
(2.99856 0.000927756 0)
(2.99624 0.00237574 0)
(2.99207 0.00518925 0)
(2.97796 0.0138542 0)
(2.95146 0.0308182 0)
(2.86503 0.0858313 0)
(2.63647 0.232884 0)
(2.13821 0.582749 0)
(1.72363 0.889903 0)
(1.62073 0.949564 0)
(3 2.03983e-10 0)
(3 2.04397e-09 0)
(3 5.61546e-09 0)
(3 1.85343e-08 0)
(3 4.01486e-08 0)
(3 1.14256e-07 0)
(3 2.36181e-07 0)
(3 6.49292e-07 0)
(3 1.32838e-06 0)
(2.99999 3.6189e-06 0)
(2.99999 7.38551e-06 0)
(2.99997 2.00705e-05 0)
(2.99993 4.08893e-05 0)
(2.99983 0.000111216 0)
(2.99962 0.000225892 0)
(2.99903 0.000620265 0)
(2.99791 0.00123981 0)
(2.99446 0.00356327 0)
(2.98844 0.00676864 0)
(2.9674 0.0214252 0)
(2.92612 0.042097 0)
(2.79662 0.134803 0)
(2.43515 0.351432 0)
(1.9451 0.761545 0)
(1.69584 0.919087 0)
(3 2.06397e-10 0)
(3 1.11385e-09 0)
(3 4.1324e-09 0)
(3 1.05944e-08 0)
(3 2.88606e-08 0)
(3 6.59159e-08 0)
(3 1.68483e-07 0)
(3 3.75002e-07 0)
(3 9.4395e-07 0)
(3 2.08792e-06 0)
(2.99999 5.23507e-06 0)
(2.99998 1.15549e-05 0)
(2.99996 2.89521e-05 0)
(2.99989 6.37711e-05 0)
(2.99976 0.000160113 0)
(2.9994 0.000351395 0)
(2.99869 0.00089434 0)
(2.99667 0.00192227 0)
(2.99284 0.00518535 0)
(2.98064 0.0106372 0)
(2.95787 0.0312429 0)
(2.88367 0.0693664 0)
(2.68256 0.210473 0)
(2.24686 0.529924 0)
(1.82077 0.872507 0)
(3 1.47704e-10 0)
(3 6.72214e-10 0)
(3 2.76379e-09 0)
(3 6.50954e-09 0)
(3 1.91513e-08 0)
(3 4.06136e-08 0)
(3 1.11423e-07 0)
(3 2.31045e-07 0)
(3 6.23071e-07 0)
(3 1.28612e-06 0)
(3 3.4515e-06 0)
(2.99999 7.12049e-06 0)
(2.99997 1.90765e-05 0)
(2.99994 3.93416e-05 0)
(2.99986 0.000105426 0)
(2.99964 0.000216953 0)
(2.99922 0.000584134 0)
(2.99803 0.00119075 0)
(2.99571 0.00330297 0)
(2.98886 0.00642744 0)
(2.97533 0.0197152 0)
(2.93483 0.0372344 0)
(2.83462 0.123729 0)
(2.5745 0.295293 0)
(2.05402 0.715601 0)
(3 8.96846e-11 0)
(3 4.06572e-10 0)
(3 1.67361e-09 0)
(3 3.93864e-09 0)
(3 1.15847e-08 0)
(3 2.45341e-08 0)
(3 6.72425e-08 0)
(3 1.39134e-07 0)
(3 3.74734e-07 0)
(3 7.71214e-07 0)
(3 2.06718e-06 0)
(2.99999 4.24807e-06 0)
(2.99998 1.13699e-05 0)
(2.99996 2.33353e-05 0)
(2.99991 6.24799e-05 0)
(2.9998 0.000127889 0)
(2.99951 0.000343715 0)
(2.99893 0.000699663 0)
(2.99721 0.00190792 0)
(2.9942 0.00383246 0)
(2.98374 0.0108484 0)
(2.96561 0.0221802 0)
(2.90232 0.0644027 0)
(2.74845 0.158178 0)
(2.37348 0.425 0)
(3 3.12623e-11 0)
(3 3.04879e-10 0)
(3 8.4755e-10 0)
(3 2.75635e-09 0)
(3 6.01951e-09 0)
(3 1.68763e-08 0)
(3 3.51006e-08 0)
(3 9.50325e-08 0)
(3 1.95403e-07 0)
(3 5.2423e-07 0)
(3 1.07475e-06 0)
(3 2.87522e-06 0)
(2.99999 5.88684e-06 0)
(2.99998 1.57354e-05 0)
(2.99994 3.2146e-05 0)
(2.99988 8.60424e-05 0)
(2.9997 0.000175016 0)
(2.99933 0.000473859 0)
(2.99832 0.000941406 0)
(2.9963 0.00269557 0)
(2.9906 0.00503393 0)
(2.97874 0.0160782 0)
(2.94531 0.0299064 0)
(2.86419 0.100362 0)
(2.65065 0.233652 0)
(3 2.22294e-11 0)
(3 1.70659e-10 0)
(3 5.27091e-10 0)
(3 1.56644e-09 0)
(3 3.70781e-09 0)
(3 9.61218e-09 0)
(3 2.15397e-08 0)
(3 5.409e-08 0)
(3 1.19631e-07 0)
(3 2.98012e-07 0)
(3 6.56936e-07 0)
(3 1.63308e-06 0)
(2.99999 3.59607e-06 0)
(2.99999 8.93685e-06 0)
(2.99997 1.96601e-05 0)
(2.99992 4.89083e-05 0)
(2.99983 0.000107423 0)
(2.99957 0.000268162 0)
(2.99906 0.000587606 0)
(2.99762 0.00147805 0)
(2.99483 0.00325507 0)
(2.9864 0.00823729 0)
(2.97034 0.0190099 0)
(2.91977 0.0482354 0)
(2.79791 0.12605 0)
(3 1.83389e-11 0)
(3 7.65246e-11 0)
(3 3.30316e-10 0)
(3 7.47935e-10 0)
(3 2.2721e-09 0)
(3 4.63099e-09 0)
(3 1.30665e-08 0)
(3 2.59272e-08 0)
(3 7.19265e-08 0)
(3 1.41347e-07 0)
(3 3.91156e-07 0)
(3 7.64142e-07 0)
(3 2.11806e-06 0)
(2.99999 4.11409e-06 0)
(2.99998 1.14427e-05 0)
(2.99995 2.20671e-05 0)
(2.99988 6.17284e-05 0)
(2.99973 0.000117848 0)
(2.99933 0.000333352 0)
(2.99852 0.000625167 0)
(2.99622 0.00182389 0)
(2.99185 0.00328108 0)
(2.97816 0.0104151 0)
(2.95173 0.0178715 0)
(2.86751 0.0612037 0)
(3 4.6321e-12 0)
(3 5.74384e-11 0)
(3 1.44764e-10 0)
(3 5.1121e-10 0)
(3 1.02576e-09 0)
(3 3.09197e-09 0)
(3 5.88848e-09 0)
(3 1.71566e-08 0)
(3 3.207e-08 0)
(3 9.30797e-08 0)
(3 1.72085e-07 0)
(3 5.01735e-07 0)
(3 9.18863e-07 0)
(2.99999 2.69966e-06 0)
(2.99998 4.8936e-06 0)
(2.99996 1.45299e-05 0)
(2.99991 2.59579e-05 0)
(2.9998 7.83177e-05 0)
(2.99948 0.00013503 0)
(2.99886 0.000428378 0)
(2.99704 0.000653443 0)
(2.99355 0.00239842 0)
(2.98245 0.00276684 0)
(2.9614 0.0131668 0)
(2.88979 0.0132006 0)
(3 3.47461e-12 0)
(3 2.6332e-11 0)
(3 8.15822e-11 0)
(3 2.3942e-10 0)
(3 5.65183e-10 0)
(3 1.43643e-09 0)
(3 3.1943e-09 0)
(3 7.82037e-09 0)
(3 1.71057e-08 0)
(3 4.13921e-08 0)
(3 9.00373e-08 0)
(3 2.16861e-07 0)
(3 4.70638e-07 0)
(2.99999 1.13032e-06 0)
(2.99999 2.45124e-06 0)
(2.99997 5.86779e-06 0)
(2.99993 1.27364e-05 0)
(2.99982 3.02994e-05 0)
(2.99962 6.59474e-05 0)
(2.99896 0.000152931 0)
(2.99786 0.000346339 0)
(2.99362 0.000711808 0)
(2.987 0.00184386 0)
(2.96048 0.00315578 0)
(2.90548 0.00820624 0)
(3 1.83313e-12 0)
(3 9.88651e-12 0)
(3 3.62595e-11 0)
(3 9.29843e-11 0)
(3 2.45428e-10 0)
(3 5.54021e-10 0)
(3 1.34803e-09 0)
(3 2.93542e-09 0)
(3 6.93354e-09 0)
(3 1.48958e-08 0)
(3 3.46011e-08 0)
(3 7.37332e-08 0)
(3 1.68767e-07 0)
(3 3.56211e-07 0)
(2.99999 8.03157e-07 0)
(2.99997 1.66713e-06 0)
(2.99993 3.7237e-06 0)
(2.99984 7.48092e-06 0)
(2.99958 1.80698e-05 0)
(2.99909 2.84817e-05 0)
(2.99751 0.00010623 0)
(2.99479 0.000121384 0)
(2.98447 0.000624205 0)
(2.96657 0.00107944 0)
(2.89973 0.0031763 0)
(3 -1.06227e-12 0)
(3 9.24781e-12 0)
(3 2.14604e-12 0)
(3 7.4169e-11 0)
(3 2.28836e-11 0)
(3 4.39069e-10 0)
(3 1.06219e-10 0)
(3 2.42919e-09 0)
(3 3.21038e-10 0)
(3 1.32314e-08 0)
(3 1.46683e-10 0)
(3 7.20793e-08 0)
(3 -7.71167e-09 0)
(3 3.95709e-07 0)
(2.99999 -8.54199e-08 0)
(2.99997 2.20876e-06 0)
(2.99994 -6.92748e-07 0)
(2.99983 1.27152e-05 0)
(2.99964 -5.25766e-06 0)
(2.99903 8.00468e-05 0)
(2.99794 -6.16876e-05 0)
(2.99405 0.000629416 0)
(2.9878 -0.00083964 0)
(2.96259 0.00486798 0)
(2.91158 -0.00558743 0)
(3 2.07113e-12 0)
(3 -2.53523e-12 0)
(3 1.9774e-11 0)
(3 -1.28622e-11 0)
(3 1.25395e-10 0)
(3 -8.28526e-11 0)
(3 6.93308e-10 0)
(3 -5.99726e-10 0)
(3 3.68112e-09 0)
(3 -4.26786e-09 0)
(3 1.92352e-08 0)
(3 -2.92476e-08 0)
(3 9.95733e-08 0)
(3 -1.94843e-07 0)
(2.99999 5.11781e-07 0)
(2.99997 -1.2817e-06 0)
(2.99994 2.62882e-06 0)
(2.99984 -8.43896e-06 0)
(2.99964 1.41064e-05 0)
(2.99904 -5.75342e-05 0)
(2.99797 9.94342e-05 0)
(2.99415 -0.00045912 0)
(2.98799 0.00103528 0)
(2.96317 -0.00352487 0)
(2.91336 0.00804551 0)
(3 1.70721e-12 0)
(3 -4.66282e-12 0)
(3 1.22836e-11 0)
(3 -3.23338e-11 0)
(3 7.5665e-11 0)
(3 -1.9641e-10 0)
(3 4.24485e-10 0)
(3 -1.19306e-09 0)
(3 2.31222e-09 0)
(3 -7.25313e-09 0)
(3 1.24365e-08 0)
(3 -4.39938e-08 0)
(3 6.62186e-08 0)
(3 -2.66813e-07 0)
(2.99999 3.48858e-07 0)
(2.99997 -1.62901e-06 0)
(2.99993 1.82878e-06 0)
(2.99984 -1.01e-05 0)
(2.99959 1.00303e-05 0)
(2.9991 -6.50265e-05 0)
(2.99761 7.52793e-05 0)
(2.99482 -0.000478839 0)
(2.98525 0.000834436 0)
(2.9679 -0.00355458 0)
(2.90444 0.00690677 0)
(3 1.53101e-13 0)
(3 1.24685e-12 0)
(3 3.80285e-12 0)
(3 1.1296e-11 0)
(3 2.64228e-11 0)
(3 6.79246e-11 0)
(3 1.50554e-10 0)
(3 3.73028e-10 0)
(3 8.1494e-10 0)
(3 1.99422e-09 0)
(3 4.33878e-09 0)
(3 1.05682e-08 0)
(3 2.29696e-08 0)
(3 5.59344e-08 0)
(2.99999 1.21721e-07 0)
(2.99997 2.97354e-07 0)
(2.99993 6.48782e-07 0)
(2.99984 1.59477e-06 0)
(2.99959 3.47725e-06 0)
(2.9991 8.74433e-06 0)
(2.99762 1.84965e-05 0)
(2.99478 5.27038e-05 0)
(2.9855 9.22883e-05 0)
(2.96812 0.000362921 0)
(2.90621 0.000730688 0)
(3 -1.16965e-12 0)
(3 7.75987e-12 0)
(3 -1.05526e-12 0)
(3 6.11392e-11 0)
(3 2.80963e-12 0)
(3 3.75738e-10 0)
(3 3.72917e-11 0)
(3 2.22371e-09 0)
(3 3.18874e-10 0)
(3 1.31038e-08 0)
(3 2.54099e-09 0)
(3 7.73713e-08 0)
(3 1.96469e-08 0)
(3 4.59556e-07 0)
(2.99999 1.47626e-07 0)
(2.99997 2.7593e-06 0)
(2.99993 1.05052e-06 0)
(2.99985 1.67824e-05 0)
(2.9996 5.44386e-06 0)
(2.99911 0.000107754 0)
(2.99764 -9.3878e-06 0)
(2.99488 0.000717608 0)
(2.98551 -0.000562217 0)
(2.96844 0.00435392 0)
(2.90632 -0.00520457 0)
(3 7.8462e-14 0)
(3 7.31834e-13 0)
(3 2.26491e-12 0)
(3 6.91753e-12 0)
(3 1.64876e-11 0)
(3 4.41914e-11 0)
(3 1.0072e-10 0)
(3 2.62188e-10 0)
(3 5.92166e-10 0)
(3 1.52526e-09 0)
(3 3.43172e-09 0)
(3 8.76973e-09 0)
(3 1.96565e-08 0)
(3 4.98661e-08 0)
(2.99999 1.11254e-07 0)
(2.99997 2.8045e-07 0)
(2.99994 6.22481e-07 0)
(2.99985 1.56124e-06 0)
(2.99967 3.45064e-06 0)
(2.99909 8.61362e-06 0)
(2.99813 1.90692e-05 0)
(2.99433 4.624e-05 0)
(2.98846 0.000113183 0)
(2.96436 0.000248128 0)
(2.91612 0.000629397 0)
(3 1.45072e-12 0)
(3 -5.35085e-12 0)
(3 8.42004e-12 0)
(3 -3.93574e-11 0)
(3 4.84018e-11 0)
(3 -2.43719e-10 0)
(3 2.57696e-10 0)
(3 -1.48693e-09 0)
(3 1.30593e-09 0)
(3 -9.08628e-09 0)
(3 6.26863e-09 0)
(3 -5.56828e-08 0)
(3 2.77719e-08 0)
(3 -3.43064e-07 0)
(2.99999 1.07042e-07 0)
(2.99997 -2.13529e-06 0)
(2.99993 3.17281e-07 0)
(2.99985 -1.34523e-05 0)
(2.99961 1.86812e-06 0)
(2.99913 -9.02493e-05 0)
(2.99767 4.83995e-05 0)
(2.99496 -0.000637781 0)
(2.98567 0.000810151 0)
(2.96886 -0.00406836 0)
(2.90748 0.00633087 0)
(1.18904 1.01613 0)
(1.29896 0.752714 0)
(0.643045 0.430212 0)
(-0.236018 0.273489 0)
(-0.29215 0.0152344 0)
(-0.527988 -0.000219173 0)
(-0.65778 -0.016608 0)
(-0.721614 -0.00955091 0)
(-0.767572 0.00827882 0)
(-0.82685 0.0199929 0)
(-0.892304 0.0205639 0)
(-0.950416 0.0157362 0)
(-1.00041 0.0101949 0)
(-1.04881 0.00772705 0)
(-1.09888 0.00686222 0)
(-1.14857 0.00628263 0)
(-1.19477 0.00549956 0)
(-1.2358 0.0040029 0)
(-1.27398 0.00210296 0)
(-1.31286 0.00169053 0)
(-1.3441 0.00423692 0)
(-1.35995 0.00457106 0)
(-1.36556 0.00336944 0)
(-1.36206 0.00164447 0)
(-1.34084 -0.000971256 0)
(-1.29577 -0.00468471 0)
(-1.23105 -0.00928276 0)
(-1.15321 -0.0135363 0)
(-1.06913 -0.0166193 0)
(-0.98329 -0.0185746 0)
(-0.897949 -0.019596 0)
(-0.814297 -0.0202006 0)
(-0.733438 -0.0203957 0)
(-0.656188 -0.0202911 0)
(-0.582809 -0.0199035 0)
(-0.512657 -0.0195873 0)
(-0.445244 -0.0195225 0)
(-0.379726 -0.0200882 0)
(-0.315175 -0.0216755 0)
(-0.253298 -0.0224489 0)
(-0.193704 -0.0227901 0)
(-0.136196 -0.023861 0)
(-0.0805302 -0.0256491 0)
(-0.02889 -0.0291622 0)
(0.0308343 -0.0265252 0)
(0.0809046 -0.0238631 0)
(0.129625 -0.0228109 0)
(0.175309 -0.0218999 0)
(0.21908 -0.0211094 0)
(0.260699 -0.0202819 0)
(0.299618 -0.0194196 0)
(0.337573 -0.0189697 0)
(0.376485 -0.0191168 0)
(0.414822 -0.0186344 0)
(0.451507 -0.0179396 0)
(0.486606 -0.0171904 0)
(0.520529 -0.0165211 0)
(0.553421 -0.015917 0)
(0.585365 -0.0153564 0)
(0.61642 -0.0148053 0)
(0.646666 -0.0142721 0)
(0.676143 -0.0137499 0)
(0.704899 -0.0132445 0)
(0.732974 -0.0127479 0)
(0.760414 -0.0122714 0)
(0.787249 -0.0118056 0)
(0.813519 -0.0113606 0)
(0.839253 -0.010927 0)
(0.864485 -0.0105134 0)
(0.889237 -0.0101109 0)
(0.913537 -0.00972547 0)
(0.937401 -0.00935016 0)
(0.960856 -0.00898917 0)
(0.983916 -0.00863732 0)
(1.0066 -0.00829637 0)
(1.02892 -0.00796229 0)
(1.05089 -0.00763535 0)
(1.07252 -0.00731288 0)
(1.09382 -0.00699469 0)
(1.1148 -0.00667929 0)
(1.13546 -0.00636684 0)
(1.1558 -0.00605643 0)
(1.17584 -0.00574883 0)
(1.19557 -0.00544324 0)
(1.215 -0.00514045 0)
(1.23413 -0.00483925 0)
(1.25296 -0.00454019 0)
(1.27149 -0.00424101 0)
(1.28971 -0.00394143 0)
(1.30761 -0.00363789 0)
(1.32515 -0.00332936 0)
(1.34229 -0.00300822 0)
(1.35895 -0.00267074 0)
(1.37504 -0.00230705 0)