/*--------------------------------*- C++ -*----------------------------------*\
| =========                 |                                                 |
| \\      /  F ield         | OpenFOAM: The Open Source CFD Toolbox           |
|  \\    /   O peration     | Version:  2412                                  |
|   \\  /    A nd           | Website:  www.openfoam.com                      |
|    \\/     M anipulation  |                                                 |
\*---------------------------------------------------------------------------*/
FoamFile
{
    version     2.0;
    format      ascii;
    arch        "LSB;label=32;scalar=64";
    class       surfaceScalarField;
    location    "190";
    object      phi;
}
// * * * * * * * * * * * * * * * * * * * * * * * * * * * * * * * * * * * * * //

dimensions      [1 0 -1 0 0 0 0];

oriented        oriented;

internalField   nonuniform List<scalar> 
370
(
154.017
0.000322601
154.016
0.000964598
154.014
0.00243137
154.008
0.00555082
153.995
0.0127044
153.968
0.0277086
153.906
0.0619855
153.772
0.133302
153.454
0.31819
0.734275
152.72
154.022
0.000135193
154.022
0.000489989
154.023
0.00128797
154.026
0.00300307
154.032
0.0066734
154.045
0.0146456
154.075
0.0315946
154.141
0.0677163
154.314
0.144827
0.324164
154.724
154.023
6.1377e-05
154.024
0.000217767
154.024
0.00056776
154.026
0.00130825
154.03
0.00285865
154.038
0.0060927
154.057
0.0128199
154.098
0.0268196
154.187
0.0558805
0.116743
154.394
154.024
2.37139e-05
154.024
8.63706e-05
154.024
0.000226438
154.025
0.000521781
154.027
0.00113715
154.031
0.00240867
154.038
0.0050101
154.055
0.0103464
154.089
0.0213353
0.0440872
154.162
154.024
9.32192e-06
154.024
3.38333e-05
154.024
8.85065e-05
154.025
0.00020337
154.025
0.000441792
154.027
0.000933033
154.03
0.00193436
154.036
0.0039746
154.05
0.00814186
0.0167326
154.077
154.024
3.63147e-06
154.024
1.32053e-05
154.024
3.45659e-05
154.025
7.94336e-05
154.025
0.000172483
154.025
0.000364058
154.027
0.000754491
154.029
0.00155018
154.034
0.00317314
0.0065097
154.044
154.024
1.43039e-06
154.024
5.19029e-06
154.024
1.35785e-05
154.024
3.12026e-05
154.025
6.77676e-05
154.025
0.000143071
154.025
0.000296613
154.026
0.000609774
154.028
0.00124933
0.00256476
154.032
154.024
5.58594e-07
154.024
2.02492e-06
154.024
5.2968e-06
154.024
1.21751e-05
154.024
2.64564e-05
154.025
5.58953e-05
154.025
0.000115979
154.025
0.000238651
154.026
0.000489452
0.0010059
154.027
154.024
1.9692e-07
154.024
7.10293e-07
154.024
1.8557e-06
154.024
4.26648e-06
154.024
9.27846e-06
154.024
1.96285e-05
154.025
4.07844e-05
154.025
8.40808e-05
154.025
0.000172791
0.000355979
154.026
154.024
154.024
154.024
154.024
154.024
154.024
154.025
154.025
154.025
154.025
184.13
-31.4101
210.395
-26.2654
230.7
-20.3042
244.331
-13.6313
250.78
-6.44866
250.084
0.695623
243.057
7.02756
231.178
11.8785
216.736
14.4416
15.2409
156.27
-32.956
160.132
-30.1269
166.078
-26.2506
173.687
-21.2406
182.174
-14.9348
190.115
-7.24546
195.983
1.15958
198.081
9.77991
195.54
16.9828
21.671
151.706
-30.2675
150.862
-29.2826
152.318
-27.7067
156.395
-25.3178
163.226
-21.7657
172.655
-16.6752
183.506
-9.69135
194.054
-0.767941
201.871
9.16582
20.7171
150.269
-26.3744
146.981
-25.9946
144.62
-25.3453
143.586
-24.2845
144.399
-22.578
147.604
-19.8801
153.599
-15.687
162.273
-9.44185
172.296
-0.856786
9.21874
149.829
-22.1267
145.81
-21.9753
142.171
-21.7061
139.135
-21.2491
137.042
-20.4844
136.398
-19.2359
137.892
-17.1816
142.423
-13.9721
150.669
-9.10281
-2.82651
149.669
-17.7518
145.385
-17.6908
141.257
-17.5787
137.39
-17.3821
133.951
-17.0445
131.2
-16.4854
129.581
-15.5624
129.726
-14.1177
132.527
-11.9036
-9.152
149.611
-13.3307
145.226
-13.3059
140.907
-13.2595
136.701
-13.176
132.686
-13.03
128.985
-12.7846
125.803
-12.3795
123.435
-11.7502
122.325
-10.7935
-9.60519
149.589
-8.89224
145.165
-8.88234
140.769
-8.86347
136.422
-8.82906
132.16
-8.76798
128.04
-8.66407
124.152
-8.49156
120.625
-8.22294
117.649
-7.81774
-7.30802
149.581
-4.44723
145.142
-4.44374
140.716
-4.43702
136.311
-4.42462
131.946
-4.40243
127.646
-4.36435
123.455
-4.30078
119.433
-4.20114
115.667
-4.05097
-3.85882
149.578
145.134
140.697
136.273
131.87
127.506
123.205
119.004
114.953
)
;

boundaryField
{
    inlet
    {
        type            calculated;
        value           nonuniform List<scalar> 10(-154.017 -154.021 -154.023 -154.024 -154.024 -154.024 -154.024 -154.024 -154.024 -154.024);
    }
    sym
    {
        type            calculated;
        value           uniform 0;
    }
    wedge
    {
        type            calculated;
        value           nonuniform List<scalar> 10(6.05969e-15 7.3814e-15 8.57122e-15 0 3.09059e-14 1.06905e-14 1.07928e-14 0 -1.04326e-14 -6.62399e-35);
    }
    top
    {
        type            calculated;
        value           uniform 0;
    }
    back
    {
        type            empty;
    }
    front
    {
        type            empty;
    }
    outlet
    {
        type            calculated;
        value           nonuniform List<scalar> 10(201.495 189.109 202.825 183.794 162.714 138.853 122.778 115.352 112.217 111.094);
    }
}


// ************************************************************************* //
