/*--------------------------------*- C++ -*----------------------------------*\
| =========                 |                                                 |
| \\      /  F ield         | OpenFOAM: The Open Source CFD Toolbox           |
|  \\    /   O peration     | Version:  2412                                  |
|   \\  /    A nd           | Website:  www.openfoam.com                      |
|    \\/     M anipulation  |                                                 |
\*---------------------------------------------------------------------------*/
FoamFile
{
    version     2.0;
    format      ascii;
    arch        "LSB;label=32;scalar=64";
    class       volScalarField;
    location    "3.5";
    object      p;
}
// * * * * * * * * * * * * * * * * * * * * * * * * * * * * * * * * * * * * * //

dimensions      [1 -1 -2 0 0 0 0];

internalField   nonuniform List<scalar> 
200
(
1.18196
0.875622
1.07518
0.930829
1.03899
0.98123
1.00827
1.00073
1.00103
1.00169
1.17884
0.851146
1.05225
0.989125
0.998472
0.997074
0.997348
0.998196
0.999186
1.00004
1.1751
0.855876
1.04179
0.984391
0.99948
0.997256
0.997623
0.9987
0.999655
1.00046
1.17192
0.886051
1.04845
0.954325
0.998627
0.982435
0.989285
0.992034
0.995232
0.997697
1.20994
0.932817
1.01542
0.986715
0.996456
0.995508
0.996736
0.997633
0.998655
0.999647
1.17522
0.884141
1.05648
0.955355
1.00638
0.986133
0.992491
0.992548
0.994543
0.996537
1.17598
0.850094
1.04118
0.994009
0.996988
0.996878
0.997081
0.997579
0.998146
0.998761
1.18387
0.863219
1.08596
0.980162
1.0048
1.00089
0.999418
0.999223
1.00011
1.00062
1.18281
0.881603
1.0626
0.902394
1.03443
0.982519
1.006
0.99821
1.0014
1.00062
1.18259
0.876134
1.07515
0.951572
1.02195
0.982807
1.01106
0.990561
1.00755
0.996831
1.00209
1.00188
1.00204
1.00199
1.00176
1.00165
1.00162
1.00164
1.0017
1.00175
1.00076
1.0013
1.00143
1.00139
1.00151
1.00147
1.00151
1.0016
1.00173
1.00184
1.0011
1.00156
1.00174
1.0018
1.00172
1.00171
1.00173
1.00177
1.00184
1.00191
1.00002
1.00125
1.00137
1.00145
1.00156
1.00166
1.00173
1.00181
1.0019
1.00196
1.00061
1.00096
1.00125
1.00155
1.0017
1.00179
1.00187
1.00191
1.00195
1.00198
0.999136
1.00033
1.00117
1.00153
1.00172
1.00182
1.00189
1.00194
1.00197
1.002
0.999888
1.00059
1.00114
1.00146
1.00166
1.00175
1.00183
1.00188
1.00192
1.00195
1.00135
1.00072
1.00111
1.00106
1.00128
1.00151
1.00171
1.00183
1.00191
1.00194
1.00142
1.00046
1.00113
1.00098
1.00126
1.00129
1.00169
1.00176
1.0019
1.00197
1.00425
0.999806
1.00165
1.00122
1.00141
1.0015
1.00166
1.00177
1.00186
1.00193
)
;

boundaryField
{
    inlet
    {
        type            fixedValue;
        value           uniform 1;
    }
    sym
    {
        type            slip;
    }
    wedge
    {
        type            slip;
    }
    top
    {
        type            slip;
    }
    back
    {
        type            empty;
    }
    front
    {
        type            empty;
    }
    outlet
    {
        type            zeroGradient;
    }
}


// ************************************************************************* //
