/*--------------------------------*- C++ -*----------------------------------*\
| =========                 |                                                 |
| \\      /  F ield         | OpenFOAM: The Open Source CFD Toolbox           |
|  \\    /   O peration     | Version:  2412                                  |
|   \\  /    A nd           | Website:  www.openfoam.com                      |
|    \\/     M anipulation  |                                                 |
\*---------------------------------------------------------------------------*/
FoamFile
{
    version     2.0;
    format      ascii;
    arch        "LSB;label=32;scalar=64";
    class       surfaceScalarField;
    location    "3.5";
    object      phi;
}
// * * * * * * * * * * * * * * * * * * * * * * * * * * * * * * * * * * * * * //

dimensions      [1 0 -1 0 0 0 0];

oriented        oriented;

internalField   nonuniform List<scalar> 
370
(
5.0999e-05
9.81613e-05
-0.000179622
0.0002307
-0.000187746
8.10778e-06
0.000311101
-0.000498922
0.00028552
2.55732e-05
0.000424115
-0.000138585
0.000433816
-9.70273e-06
0.000427831
6.00845e-06
0.000408026
1.97255e-05
3.07878e-05
0.000377208
0.000355951
-0.000123906
0.00080188
-0.000215308
0.00099295
-0.000182914
0.000643383
-0.000149354
0.000749841
-8.08128e-05
0.000636197
-2.48787e-05
0.00057268
5.38672e-05
0.000475131
0.000103589
0.000369893
0.000124982
0.00012631
0.000274342
0.000340521
-0.000339291
0.00069268
-0.000567365
0.000590574
-8.06027e-05
0.000464272
-2.34689e-05
0.000410022
-2.64198e-05
0.000317406
6.7849e-05
0.000242872
0.000128462
0.000170416
0.000176036
0.000110261
0.00018508
0.000165968
7.05139e-05
0.000119516
-0.000347451
-7.90803e-05
-0.000368765
-0.000440591
0.00028095
-0.000509125
4.55796e-05
-0.000642907
0.000107331
-0.000646656
7.16164e-05
-0.000606814
8.8618e-05
-0.000531394
0.000100628
-0.000444387
9.80841e-05
8.23897e-05
-0.000360764
-0.000836642
0.000294884
-0.00157417
0.000368802
-0.000990808
-0.000302329
-0.000921861
-2.3243e-05
-0.000786403
-2.80388e-05
-0.000724876
1.01597e-05
-0.0006574
2.12131e-05
-0.000583694
2.69975e-05
-0.000500624
1.50838e-05
-2.09448e-06
-0.000416089
7.39558e-05
0.000331939
-0.000108658
0.000551526
-0.000420068
9.15439e-06
-0.000467703
2.44178e-05
-0.000592101
9.6427e-05
-0.000592639
1.07435e-05
-0.000561924
-9.42097e-06
-0.00048901
-4.58283e-05
-0.000397968
-7.58614e-05
-9.42183e-05
-0.000305746
0.000357871
9.66157e-05
0.00080647
0.000102976
0.000812318
3.44941e-06
0.000626496
0.000210417
0.000610796
0.000112299
0.000546873
7.48136e-05
0.000495773
4.18212e-05
0.000445255
4.83865e-06
0.000398994
-2.94025e-05
-5.51924e-05
0.000360217
0.000250058
-1.15443e-05
0.000606917
-0.000253985
0.000764359
-0.000153968
0.00073487
0.00023984
0.000889826
-4.26405e-05
0.000810832
0.000153831
0.000828793
2.38876e-05
0.000768385
6.52721e-05
0.000748438
-9.44228e-06
1.65438e-05
0.000676705
0.000124306
3.18452e-05
-0.000102507
-2.71261e-05
-2.7796e-05
-0.000228566
0.000470766
-0.000258829
0.000314037
0.00011406
0.000368144
9.97235e-05
0.000373985
1.80231e-05
0.000227099
0.000212162
0.000210564
7.14348e-06
9.15112e-05
0.000135526
0.0001965
0.000169439
-5.91255e-05
-0.00031815
-0.000204083
-0.000104473
-8.65848e-05
0.000125559
0.000132579
0.000223847
0.000339613
3.76899e-05
0.000298994
4.06171e-05
0.000298082
7.8573e-07
0.000311932
-1.38976e-05
0.000318977
-6.94268e-06
0.000319616
-2.59842e-07
0.000307433
1.24909e-05
0.000284067
2.34874e-05
0.000255505
2.85777e-05
1.97887e-05
9.54374e-05
0.000216174
-5.00959e-06
0.000141032
-1.57619e-05
1.15362e-05
2.20041e-05
-5.17423e-05
5.35788e-05
-3.86337e-05
7.79028e-05
-2.46319e-05
9.26768e-05
-2.25349e-06
9.9985e-05
1.62416e-05
0.000103189
2.55093e-05
1.83574e-05
2.46591e-06
0.000284136
1.13631e-05
0.000132477
1.53871e-05
7.58483e-06
9.05688e-06
-4.53713e-05
1.51567e-05
-4.47637e-05
2.25732e-05
-3.21095e-05
3.70463e-05
-1.67466e-05
4.87888e-05
4.57385e-06
5.95718e-05
1.48543e-05
1.13608e-05
-0.000255265
0.000178804
-0.000178957
5.64113e-05
-0.000138058
-3.32114e-05
-0.000106629
-7.67011e-05
-7.77356e-05
-7.35503e-05
-5.11782e-05
-5.86095e-05
-2.13495e-05
-4.65422e-05
9.00095e-06
-2.57316e-05
3.29374e-05
-9.03346e-06
-2.40388e-06
-0.000251905
1.47069e-05
-0.000133329
-6.22667e-05
-5.80581e-05
-0.000108709
-2.24609e-05
-0.000112427
-8.94689e-07
-9.50237e-05
1.92131e-05
-7.84651e-05
3.11099e-05
-5.81884e-05
4.54027e-05
-3.98962e-05
5.84166e-05
-2.19737e-05
-8.73929e-06
-8.84943e-05
-0.000202349
3.71025e-05
-0.000187847
8.41745e-05
-0.000155946
9.10409e-05
-0.000120047
8.39177e-05
-8.84346e-05
7.44361e-05
-6.90798e-05
6.83818e-05
-5.19903e-05
6.71666e-05
-3.83408e-05
6.92179e-05
-2.38005e-05
-1.01078e-05
0.000354832
-0.000196756
0.000327083
-0.000159818
0.000300451
-0.000128892
0.000265848
-8.51628e-05
0.000229303
-5.22932e-05
0.000188656
-2.94246e-05
0.000157055
-2.07626e-05
0.000134175
-1.54583e-05
0.000121307
-1.06894e-05
-4.16134e-06
0.000606298
-0.00012627
0.000490495
-4.40347e-05
0.000440135
-7.90835e-05
0.000381781
-2.67824e-05
0.000341546
-1.1529e-05
0.000297727
1.46357e-05
0.000257861
1.8829e-05
0.000222187
1.96884e-05
0.00019605
1.53274e-05
1.04638e-05
9.82755e-05
-8.92811e-05
2.28994e-05
3.1514e-05
-1.15369e-05
-4.42981e-05
-1.81328e-05
-2.00426e-05
-1.45027e-05
-1.50733e-05
9.83142e-06
-9.63561e-06
2.48515e-05
3.88693e-06
4.28462e-05
1.78812e-06
5.65856e-05
1.69098e-06
1.89834e-06
0.000134248
0.000165821
0.000121698
0.000102015
8.72834e-05
7.79086e-05
8.19917e-05
8.39488e-05
8.57663e-05
)
;

boundaryField
{
    inlet
    {
        type            calculated;
        value           nonuniform List<scalar> 10(-0.000148982 -0.000133803 -0.000124905 -0.000111228 0.000194549 -0.000110556 -0.000122246 -0.000141656 -0.000167286 -0.000164319);
    }
    sym
    {
        type            calculated;
        value           uniform 0;
    }
    wedge
    {
        type            calculated;
        value           nonuniform List<scalar> 10(-1.33696e-40 0 2.39359e-20 1.19647e-20 -1.19629e-20 -2.39413e-20 0 2.39789e-20 2.39765e-20 3.5974e-20);
    }
    top
    {
        type            calculated;
        value           uniform 0;
    }
    back
    {
        type            empty;
    }
    front
    {
        type            empty;
    }
    outlet
    {
        type            calculated;
        value           nonuniform List<scalar> 10(0.000235801 0.000104818 6.66435e-05 4.67499e-05 6.4787e-05 7.06658e-05 0.000115642 0.000181496 6.52304e-05 8.7736e-05);
    }
}


// ************************************************************************* //
