/*--------------------------------*- C++ -*----------------------------------*\
| =========                 |                                                 |
| \\      /  F ield         | OpenFOAM: The Open Source CFD Toolbox           |
|  \\    /   O peration     | Version:  2412                                  |
|   \\  /    A nd           | Website:  www.openfoam.com                      |
|    \\/     M anipulation  |                                                 |
\*---------------------------------------------------------------------------*/
FoamFile
{
    version     2.0;
    format      ascii;
    arch        "LSB;label=32;scalar=64";
    class       volVectorField;
    location    "3.5";
    object      U;
}
// * * * * * * * * * * * * * * * * * * * * * * * * * * * * * * * * * * * * * //

dimensions      [0 1 -1 0 0 0 0];

internalField   nonuniform List<vector> 
200
(
(-21.4149 0.518463 0)
(15.5609 2.27687 0)
(-11.4135 -0.63781 0)
(7.12922 -3.69354 0)
(-3.07619 -0.441253 0)
(2.9973 -1.24083 0)
(0.133041 -0.577055 0)
(1.18361 -0.43373 0)
(1.04095 -0.329361 0)
(0.897378 -0.234846 0)
(-15.4357 0.242224 0)
(10.3469 0.420537 0)
(-0.856516 0.652761 0)
(2.55765 -0.772685 0)
(1.48017 0.513276 0)
(1.54879 -0.0287424 0)
(1.43332 0.392312 0)
(1.2242 0.475715 0)
(0.972694 0.519466 0)
(0.746623 0.546141 0)
(-15.2464 -1.09982 0)
(10.3275 -3.564 0)
(-1.95737 -2.83033 0)
(2.56567 -1.27805 0)
(0.576719 -1.1674 0)
(0.858323 -0.268734 0)
(0.688604 0.380175 0)
(0.472232 0.860991 0)
(0.304494 1.05279 0)
(0.217734 1.02628 0)
(-16.1803 -2.01638 0)
(10.869 -3.50598 0)
(-7.02184 2.28943 0)
(2.73785 0.789511 0)
(-3.41907 0.903579 0)
(-0.667378 0.784486 0)
(-1.73245 0.828299 0)
(-1.24898 0.888192 0)
(-1.11446 0.851207 0)
(-0.906051 0.72071 0)
(-11.811 -0.155622 0)
(2.38596 -0.0237961 0)
(-5.39892 -0.055914 0)
(-0.863894 0.159974 0)
(-2.44213 0.176508 0)
(-1.56443 0.342511 0)
(-1.63168 0.426076 0)
(-1.41765 0.496861 0)
(-1.24414 0.45797 0)
(-1.02192 0.359094 0)
(-17.0125 1.98004 0)
(11.4034 3.55179 0)
(-7.52039 -2.28904 0)
(3.16576 -0.748669 0)
(-3.58821 -0.354623 0)
(-0.312173 -0.330296 0)
(-1.76981 -0.281433 0)
(-1.10541 -0.298033 0)
(-1.02911 -0.357447 0)
(-0.766156 -0.406819 0)
(-15.2552 0.9739 0)
(10.2533 3.11457 0)
(-1.06137 2.15201 0)
(2.38823 1.32785 0)
(1.33969 1.15912 0)
(1.30064 0.539601 0)
(1.21862 0.222333 0)
(1.08172 -0.115572 0)
(0.963 -0.400629 0)
(0.853365 -0.581013 0)
(-17.1329 -0.305781 0)
(11.6034 -1.39714 0)
(-2.83887 -1.85274 0)
(3.53619 1.18391 0)
(1.49434 0.0572931 0)
(1.83029 0.465132 0)
(1.9226 0.18889 0)
(1.86474 0.165357 0)
(1.73135 0.0537217 0)
(1.64655 -0.00910256 0)
(-21.3748 0.189067 0)
(16.1337 -1.20015 0)
(-11.9382 -0.248423 0)
(8.08032 0.616027 0)
(-2.64556 -0.2875 0)
(2.65733 0.929049 0)
(0.0862406 0.140125 0)
(1.0102 0.639569 0)
(0.324717 -0.1971 0)
(0.480782 0.222696 0)
(-19.8937 0.0572827 0)
(14.5833 0.745893 0)
(-8.60459 -1.53565 0)
(5.42018 -2.67887 0)
(-5.11767 1.18472 0)
(3.1513 0.475295 0)
(-2.96216 0.105623 0)
(2.06281 1.54718 0)
(-0.999857 0.325045 0)
(1.22533 0.703185 0)
(0.781227 -0.0852633 -3.30424e-21)
(0.76765 -0.0153767 0)
(0.733415 0.0956383 0)
(0.760384 0.191119 0)
(0.836276 0.235837 1.13024e-17)
(0.885828 0.276154 0)
(0.898335 0.309728 0)
(0.877668 0.333462 0)
(0.827448 0.342742 0)
(0.76138 0.324295 -6.76518e-18)
(0.359717 0.638603 -4.98447e-18)
(0.0983262 0.505249 5.18628e-18)
(-0.126492 0.103453 0)
(0.0375668 -0.0291465 0)
(0.0858991 0.0170133 -1.34508e-22)
(0.186732 0.0719566 0)
(0.248832 0.128511 0)
(0.290562 0.174967 0)
(0.313627 0.1945 0)
(0.337725 0.156941 0)
(0.0319617 0.817624 0)
(-0.021564 0.386524 -5.17786e-18)
(0.0720394 -0.0360221 0)
(0.00755946 -0.218492 0)
(0.0338369 -0.183254 -1.1392e-17)
(0.0506058 -0.128895 5.89749e-18)
(0.0783839 -0.0420402 0)
(0.131627 0.0520253 6.33167e-18)
(0.162398 0.0985707 0)
(0.2144 0.106813 6.82029e-18)
(-0.728496 0.541945 0)
(-0.511664 0.211315 0)
(-0.405479 -0.0153349 0)
(-0.294929 -0.145246 0)
(-0.252781 -0.151637 5.66525e-18)
(-0.162347 -0.0999647 -5.87111e-18)
(-0.124374 -0.0760243 0)
(0.000874433 0.00366058 -1.26605e-17)
(0.05468 0.038812 0)
(0.150333 0.0533385 -6.83255e-18)
(-0.803969 0.242329 2.46969e-18)
(-0.43301 -0.0762303 2.567e-18)
(-0.221401 -0.301717 0)
(-0.0615947 -0.349691 2.75099e-18)
(-0.0600925 -0.319118 2.84511e-18)
(0.0537259 -0.244749 0)
(0.0555291 -0.193107 0)
(0.118663 -0.118475 6.31302e-18)
(0.154437 -0.044968 0)
(0.208228 0.00999306 0)
(-0.488161 -0.421676 -2.47846e-18)
(0.0234553 -0.391895 -2.566e-18)
(0.160713 -0.349317 0)
(0.242515 -0.274446 -2.7322e-18)
(0.220036 -0.207885 -2.83339e-18)
(0.223678 -0.164199 0)
(0.191307 -0.105764 0)
(0.198755 -0.0565993 0)
(0.203826 -0.0131166 0)
(0.227095 0.0218823 0)
(0.811047 -0.641564 2.45222e-18)
(0.818875 -0.522 0)
(0.770603 -0.401447 0)
(0.719161 -0.25872 0)
(0.65266 -0.160521 2.79828e-18)
(0.569581 -0.116828 0)
(0.482881 -0.101625 0)
(0.418977 -0.0811098 0)
(0.382606 -0.0440537 0)
(0.372287 0.00340393 3.40153e-18)
(1.38796 -0.180916 -1.20749e-18)
(1.34315 -0.14895 1.25369e-18)
(1.11461 -0.149265 0)
(1.04626 -0.0662455 1.35026e-18)
(0.95738 0.0130221 -1.39922e-18)
(0.872445 0.102301 1.44805e-18)
(0.781452 0.122051 1.50323e-18)
(0.696513 0.118551 0)
(0.628685 0.0952458 1.63022e-18)
(0.585632 0.0757883 -1.69686e-18)
(0.114658 -0.509558 -1.89074e-18)
(0.282373 -0.00411547 -1.95838e-18)
(-0.13984 -0.255426 0)
(0.0664499 -0.0134821 -2.08031e-18)
(-0.147019 -0.0156098 -7.14509e-19)
(0.0570697 0.0403237 -2.21393e-18)
(0.00806713 0.0480347 -1.52634e-18)
(0.121061 0.0484768 0)
(0.143023 0.0489045 -1.63943e-18)
(0.209463 0.0468531 -2.55573e-18)
(-0.308238 0.0659214 6.2991e-19)
(0.745868 0.203915 6.52153e-19)
(0.213057 0.0241788 0)
(0.332842 -0.0752047 6.93524e-19)
(0.231474 -0.0600601 -7.14938e-19)
(0.223704 -0.0758224 7.37998e-19)
(0.221296 -0.0175314 0)
(0.243301 -0.0232003 0)
(0.254655 -0.0259542 0)
(0.281717 -0.019945 8.5058e-19)
)
;

boundaryField
{
    inlet
    {
        type            fixedValue;
        value           uniform (3 0 0);
    }
    sym
    {
        type            slip;
    }
    wedge
    {
        type            slip;
    }
    top
    {
        type            slip;
    }
    back
    {
        type            empty;
    }
    front
    {
        type            empty;
    }
    outlet
    {
        type            inletOutlet;
        inletValue      uniform (3 0 0);
        value           nonuniform List<vector> 10((0.76138 0.324295 -6.76518e-18) (0.337725 0.156941 0) (0.2144 0.106813 6.82029e-18) (0.150333 0.0533385 -6.83255e-18) (0.208228 0.00999306 0) (0.227095 0.0218823 0) (0.372287 0.00340393 3.40153e-18) (0.585632 0.0757883 -1.69686e-18) (0.209463 0.0468531 -2.55573e-18) (0.281717 -0.019945 8.5058e-19));
    }
}


// ************************************************************************* //
