/*--------------------------------*- C++ -*----------------------------------*\
| =========                 |                                                 |
| \\      /  F ield         | OpenFOAM: The Open Source CFD Toolbox           |
|  \\    /   O peration     | Version:  2412                                  |
|   \\  /    A nd           | Website:  www.openfoam.com                      |
|    \\/     M anipulation  |                                                 |
\*---------------------------------------------------------------------------*/
FoamFile
{
    version     2.0;
    format      ascii;
    arch        "LSB;label=32;scalar=64";
    class       volScalarField;
    location    "8";
    object      Ma;
}
// * * * * * * * * * * * * * * * * * * * * * * * * * * * * * * * * * * * * * //

dimensions      [0 0 0 0 0 0 0];

internalField   nonuniform List<scalar> 
5250
(
2.99998
2.99995
2.99983
2.99966
2.99897
2.99799
2.9942
2.98799
2.96738
2.92207
2.81038
2.50472
1.93454
0.9181
0.401452
0.335922
0.346232
0.337774
0.303325
0.250415
0.201821
0.161347
0.12051
0.0752852
0.0415419
2.99998
2.99995
2.99983
2.99967
2.99899
2.99802
2.99431
2.98816
2.96792
2.92296
2.81266
2.5094
1.94544
0.928003
0.408782
0.336456
0.346887
0.33887
0.304882
0.252939
0.205627
0.166599
0.128112
0.0883929
0.0647025
2.99999
2.99996
2.99984
2.99968
2.99902
2.99808
2.99449
2.9885
2.96888
2.92507
2.81748
2.52007
1.96949
0.951306
0.426506
0.339129
0.350168
0.343663
0.311109
0.261677
0.217428
0.181964
0.148703
0.117783
0.102545
2.99999
2.99996
2.99985
2.99969
2.99907
2.99817
2.99475
2.989
2.97034
2.9283
2.82501
2.53672
2.00711
0.990174
0.454996
0.343524
0.356304
0.352726
0.322335
0.276556
0.236199
0.205261
0.177835
0.154216
0.143725
2.99999
2.99996
2.99986
2.99971
2.99912
2.99828
2.99507
2.98963
2.97209
2.93242
2.83521
2.56205
2.06065
1.05108
0.496522
0.351031
0.366264
0.366593
0.338643
0.296817
0.260794
0.234321
0.212317
0.194487
0.187132
2.99999
2.99996
2.99987
2.99973
2.99918
2.9984
2.99541
2.99037
2.97402
2.93733
2.8466
2.59289
2.1202
1.13623
0.549331
0.360766
0.379781
0.385163
0.359905
0.322354
0.29062
0.268956
0.251999
0.239466
0.235416
2.99999
2.99997
2.99988
2.99976
2.99925
2.99853
2.99578
2.99123
2.97621
2.94327
2.86016
2.63069
2.19463
1.25054
0.615018
0.375488
0.398942
0.409545
0.386497
0.353427
0.325668
0.308754
0.297678
0.291084
0.292306
2.99999
2.99997
2.99989
2.99978
2.99932
2.99868
2.99613
2.99216
2.97842
2.95036
2.87549
2.67499
2.28267
1.39787
0.694782
0.402394
0.428201
0.441763
0.420137
0.391405
0.367382
0.354764
0.349844
0.351803
0.363145
2.99999
2.99998
2.9999
2.9998
2.9994
2.99883
2.99653
2.99313
2.98084
2.95769
2.89168
2.72201
2.3797
1.57261
0.79039
0.449331
0.472606
0.483502
0.463673
0.43723
0.416432
0.408336
0.4107
0.425774
0.460124
3
2.99998
2.99992
2.99983
2.99949
2.99899
2.99705
2.99409
2.98361
2.96395
2.90667
2.76374
2.46226
1.76889
0.876132
0.491259
0.513641
0.524915
0.512502
0.489152
0.472131
0.468479
0.482845
0.523933
0.621655
3
2.99998
2.99995
2.99983
2.99965
2.99898
2.99792
2.99429
2.98723
2.96703
2.91762
2.80461
2.48833
1.89031
0.946446
0.54251
0.537348
0.550915
0.551621
0.537941
0.528969
0.533887
0.565269
0.642207
0.804529
3
2.99999
2.99994
2.99987
2.99961
2.99923
2.99773
2.99546
2.98727
2.97267
2.92778
2.82217
2.58635
1.98568
1.12307
0.623123
0.556062
0.571769
0.581965
0.580552
0.581894
0.598484
0.644185
0.735984
0.895766
3
2.99999
2.99995
2.99989
2.99966
2.99934
2.99802
2.99614
2.98893
2.97696
2.93803
2.84988
2.64632
2.11256
1.29178
0.711117
0.570545
0.588137
0.607944
0.618479
0.630312
0.656515
0.708605
0.795329
0.925027
3
2.99999
2.99996
2.99991
2.99971
2.99943
2.9983
2.99671
2.99039
2.98066
2.9469
2.87722
2.70258
2.2596
1.49092
0.815501
0.595904
0.611914
0.634723
0.654629
0.674023
0.706389
0.758514
0.834656
0.940522
3
2.99999
2.99997
2.99993
2.99976
2.99953
2.9986
2.99728
2.99203
2.98419
2.95573
2.90395
2.75602
2.42022
1.72854
0.936231
0.644419
0.652177
0.671119
0.692205
0.714015
0.74686
0.798726
0.865115
0.954136
3
3
2.99997
2.99994
2.99981
2.99962
2.99887
2.99781
2.99357
2.98731
2.96424
2.92287
2.8048
2.52369
1.94087
1.04737
0.700024
0.688747
0.707732
0.72945
0.751189
0.782359
0.830162
0.892703
0.967472
3
3
2.99998
2.99996
2.99985
2.99971
2.99913
2.99831
2.99515
2.99008
2.97318
2.93744
2.84589
2.60042
2.13716
1.22136
0.794261
0.716512
0.733646
0.755252
0.782688
0.813365
0.856022
0.913715
0.981457
3
3
2.99999
2.99997
2.99988
2.99977
2.99931
2.99866
2.99606
2.99218
2.97834
2.95191
2.87802
2.68738
2.30998
1.47074
0.924582
0.752993
0.758137
0.778014
0.807879
0.841606
0.880799
0.931408
0.992685
3.00001
3
2.99999
2.99998
2.99991
2.99983
2.99948
2.99898
2.99704
2.99413
2.98369
2.96468
2.90898
2.77201
2.48759
1.80767
1.09885
0.821531
0.800579
0.811656
0.835794
0.867773
0.905071
0.950269
1.00422
3.00001
3
3
2.99998
2.99995
2.99984
2.99968
2.99905
2.99812
2.9946
2.98907
2.97016
2.9325
2.83322
2.5853
2.0708
1.24373
0.889816
0.837578
0.847351
0.867235
0.895708
0.929231
0.968423
1.01551
3.00001
3
3
2.99999
2.99996
2.99988
2.99976
2.99929
2.99861
2.99599
2.99191
2.97792
2.95019
2.87502
2.68166
2.29346
1.50003
1.01291
0.876916
0.877386
0.894177
0.921638
0.953737
0.989575
1.02917
3.00001
3.00001
3
2.99999
2.99997
2.99993
2.99979
2.99957
2.99875
2.9975
2.9929
2.98537
2.96047
2.91115
2.77745
2.47749
1.81554
1.17528
0.939362
0.91314
0.922501
0.945062
0.975346
1.00859
1.0455
3.00001
3.00001
3
3
2.99998
2.99994
2.99988
2.99964
2.99927
2.99792
2.99581
2.98856
2.97498
2.9357
2.84093
2.63731
2.10975
1.35872
1.01429
0.953196
0.956639
0.97276
0.997359
1.02622
1.05974
3.00001
3.00001
3
3
2.99999
2.99997
2.9999
2.99979
2.9994
2.99878
2.99667
2.9928
2.98128
2.95481
2.89046
2.71676
2.37808
1.63556
1.14213
0.995951
0.988278
0.999762
1.02143
1.04605
1.07445
3.00001
3.00001
3.00001
3
3
2.99997
2.99994
2.99981
2.99963
2.99892
2.99785
2.9939
2.98756
2.96618
2.92597
2.81263
2.56704
1.99579
1.32174
1.06037
1.02279
1.0281
1.04605
1.07047
1.09358
3.00001
3.00001
3.00001
3
3
2.99998
2.99996
2.99987
2.99974
2.99924
2.99851
2.9957
2.9915
2.97629
2.94956
2.87193
2.69135
2.2944
1.57217
1.16398
1.05958
1.05521
1.06537
1.08771
1.11379
3.00001
3.00001
3.00001
3.00001
3
2.99999
2.99997
2.99993
2.99979
2.99958
2.99879
2.99759
2.99321
2.98609
2.96263
2.9173
2.79306
2.52147
1.90844
1.33095
1.11849
1.08674
1.08972
1.10501
1.12706
3.00001
3.00001
3.00001
3.00001
3
3
2.99999
2.99995
2.99989
2.99967
2.99934
2.99814
2.99625
2.98986
2.97793
2.94389
2.86192
2.6879
2.22166
1.53934
1.19695
1.1242
1.11738
1.12379
1.13767
3.00001
3.00001
3.00001
3.00001
3
3
2.99999
2.99997
2.99991
2.99982
2.99947
2.99895
2.99702
2.99401
2.98376
2.96457
2.91036
2.77871
2.50642
1.87382
1.35489
1.17019
1.14568
1.14317
1.15046
3.00001
3.00001
3.00001
3.00001
3.00001
3
3
2.99999
2.99994
2.99988
2.99965
2.99931
2.998
2.9961
2.98901
2.97752
2.94045
2.86014
2.67762
2.21867
1.56346
1.24594
1.17334
1.16243
1.15943
3.00001
3.00001
3.00001
3.00001
3.00001
3
3
2.99999
2.99997
2.99991
2.99982
2.99946
2.99894
2.997
2.994
2.98371
2.96477
2.91062
2.78158
2.51193
1.89577
1.40026
1.21493
1.17715
1.15894
3.00001
3.00001
3.00001
3.00001
3.00001
3.00001
3
3
2.99999
2.99994
2.99988
2.99965
2.99932
2.99802
2.99614
2.98909
2.97792
2.94128
2.86417
2.68553
2.24105
1.60363
1.28712
1.1903
1.14249
3.00001
3.00001
3.00001
3.00001
3.00001
3.00001
3
3
2.99999
2.99997
2.99991
2.99982
2.99949
2.99898
2.99713
2.99423
2.9845
2.96626
2.91513
2.79287
2.53786
1.95453
1.42735
1.20022
1.1017
3.00001
3.00001
3.00001
3.00001
3.00001
3.00001
3.00001
3
3
2.99998
2.99995
2.99986
2.99971
2.99917
2.99837
2.99539
2.99075
2.97471
2.94589
2.86371
2.67959
2.2602
1.59784
1.21137
1.02208
3.00001
3.00001
3.00001
3.00001
3.00001
3.00001
3.00001
3
3
2.99999
2.99997
2.9999
2.99981
2.99943
2.9989
2.99681
2.99375
2.98264
2.96325
2.90704
2.77581
2.49741
1.88816
1.233
0.907522
3.00001
3.00001
3.00001
3.00001
3.00001
3.00001
3.00001
3.00001
3
2.99999
2.99998
2.99993
2.99986
2.99958
2.99917
2.99758
2.99524
2.9864
2.97198
2.9244
2.82368
2.57596
2.02041
1.225
0.747059
3.00001
3.00001
3.00001
3.00001
3.00001
3.00001
3.00001
3.00001
3
3
2.99998
2.99996
2.99987
2.99973
2.99921
2.99842
2.9956
2.99039
2.9747
2.93721
2.84709
2.59162
2.10969
1.19516
0.607356
3.00001
3.00001
3.00001
3.00001
3.00001
3.00001
3.00001
3.00001
3
3
2.99999
2.99997
2.99989
2.99977
2.99932
2.99861
2.99616
2.99133
2.97732
2.94244
2.8596
2.61467
2.15327
1.19684
0.526307
3.00001
3.00001
3.00001
3.00001
3.00001
3.00001
3.00001
3.00001
3
3
2.99999
2.99996
2.99992
2.99974
2.99947
2.99853
2.99668
2.99137
2.97833
2.94608
2.85548
2.66486
2.10915
1.27322
0.50261
3.00001
3.00001
3.00001
3.00001
3.00001
3.00001
3.00001
3.00001
3
3
2.99999
2.99997
2.9999
2.9998
2.9994
2.99875
2.99655
2.99208
2.97932
2.94721
2.87092
2.64464
2.21232
1.27586
0.530411
3.00001
3.00001
3.00001
3.00001
3.00001
3.00001
3.00001
3.00001
3
3
2.99999
2.99997
2.99991
2.99981
2.99942
2.99883
2.99672
2.99263
2.98053
2.95064
2.87827
2.66624
2.25387
1.34356
0.564129
3.00001
3.00001
3.00001
3.00001
3.00001
3.00001
3.00001
3.00001
3.00001
3
2.99999
2.99996
2.99992
2.99976
2.99952
2.99859
2.99707
2.99201
2.98144
2.95227
2.87654
2.70871
2.23324
1.43684
0.572705
3.00001
3.00001
3.00001
3.00001
3.00001
3.00001
3.00001
3.00001
3
3
2.99999
2.99998
2.99991
2.99982
2.99948
2.99891
2.99706
2.99315
2.98253
2.95536
2.89223
2.70383
2.33869
1.49256
0.632209
3.00001
3.00001
3.00001
3.00001
3.00001
3.00001
3.00001
3.00001
3.00001
3
2.99999
2.99997
2.99992
2.99976
2.99953
2.99858
2.99719
2.99179
2.98316
2.95357
2.89192
2.73277
2.33239
1.56808
0.63481
3.00001
3.00001
3.00001
3.00001
3.00001
3.00001
3.00001
3.00001
3.00001
3
2.99999
2.99997
2.99993
2.99977
2.99954
2.99862
2.99729
2.99206
2.98382
2.9551
2.89702
2.74233
2.36233
1.60756
0.651739
3.00001
3.00001
3.00001
3.00001
3.00001
3.00001
3.00001
3.00001
3
3
2.99999
2.99998
2.99991
2.99982
2.99947
2.99895
2.99697
2.99374
2.98301
2.9606
2.90054
2.74152
2.41712
1.66827
0.716466
3.00001
3.00001
3.00001
3.00001
3.00001
3.00001
3.00001
3.00001
3
3
2.99999
2.99998
2.99991
2.99982
2.99946
2.99895
2.99687
2.99384
2.98243
2.96241
2.90095
2.75196
2.42934
1.69319
0.739389
3.00001
3.00001
3.00001
3.00001
3.00001
3.00001
3.00001
3.00001
3
3
2.99999
2.99998
2.99992
2.99983
2.99949
2.99899
2.99703
2.994
2.98345
2.96275
2.90419
2.75424
2.43973
1.70636
0.754637
3.00001
3.00001
3.00001
3.00001
3.00001
3.00001
3.00001
3.00001
3.00001
3
2.99999
2.99997
2.99993
2.99979
2.99959
2.99879
2.99755
2.99319
2.98502
2.96054
2.90163
2.76404
2.39573
1.6875
0.7089
3.00001
3.00001
3.00001
3.00001
3.00001
3.00001
3.00001
3.00001
3
3
2.99999
2.99998
2.99992
2.99983
2.99949
2.999
2.99706
2.99406
2.9836
2.96313
2.905
2.7567
2.44426
1.71772
0.768614
0.9616
0.762922
0.284908
0.248827
0.296514
0.397688
0.435143
0.462663
0.498794
0.538475
0.573016
0.602825
0.631442
0.662199
0.688669
0.703921
0.708286
0.707275
0.698112
0.677785
0.647949
0.611386
0.571529
0.530529
0.489808
0.450349
0.412325
0.375945
0.340824
0.306668
0.273378
0.240834
0.207895
0.175666
0.144326
0.113876
0.084405
0.0560483
0.0295737
0.0156832
0.0365114
0.0611827
0.0870814
0.111738
0.135786
0.158267
0.179937
0.202191
0.224907
0.246772
0.267885
0.288381
0.308406
0.327993
0.347209
0.366084
0.384542
0.402785
0.42058
0.438255
0.455451
0.472585
0.489303
0.505932
0.5222
0.53843
0.554268
0.570143
0.585608
0.601151
0.616262
0.631527
0.646267
0.661283
0.675658
0.690399
0.704452
0.718854
0.732622
0.74665
0.760124
0.773797
0.786941
0.800291
0.81308
0.826116
0.838549
0.851255
0.863331
0.875676
0.887371
0.899268
0.910496
0.921795
0.932297
0.942635
0.951772
0.960127
0.966141
0.970629
0.969872
0.849988
0.597387
0.414179
0.297032
0.160362
0.052244
0.140032
0.222317
0.28622
0.329388
0.361145
0.392261
0.424699
0.455826
0.47517
0.479089
0.474702
0.462498
0.439227
0.406534
0.368189
0.327992
0.288013
0.248723
0.21138
0.176244
0.142852
0.111239
0.0817355
0.0556537
0.039223
0.0417978
0.0611794
0.084999
0.110004
0.135217
0.160108
0.184314
0.207551
0.229786
0.25184
0.273772
0.295432
0.316543
0.336781
0.356059
0.37571
0.395677
0.415296
0.434019
0.452436
0.470252
0.487995
0.505124
0.522244
0.538792
0.555321
0.571366
0.58737
0.602901
0.618462
0.63352
0.648674
0.663344
0.678123
0.692459
0.706924
0.720932
0.735128
0.74881
0.762756
0.776154
0.789816
0.80298
0.816291
0.829252
0.842183
0.854941
0.8675
0.880012
0.892208
0.904436
0.91629
0.928246
0.93978
0.951493
0.962697
0.97416
0.98502
0.996196
1.00665
1.0175
1.02748
1.03776
1.04684
1.05581
1.06298
1.06892
1.07225
0.990127
0.964021
0.858043
0.752724
0.646028
0.53153
0.414005
0.30946
0.220327
0.140786
0.0758942
0.0719432
0.116142
0.160676
0.200119
0.22582
0.226329
0.20782
0.193074
0.170415
0.140374
0.110989
0.0848894
0.0697342
0.0691319
0.0830171
0.103547
0.127392
0.152253
0.177434
0.202178
0.226595
0.249792
0.272928
0.295636
0.318085
0.339998
0.361476
0.382174
0.4023
0.421622
0.440673
0.45936
0.477901
0.495969
0.513335
0.529829
0.546314
0.563329
0.580212
0.596532
0.612248
0.627825
0.642949
0.658059
0.672716
0.687363
0.70161
0.71585
0.729711
0.743604
0.757108
0.770702
0.783905
0.797223
0.810169
0.823224
0.835958
0.848776
0.861309
0.873927
0.886239
0.898705
0.910763
0.923086
0.934869
0.947034
0.958562
0.970526
0.981813
0.99351
1.00457
1.01599
1.02684
1.03797
1.0486
1.05945
1.06985
1.08049
1.09072
1.10117
1.11118
1.1213
1.13088
1.1404
1.14923
1.15755
1.16475
1.17034
1.17389
1.0128
1.03627
1.00517
0.952648
0.882709
0.800846
0.711841
0.621166
0.5392
0.459124
0.384589
0.313753
0.25321
0.198439
0.150007
0.109936
0.0821723
0.0862358
0.113423
0.140636
0.1793
0.214575
0.244871
0.271722
0.295782
0.318711
0.341074
0.363122
0.385013
0.406315
0.427258
0.447432
0.466949
0.485839
0.504407
0.522465
0.540121
0.557307
0.573862
0.590058
0.605505
0.62087
0.635701
0.650674
0.665103
0.679287
0.692435
0.705707
0.719232
0.733282
0.746747
0.759956
0.772748
0.785513
0.798019
0.810503
0.822773
0.834967
0.847001
0.85894
0.870747
0.882478
0.894056
0.905623
0.916966
0.928407
0.939536
0.950869
0.961826
0.973048
0.983887
0.994986
1.00573
1.01669
1.02732
1.03812
1.04861
1.05924
1.06953
1.07999
1.09008
1.10039
1.1103
1.12048
1.13029
1.1404
1.15015
1.16015
1.16975
1.17955
1.18895
1.19848
1.20759
1.21671
1.22532
1.23373
1.24135
1.24825
1.25349
1.25681
1.03027
1.07228
1.08334
1.06491
1.03077
0.980987
0.922128
0.858404
0.793527
0.727302
0.658524
0.592542
0.533459
0.47985
0.434793
0.399817
0.380935
0.381215
0.398378
0.421837
0.44901
0.477881
0.503454
0.524921
0.543576
0.560407
0.576635
0.592577
0.608358
0.623921
0.638927
0.653568
0.667473
0.681082
0.69407
0.706886
0.719153
0.731195
0.74268
0.753928
0.76472
0.775407
0.785939
0.796489
0.807042
0.817368
0.827109
0.836751
0.846816
0.857605
0.868373
0.878959
0.889266
0.899572
0.90977
0.920053
0.930259
0.940548
0.950746
0.961042
0.971211
0.981528
0.991654
1.002
1.01208
1.02245
1.03247
1.04284
1.05283
1.06316
1.07314
1.08339
1.09337
1.10351
1.11347
1.12348
1.13337
1.14322
1.153
1.16269
1.17242
1.18206
1.19177
1.20132
1.21094
1.22034
1.22987
1.23912
1.24854
1.2576
1.26685
1.27568
1.28465
1.29316
1.30165
1.3096
1.31714
1.32386
1.32919
1.33253
1.04065
1.09388
1.12058
1.12952
1.11855
1.09493
1.06075
1.02089
0.976055
0.927603
0.875671
0.821954
0.768655
0.718547
0.673454
0.638991
0.620127
0.621929
0.638252
0.663361
0.691312
0.719232
0.742793
0.760764
0.772839
0.781491
0.789348
0.797319
0.80544
0.813463
0.821296
0.828679
0.835712
0.842493
0.84911
0.855651
0.862112
0.868626
0.875111
0.881686
0.888264
0.894982
0.901826
0.90893
0.916321
0.923745
0.930831
0.937875
0.945289
0.953518
0.962094
0.970698
0.979126
0.987663
0.996129
1.00483
1.01346
1.02238
1.03116
1.04028
1.04916
1.05845
1.06741
1.07684
1.08588
1.0954
1.10453
1.11409
1.12331
1.13289
1.1422
1.15176
1.16113
1.17066
1.18002
1.18949
1.1988
1.20824
1.21755
1.227
1.23622
1.24557
1.25468
1.26394
1.27294
1.28211
1.29099
1.30003
1.30877
1.31767
1.32622
1.33495
1.34326
1.35172
1.35962
1.3676
1.3747
1.38156
1.38674
1.39031
1.0484
1.1045
1.1436
1.16419
1.17281
1.16647
1.15067
1.12778
1.09963
1.06612
1.02833
0.985974
0.940678
0.896315
0.855972
0.82559
0.809419
0.811649
0.827696
0.855222
0.886872
0.914819
0.936553
0.951074
0.957775
0.957388
0.955692
0.954439
0.954094
0.954822
0.955944
0.95741
0.959044
0.960876
0.962907
0.965151
0.967677
0.970537
0.973751
0.977293
0.98117
0.985371
0.989938
0.994867
1.00027
1.00588
1.01145
1.01691
1.02276
1.02933
1.03661
1.044
1.05151
1.05903
1.0667
1.07445
1.08235
1.0904
1.09851
1.10685
1.11514
1.12371
1.13214
1.1409
1.14945
1.15835
1.16701
1.176
1.18478
1.19381
1.20271
1.21175
1.22073
1.22975
1.23877
1.24779
1.25687
1.26586
1.27489
1.28378
1.29272
1.30151
1.31038
1.31907
1.32785
1.33644
1.34511
1.35359
1.36212
1.37047
1.37883
1.38701
1.39513
1.40308
1.41081
1.41834
1.42537
1.43191
1.43718
1.44054
1.05445
1.1101
1.15406
1.18498
1.20258
1.21111
1.20826
1.19806
1.18151
1.1591
1.12942
1.09395
1.05446
1.01511
0.977943
0.949266
0.935853
0.940371
0.957967
0.987224
1.02073
1.04896
1.06931
1.08354
1.08965
1.08724
1.07954
1.07113
1.06411
1.05934
1.05588
1.05387
1.05236
1.0517
1.05116
1.05126
1.05165
1.05257
1.05395
1.05581
1.0582
1.06095
1.06417
1.06776
1.07188
1.07631
1.08086
1.08526
1.08995
1.09527
1.1014
1.10782
1.11445
1.12118
1.12802
1.13503
1.14214
1.1495
1.15689
1.16456
1.17219
1.18012
1.18798
1.19612
1.20422
1.21254
1.22086
1.22931
1.23784
1.24638
1.25506
1.26367
1.27245
1.28112
1.29002
1.2987
1.30758
1.3162
1.32504
1.33361
1.34239
1.35091
1.3596
1.36805
1.37665
1.38504
1.39351
1.40181
1.41012
1.4183
1.4264
1.43441
1.44224
1.45001
1.45748
1.46482
1.47167
1.47807
1.48337
1.48665
1.06151
1.11457
1.16006
1.19578
1.221
1.23622
1.24377
1.2421
1.23297
1.21571
1.18984
1.15774
1.12279
1.08443
1.0454
1.02006
1.01288
1.02013
1.04105
1.07405
1.11144
1.14092
1.16125
1.1745
1.18331
1.18471
1.17894
1.16896
1.15814
1.14842
1.14083
1.13519
1.13107
1.12811
1.1257
1.12404
1.12264
1.12195
1.12157
1.12189
1.12264
1.12391
1.12556
1.12782
1.13041
1.13368
1.137
1.14041
1.14381
1.14793
1.15271
1.15825
1.1639
1.16993
1.17592
1.1823
1.18859
1.19535
1.20199
1.20911
1.21608
1.22354
1.23082
1.23856
1.24615
1.2541
1.26197
1.27012
1.27823
1.28653
1.29485
1.30331
1.31183
1.32036
1.3289
1.33743
1.34599
1.35452
1.36307
1.37157
1.38007
1.38851
1.39696
1.40532
1.4137
1.42198
1.43027
1.43846
1.44664
1.45475
1.46278
1.47077
1.47859
1.48641
1.49391
1.50139
1.50829
1.51492
1.5203
1.52393
1.06727
1.11804
1.16335
1.20145
1.23105
1.25171
1.26372
1.26776
1.2617
1.24446
1.21915
1.19036
1.15381
1.10985
1.07216
1.05653
1.05557
1.06732
1.09367
1.13132
1.16891
1.20011
1.22227
1.2362
1.24571
1.25066
1.25034
1.24401
1.23441
1.22254
1.21086
1.20082
1.19304
1.18697
1.18242
1.17884
1.17616
1.17414
1.17264
1.17175
1.17125
1.17131
1.17194
1.17305
1.17479
1.17702
1.17979
1.18245
1.18532
1.18849
1.19253
1.19723
1.20237
1.2078
1.21342
1.21932
1.22528
1.23158
1.23787
1.24457
1.25122
1.2583
1.26533
1.27274
1.28012
1.2878
1.29548
1.30338
1.3113
1.3194
1.32756
1.33578
1.34402
1.35228
1.36058
1.36887
1.37722
1.38554
1.39389
1.40219
1.41051
1.41876
1.42703
1.4352
1.4434
1.45149
1.45959
1.46758
1.47556
1.48343
1.49123
1.49896
1.50651
1.51403
1.52126
1.52845
1.53511
1.54149
1.54671
1.55019
1.07429
1.12106
1.16467
1.20328
1.23467
1.2586
1.27311
1.27825
1.27014
1.25166
1.2282
1.19621
1.1517
1.10646
1.08028
1.07409
1.07867
1.09702
1.12935
1.1685
1.20467
1.23508
1.2588
1.2758
1.28662
1.29417
1.29853
1.29833
1.29346
1.28583
1.27413
1.26153
1.25003
1.24077
1.23353
1.22811
1.22407
1.22098
1.21868
1.21691
1.21569
1.21497
1.21474
1.21512
1.21605
1.21764
1.21975
1.2221
1.22447
1.22714
1.23045
1.23456
1.23911
1.24409
1.24925
1.25479
1.26038
1.26636
1.27232
1.27869
1.28504
1.29178
1.29855
1.30563
1.31279
1.32017
1.3277
1.33534
1.3432
1.35107
1.35911
1.36707
1.37523
1.38328
1.39152
1.39964
1.40794
1.41609
1.4244
1.43255
1.44086
1.44898
1.45726
1.46533
1.47355
1.48155
1.48969
1.49762
1.50563
1.51345
1.52129
1.52894
1.53654
1.54394
1.55116
1.55813
1.5647
1.57078
1.57587
1.57911
1.08436
1.12571
1.16606
1.203
1.23396
1.25786
1.27179
1.27318
1.26138
1.243
1.2158
1.17456
1.12498
1.09016
1.07882
1.0791
1.09058
1.11702
1.15379
1.1905
1.22379
1.25284
1.27726
1.29702
1.3122
1.32269
1.32977
1.33405
1.33491
1.33226
1.32587
1.31537
1.3026
1.29034
1.27978
1.2713
1.26482
1.25982
1.25615
1.25324
1.25121
1.24966
1.24883
1.24844
1.24874
1.2496
1.25107
1.25298
1.25489
1.25702
1.25956
1.26299
1.26696
1.2715
1.27622
1.28143
1.2867
1.29243
1.29812
1.30427
1.31035
1.31688
1.32336
1.33025
1.33715
1.34438
1.35168
1.35925
1.36688
1.37459
1.3824
1.39024
1.39818
1.40613
1.41418
1.42219
1.43031
1.43835
1.44648
1.45452
1.46265
1.47067
1.47877
1.48676
1.4948
1.50273
1.51069
1.51854
1.52637
1.53412
1.54178
1.54937
1.55679
1.56412
1.57115
1.57802
1.58436
1.5903
1.59505
1.59831
1.09555
1.13296
1.16893
1.20241
1.23014
1.25083
1.25912
1.25382
1.23936
1.21708
1.18058
1.13207
1.0925
1.0754
1.07358
1.08021
1.10016
1.13229
1.16793
1.2012
1.23164
1.2591
1.28367
1.3052
1.32346
1.33812
1.34921
1.35649
1.36074
1.36256
1.36167
1.35709
1.34871
1.33697
1.3247
1.31344
1.304
1.2966
1.29103
1.28701
1.28409
1.28214
1.28083
1.2802
1.28012
1.28059
1.28171
1.28329
1.28508
1.28695
1.28911
1.292
1.29557
1.29976
1.30421
1.30916
1.31423
1.31975
1.3253
1.33126
1.33724
1.34358
1.34996
1.35667
1.36348
1.37056
1.3778
1.38518
1.39267
1.40023
1.40792
1.41562
1.42346
1.43126
1.43921
1.44707
1.45508
1.46296
1.47099
1.47887
1.4869
1.49476
1.50278
1.51062
1.51859
1.52638
1.53427
1.54195
1.5497
1.55724
1.56477
1.57209
1.57931
1.58628
1.59302
1.59942
1.60533
1.61066
1.61496
1.61784
1.10642
1.13963
1.17193
1.20075
1.22358
1.23609
1.2352
1.22357
1.20469
1.1731
1.12714
1.0856
1.06507
1.06174
1.06611
1.0819
1.10949
1.1424
1.17406
1.2035
1.23117
1.25715
1.28169
1.30425
1.32473
1.34249
1.35741
1.36914
1.37719
1.38256
1.38513
1.38611
1.3839
1.37781
1.36806
1.35651
1.34526
1.33525
1.32721
1.32094
1.31653
1.31339
1.31149
1.31025
1.30979
1.3098
1.31042
1.31161
1.31317
1.31485
1.31661
1.31895
1.32193
1.3257
1.32976
1.33434
1.33912
1.34432
1.34966
1.35534
1.36113
1.36722
1.37345
1.37994
1.38663
1.39357
1.40066
1.40785
1.4152
1.42256
1.43012
1.43762
1.44535
1.45295
1.46082
1.4685
1.47645
1.48417
1.49213
1.49986
1.5078
1.51553
1.52343
1.53112
1.53898
1.54661
1.55438
1.56191
1.56954
1.57691
1.5843
1.59141
1.59841
1.60509
1.61145
1.6174
1.62272
1.62753
1.63117
1.63366
1.11899
1.14674
1.17294
1.19606
1.2107
1.21185
1.20221
1.18589
1.15685
1.11401
1.07275
1.0507
1.04588
1.04955
1.06316
1.08759
1.11738
1.14621
1.17354
1.19989
1.22566
1.2507
1.27496
1.2982
1.31986
1.33991
1.35761
1.37311
1.38585
1.39583
1.40223
1.40624
1.40803
1.40811
1.40454
1.39724
1.38703
1.3763
1.366
1.35731
1.35034
1.3454
1.34192
1.33979
1.33865
1.33816
1.3384
1.33924
1.34053
1.3421
1.34366
1.34559
1.34805
1.35137
1.35509
1.35936
1.36388
1.36886
1.37402
1.37955
1.38521
1.39115
1.39727
1.40361
1.41022
1.41693
1.42385
1.43079
1.43799
1.44514
1.45257
1.45989
1.46748
1.47493
1.48265
1.49019
1.49798
1.50555
1.51337
1.52093
1.52874
1.53627
1.54406
1.55155
1.55929
1.56672
1.57433
1.58167
1.58907
1.59624
1.60331
1.61017
1.61675
1.62304
1.62883
1.63415
1.63882
1.64292
1.64549
1.64741
1.13524
1.15467
1.17342
1.18536
1.18698
1.17782
1.16229
1.13461
1.09417
1.05519
1.03409
1.02895
1.03246
1.04517
1.06753
1.09456
1.12058
1.14561
1.16987
1.1943
1.21859
1.2431
1.26713
1.29083
1.31329
1.33471
1.35435
1.37236
1.38809
1.40168
1.41253
1.4209
1.42596
1.42901
1.43062
1.42979
1.42511
1.41696
1.40713
1.39685
1.38776
1.38017
1.37445
1.37057
1.36798
1.36681
1.3663
1.36671
1.36771
1.3692
1.37066
1.37237
1.37435
1.37717
1.3805
1.38443
1.38863
1.3933
1.3982
1.40347
1.40892
1.41466
1.42059
1.4268
1.43319
1.43969
1.44642
1.45318
1.46021
1.46718
1.47447
1.48162
1.48908
1.49638
1.50396
1.51137
1.519
1.52649
1.5341
1.5416
1.54916
1.55661
1.5641
1.57146
1.57886
1.5861
1.59339
1.60046
1.60756
1.61437
1.62113
1.6275
1.63363
1.63925
1.64431
1.64888
1.65262
1.65549
1.65659
1.65785
1.14693
1.16196
1.16934
1.16763
1.15652
1.13919
1.10982
1.06922
1.03282
1.01392
1.01007
1.0141
1.0275
1.04983
1.07476
1.0988
1.12119
1.14337
1.16562
1.18846
1.21179
1.23545
1.25918
1.2826
1.30546
1.32749
1.34842
1.368
1.3861
1.40244
1.4168
1.429
1.43862
1.44557
1.44991
1.45304
1.45433
1.45271
1.44694
1.43841
1.42875
1.41945
1.41124
1.40481
1.40028
1.3972
1.39584
1.39525
1.39576
1.39693
1.39834
1.39987
1.40147
1.40372
1.40653
1.41
1.41381
1.41812
1.42274
1.42773
1.43301
1.43855
1.44442
1.45044
1.4567
1.46306
1.46961
1.47626
1.48304
1.48991
1.4969
1.50393
1.51111
1.51824
1.52558
1.53278
1.54023
1.54746
1.55495
1.56216
1.56964
1.5768
1.58422
1.59128
1.59859
1.60551
1.61265
1.61937
1.62618
1.63259
1.63884
1.64469
1.65001
1.65482
1.65896
1.66243
1.66469
1.66561
1.66508
1.66608
1.15373
1.16148
1.15619
1.14266
1.12133
1.08767
1.0447
1.00922
0.992357
0.989568
0.994295
1.00934
1.0326
1.05667
1.0789
1.09954
1.11947
1.13958
1.16058
1.1823
1.205
1.22792
1.25133
1.27442
1.29742
1.31968
1.34141
1.36207
1.38192
1.40026
1.41753
1.43274
1.4465
1.45755
1.46616
1.47223
1.47687
1.47949
1.48032
1.47771
1.47133
1.4623
1.45313
1.44428
1.4371
1.43155
1.42792
1.426
1.42514
1.42561
1.42672
1.4281
1.42947
1.43122
1.43349
1.43645
1.43985
1.44375
1.448
1.45268
1.45767
1.46299
1.46864
1.47446
1.48053
1.48664
1.49306
1.49938
1.50608
1.51258
1.51948
1.52615
1.53319
1.54003
1.54718
1.55416
1.56138
1.56845
1.57569
1.58276
1.58998
1.59697
1.60412
1.61098
1.61799
1.62467
1.6314
1.63782
1.64414
1.65005
1.6557
1.66068
1.66522
1.66897
1.67208
1.67387
1.67411
1.67311
1.6712
1.67187
1.15737
1.1502
1.1337
1.10916
1.07048
1.02274
0.987134
0.972095
0.970868
0.977218
0.994548
1.0194
1.04281
1.06396
1.08303
1.10102
1.11929
1.13802
1.15812
1.17884
1.20079
1.22296
1.24586
1.26857
1.29152
1.3139
1.33615
1.35754
1.3785
1.39828
1.41731
1.43475
1.45099
1.46532
1.47791
1.48786
1.49565
1.50142
1.50586
1.50776
1.50781
1.50406
1.49669
1.48804
1.47874
1.47092
1.46427
1.45991
1.45696
1.45586
1.45587
1.45682
1.45812
1.45946
1.46123
1.46355
1.46659
1.47001
1.47395
1.47819
1.48293
1.48795
1.49336
1.49889
1.50472
1.51061
1.51678
1.5229
1.52933
1.53563
1.54226
1.5487
1.5555
1.56209
1.569
1.57573
1.58269
1.58953
1.59646
1.60334
1.61019
1.61703
1.62372
1.63046
1.63691
1.64344
1.64954
1.65568
1.66123
1.66664
1.67126
1.67542
1.67882
1.68142
1.68256
1.68222
1.6806
1.67816
1.67337
1.67224
1.15114
1.13109
1.1006
1.05535
1.00256
0.965133
0.950854
0.950784
0.96008
0.980383
1.00645
1.03054
1.05134
1.06953
1.08653
1.10303
1.1203
1.1382
1.15741
1.17747
1.19858
1.2203
1.24254
1.26505
1.28756
1.31009
1.33223
1.35414
1.37541
1.39613
1.41602
1.43511
1.45318
1.47002
1.48538
1.49892
1.51034
1.51931
1.52673
1.53246
1.53627
1.53753
1.53653
1.53152
1.52389
1.51499
1.50661
1.49898
1.49361
1.48961
1.4879
1.48723
1.48805
1.48927
1.49052
1.49226
1.49465
1.49769
1.50125
1.5051
1.5095
1.51411
1.51922
1.52438
1.52993
1.53552
1.54136
1.54728
1.55332
1.55948
1.56571
1.57205
1.57847
1.58494
1.59153
1.59808
1.60479
1.61137
1.61812
1.62465
1.63132
1.63774
1.64421
1.65042
1.65654
1.66247
1.66801
1.67341
1.6781
1.68245
1.68588
1.68882
1.69079
1.6912
1.69018
1.68835
1.685
1.6793
1.66933
1.66469
1.13516
1.0966
1.04303
0.986945
0.948147
0.933463
0.933545
0.945563
0.96851
0.995812
1.02055
1.0413
1.05917
1.07519
1.09083
1.10659
1.12319
1.14067
1.1592
1.17878
1.19908
1.22029
1.24173
1.26375
1.28566
1.30787
1.32975
1.35174
1.37319
1.39456
1.41523
1.43553
1.45483
1.47347
1.49075
1.50696
1.5213
1.53405
1.54423
1.55293
1.56013
1.56529
1.56766
1.56853
1.56635
1.56041
1.55221
1.54328
1.53517
1.52835
1.52351
1.52068
1.51942
1.51986
1.52086
1.52205
1.52358
1.52599
1.52902
1.53255
1.53649
1.54069
1.54528
1.55004
1.55519
1.56043
1.56599
1.57163
1.57746
1.58341
1.58943
1.59562
1.60178
1.60814
1.6144
1.62085
1.62716
1.63362
1.63994
1.6463
1.65255
1.65869
1.66475
1.67053
1.67624
1.68144
1.68648
1.69078
1.6946
1.69746
1.6999
1.70093
1.70081
1.69912
1.69669
1.69205
1.68451
1.67382
1.65963
1.65289
1.09403
1.02973
0.969104
0.930079
0.916089
0.917535
0.933109
0.959518
0.987528
1.01244
1.03334
1.05082
1.06652
1.08131
1.09631
1.11175
1.12808
1.14528
1.16333
1.18233
1.20189
1.22238
1.24312
1.26454
1.28599
1.30788
1.32958
1.35154
1.3731
1.39479
1.4158
1.43683
1.45686
1.4767
1.49521
1.51319
1.52954
1.54486
1.5582
1.56984
1.57934
1.58784
1.59421
1.59847
1.59981
1.59942
1.59561
1.58869
1.57982
1.57112
1.563
1.55709
1.55278
1.55087
1.55035
1.5512
1.55215
1.55364
1.55579
1.55895
1.56243
1.56637
1.57051
1.57504
1.57978
1.58479
1.59003
1.59539
1.60098
1.60662
1.61248
1.61836
1.62442
1.6305
1.63668
1.64289
1.64911
1.65534
1.66148
1.66764
1.67357
1.67951
1.68507
1.69059
1.69553
1.70028
1.70424
1.70755
1.71001
1.71167
1.71208
1.71123
1.70922
1.70547
1.69975
1.69011
1.67728
1.66328
1.64754
1.64062
1.01892
0.950626
0.9122
0.900155
0.903624
0.92389
0.954365
0.982844
1.00752
1.02785
1.04484
1.05976
1.07398
1.08814
1.10277
1.11811
1.13417
1.15114
1.16874
1.18726
1.20638
1.22624
1.24664
1.26754
1.28876
1.31023
1.33185
1.35347
1.37518
1.39661
1.41807
1.43896
1.45973
1.47967
1.49932
1.51786
1.53595
1.5526
1.56848
1.58241
1.59496
1.60526
1.6144
1.62192
1.62708
1.62929
1.62959
1.62775
1.62221
1.61406
1.60487
1.59615
1.58858
1.5832
1.57986
1.5785
1.57878
1.57958
1.5808
1.58283
1.58576
1.58932
1.59325
1.59752
1.60205
1.60681
1.61185
1.61706
1.62251
1.62807
1.63383
1.63962
1.64561
1.65154
1.65767
1.66363
1.66978
1.67569
1.6817
1.68748
1.69316
1.69866
1.70379
1.70874
1.71297
1.71686
1.71958
1.72179
1.72287
1.72288
1.72147
1.71903
1.71462
1.707
1.69557
1.68162
1.66617
1.65132
1.63672
1.63104
0.91609
0.873468
0.866929
0.877184
0.906481
0.944326
0.976355
1.00239
1.02333
1.04053
1.05551
1.06958
1.08349
1.09769
1.11249
1.12777
1.14385
1.16048
1.17786
1.19581
1.21437
1.23341
1.253
1.27299
1.29343
1.31415
1.33519
1.35644
1.37773
1.39919
1.42034
1.44148
1.46217
1.4826
1.50247
1.52183
1.54044
1.55819
1.57501
1.59051
1.60484
1.61725
1.62812
1.63729
1.64553
1.65165
1.65475
1.65517
1.65432
1.65077
1.64397
1.63482
1.62541
1.61667
1.60998
1.60516
1.60293
1.60223
1.60301
1.60409
1.6058
1.6087
1.61229
1.61653
1.62088
1.62567
1.63058
1.63585
1.64125
1.64685
1.65258
1.65837
1.66433
1.67018
1.67624
1.68205
1.68807
1.69373
1.69955
1.70495
1.71037
1.71527
1.71998
1.72398
1.72742
1.7298
1.73144
1.73198