/*--------------------------------*- C++ -*----------------------------------*\
| =========                 |                                                 |
| \\      /  F ield         | OpenFOAM: The Open Source CFD Toolbox           |
|  \\    /   O peration     | Version:  2412                                  |
|   \\  /    A nd           | Website:  www.openfoam.com                      |
|    \\/     M anipulation  |                                                 |
\*---------------------------------------------------------------------------*/
FoamFile
{
    version     2.0;
    format      ascii;
    arch        "LSB;label=32;scalar=64";
    class       volScalarField;
    location    "8";
    object      p;
}
// * * * * * * * * * * * * * * * * * * * * * * * * * * * * * * * * * * * * * //

dimensions      [1 -1 -2 0 0 0 0];

internalField   nonuniform List<scalar> 
5250
(
1.00001
1.00005
1.00011
1.00034
1.00069
1.00199
1.00393
1.01204
1.0215
1.07775
1.13107
1.50481
2.11024
4.53209
10.1657
11.0768
10.9644
10.9563
11.048
11.2724
11.4841
11.6189
11.7247
11.8085
11.873
1.00001
1.00005
1.00011
1.00033
1.00068
1.00196
1.00385
1.01188
1.02108
1.07693
1.12875
1.49987
2.092
4.49241
10.0756
11.0705
10.9595
10.9493
11.041
11.2651
11.4756
11.6105
11.7177
11.8025
11.8683
1.00001
1.00005
1.00011
1.00032
1.00066
1.0019
1.00373
1.01155
1.02041
1.07493
1.12445
1.48871
2.05342
4.40531
9.87215
11.057
10.9455
10.9249
11.0141
11.2336
11.44
11.5725
11.6784
11.7619
11.827
1.00001
1.00004
1.0001
1.00031
1.00063
1.00181
1.00355
1.01105
1.0194
1.07184
1.11795
1.47126
1.99516
4.26912
9.54755
11.0478
10.9287
10.8834
10.9672
11.1778
11.378
11.5055
11.6075
11.6882
11.7532
1.00001
1.00004
1.0001
1.00029
1.0006
1.00171
1.00334
1.01042
1.01825
1.06768
1.11072
1.44297
1.92345
4.07578
9.08853
11.0518
10.9147
10.8277
10.9035
11.1009
11.2931
11.4133
11.5088
11.5847
11.6504
1.00001
1.00004
1.00009
1.00027
1.00055
1.00159
1.00311
1.00967
1.01697
1.0628
1.10254
1.40869
1.84812
3.81757
8.48196
11.0734
10.9053
10.7569
10.8222
11.0015
11.1818
11.2907
11.3756
11.4435
11.509
1.00001
1.00003
1.00008
1.00025
1.00051
1.00145
1.00286
1.00881
1.0156
1.0569
1.0932
1.3678
1.75809
3.50949
7.71696
11.1236
10.9026
10.671
10.7233
10.8784
11.0418
11.1325
11.1983
11.248
11.307
1
1.00003
1.00008
1.00022
1.00046
1.00131
1.00262
1.00783
1.0144
1.04978
1.08353
1.32148
1.65641
3.165
6.80798
11.1846
10.9032
10.5754
10.6091
10.7276
10.8688
10.9323
10.9667
10.9799
11.0122
1
1.00003
1.00007
1.0002
1.00041
1.00116
1.00235
1.0068
1.01303
1.04243
1.07328
1.27339
1.55156
2.8093
5.7965
11.158
10.8822
10.4813
10.4826
10.5481
10.6581
10.6802
10.6637
10.6011
10.5447
1
1.00002
1.00006
1.00017
1.00035
1.001
1.00202
1.00583
1.01124
1.03609
1.06269
1.23238
1.45338
2.52312
4.98737
10.8802
10.7463
10.4007
10.3123
10.3449
10.4002
10.3765
10.2792
10.0573
9.72882
1
1.00002
1.00006
1.00012
1.00035
1.00071
1.00206
1.00392
1.0127
1.02186
1.08079
1.13836
1.52211
2.17583
4.58496
10.0933
10.4528
10.2785
10.1173
10.1157
10.1035
10.019
9.77418
9.20885
7.7974
1
1.00002
1.00004
1.00013
1.00027
1.00077
1.00156
1.00447
1.00875
1.02724
1.04858
1.17632
1.3181
2.19542
3.85373
9.02709
10.2633
10.1522
9.94023
9.87813
9.80475
9.63287
9.25644
8.50354
7.08176
1
1.00002
1.00004
1.00011
1.00023
1.00066
1.00134
1.00382
1.00753
1.0231
1.04143
1.14946
1.26447
2.0047
3.34017
7.80128
10.1508
10.0454
9.79277
9.64152
9.51235
9.26394
8.8058
8.05637
6.94368
1
1.00001
1.00003
1.0001
1.0002
1.00057
1.00115
1.00325
1.00652
1.01924
1.0361
1.12193
1.2208
1.80803
2.8697
6.50028
10.0795
9.96344
9.65808
9.41247
9.22637
8.94168
8.47512
7.79598
6.91963
1
1.00001
1.00003
1.00008
1.00017
1.00047
1.00096
1.00269
1.00543
1.01559
1.03078
1.09461
1.18397
1.6122
2.42418
5.10791
9.88765
9.82609
9.54782
9.207
8.9697
8.67087
8.23079
7.6236
6.88792
1
1.00001
1.00002
1.00006
1.00013
1.00038
1.00077
1.00217
1.00438
1.01254
1.02474
1.07608
1.14403
1.48751
2.11236
4.31317
9.20521
9.55245
9.37865
9.02253
8.74881
8.44528
8.03517
7.49255
6.85241
1
1.00001
1.00002
1.00005
1.00011
1.00029
1.0006
1.00168
1.00332
1.00994
1.01796
1.06288
1.10481
1.40327
1.83074
3.68328
7.81513
9.24936
9.1538
8.89025
8.57116
8.258
7.87014
7.38192
6.8146
1
1.00001
1.00001
1.00004
1.00008
1.00023
1.00048
1.00133
1.00268
1.00777
1.01476
1.04832
1.08298
1.31028
1.62516
3.04025
6.2497
9.06576
9.0182
8.80612
8.43616
8.10448
7.7358
7.28873
6.78004
1
1
1.00001
1.00003
1.00006
1.00018
1.00036
1.00101
1.00204
1.00581
1.01125
1.03539
1.06206
1.22406
1.43558
2.42554
4.53165
8.71968
8.91627
8.7431
8.36285
7.98628
7.6205
7.20887
6.74855
1
1
1.00001
1.00002
1.00006
1.00012
1.00032
1.00066
1.00185
1.00373
1.0108
1.02069
1.06637
1.12136
1.41635
1.93535
3.72565
7.77332
8.7076
8.59863
8.29824
7.88827
7.51985
7.1357
6.71724
1
1
1.00001
1.00001
1.00004
1.00009
1.00024
1.00049
1.00138
1.00276
1.00803
1.01508
1.04984
1.08562
1.3163
1.64194
3.03844
6.1282
8.42204
8.39583
8.21363
7.82612
7.4397
7.07421
6.68994
1
1
1
1.00001
1.00003
1.00008
1.00015
1.00043
1.00087
1.00246
1.00494
1.01431
1.02794
1.08652
1.1686
1.5451
2.25496
4.44402
7.99412
8.26682
8.13129
7.80034
7.38767
7.02457
6.6668
1
1
1
1.00001
1.00002
1.00005
1.00013
1.00026
1.00072
1.00145
1.00413
1.00801
1.02488
1.04397
1.15639
1.28156
2.00836
3.30385
7.01123
8.09036
8.01053
7.77166
7.36827
6.99323
6.65023
1
1
1
1.00001
1.00001
1.00004
1.00008
1.00021
1.00043
1.0012
1.00233
1.0072
1.01253
1.04508
1.07368
1.27934
1.54688
2.7602
5.3046
7.77831
7.83979
7.70929
7.38315
6.99322
6.64858
1
1
1
1
1.00001
1.00002
1.00007
1.00013
1.00037
1.00076
1.00211
1.00426
1.01216
1.02407
1.07197
1.14296
1.44121
2.00813
3.71445
7.10921
7.72162
7.6336
7.38222
7.00515
6.65531
1
1
1
1
1.00001
1.00002
1.00005
1.00009
1.00026
1.00053
1.00147
1.00297
1.00838
1.01659
1.04967
1.09351
1.30524
1.65957
2.92163
5.71832
7.48191
7.47923
7.35946
7.055
6.67779
1
1
1
1
1
1.00001
1.00003
1.00007
1.00015
1.00042
1.00085
1.00237
1.00477
1.0136
1.0268
1.08048
1.15904
1.49433
2.12376
3.97571
6.98244
7.38847
7.3088
7.09244
6.72964
1
1
1
1
1
1.00001
1.00002
1.00004
1.00012
1.00024
1.00065
1.00131
1.00369
1.00716
1.02199
1.03879
1.13557
1.24144
1.85082
2.88677
5.87369
7.19715
7.19251
7.09113
6.83996
1
1
1
1
1
1.00001
1.00001
1.00003
1.00007
1.00019
1.00038
1.00104
1.00209
1.00591
1.01145
1.03537
1.06243
1.21783
1.41887
2.3209
4.1108
6.73712
7.12312
7.07754
6.9353
1
1
1
1
1
1
1.00001
1.00002
1.00004
1.00012
1.00025
1.00069
1.00139
1.00386
1.00766
1.02249
1.04129
1.13876
1.25006
1.85084
2.87991
5.72969
6.95379
7.04727
7.0028
1
1
1
1
1
1
1.00001
1.00001
1.00003
1.00007
1.00019
1.00038
1.00105
1.00211
1.00592
1.01152
1.03514
1.06262
1.21566
1.41193
2.29237
4.01208
6.51138
7.02452
7.11915
1
1
1
1
1
1
1
1.00001
1.00002
1.00004
1.00012
1.00025
1.00068
1.00139
1.00382
1.00762
1.02207
1.04111
1.13484
1.24525
1.82155
2.80656
5.52815
6.92104
7.35408
1
1
1
1
1
1
1
1.00001
1.00001
1.00003
1.00007
1.00018
1.00037
1.00101
1.00204
1.00569
1.01105
1.03364
1.05988
1.20445
1.38821
2.20667
3.76844
6.58396
7.77285
1
1
1
1
1
1
1
1
1.00001
1.00002
1.00005
1.00011
1.00029
1.00059
1.00161
1.00326
1.00913
1.01815
1.05319
1.10349
1.31887
1.70907
2.93892
5.68408
8.32246
1
1
1
1
1
1
1
1
1.00001
1.00001
1.00004
1.00007
1.0002
1.0004
1.0011
1.00223
1.00623
1.01223
1.03681
1.06621
1.2256
1.43799
2.37927
4.30176
8.84766
1
1
1
1
1
1
1
1
1
1.00001
1.00003
1.00005
1.00015
1.0003
1.00083
1.00169
1.00476
1.00951
1.02826
1.05312
1.1783
1.34198
2.19466
3.87001
8.88324
1
1
1
1
1
1
1
1
1
1.00001
1.00002
1.00005
1.0001
1.00027
1.00055
1.00159
1.00307
1.0098
1.0169
1.06376
1.10515
1.42141
1.89409
3.92016
8.81244
1
1
1
1
1
1
1
1
1
1.00001
1.00001
1.00004
1.00008
1.00024
1.00048
1.0014
1.00264
1.00883
1.0149
1.05821
1.095
1.3924
1.82461
3.79916
8.71115
1
1
1
1
1
1
1
1
1
1.00001
1.00002
1.00003
1.00009
1.00018
1.00053
1.00102
1.00333
1.00567
1.02167
1.03524
1.1429
1.25213
2.02656
3.45621
8.57167
1
1
1
1
1
1
1
1
1
1.00001
1.00001
1.00004
1.00007
1.00021
1.00042
1.00126
1.00234
1.00804
1.01347
1.05323
1.08687
1.35879
1.75164
3.5483
8.1618
1
1
1
1
1
1
1
1
1
1.00001
1.00001
1.00003
1.00007
1.0002
1.0004
1.00118
1.00224
1.00749
1.01268
1.04985
1.08104
1.33558
1.69829
3.38121
7.71688
1
1
1
1
1
1
1
1
1
1.00001
1.00001
1.00003
1.00008
1.00017
1.00049
1.00097
1.00292
1.00544
1.0186
1.03165
1.12243
1.2155
1.85338
3.03829
7.37408
1
1
1
1
1
1
1
1
1
1.00001
1.00001
1.00003
1.00006
1.00018
1.00036
1.00109
1.002
1.00689
1.01142
1.04448
1.0727
1.29343
1.60743
3.03918
6.75235
1
1
1
1
1
1
1
1
1
1.00001
1.00001
1.00003
1.00008
1.00017
1.00048
1.00097
1.00279
1.00561
1.01675
1.03185
1.10734
1.19895
1.7265
2.73321
6.37075
1
1
1
1
1
1
1
1
1
1
1.00001
1.00003
1.00008
1.00016
1.00046
1.00094
1.00269
1.00542
1.01607
1.03087
1.10201
1.19113
1.68589
2.62967
6.01529
1
1
1
1
1
1
1
1
1
1.00001
1.00001
1.00003
1.00006
1.00018
1.00037
1.00105
1.00208
1.00624
1.01143
1.03964
1.06634
1.25543
1.50863
2.70514
5.67401
1
1
1
1
1
1
1
1
1
1.00001
1.00001
1.00003
1.00006
1.00018
1.00037
1.00105
1.00212
1.00613
1.01196
1.0379
1.06705
1.24649
1.49076
2.66371
5.50889
1
1
1
1
1
1
1
1
1
1.00001
1.00001
1.00003
1.00006
1.00017
1.00036
1.00101
1.00203
1.00595
1.01128
1.03742
1.06417
1.2435
1.4768
2.63958
5.40574
1
1
1
1
1
1
1
1
1
1
1.00001
1.00003
1.00007
1.00015
1.00041
1.00084
1.00243
1.0047
1.01497
1.02628
1.09699
1.17033
1.63814
2.4869
5.57814
1
1
1
1
1
1
1
1
1
1.00001
1.00001
1.00003
1.00006
1.00017
1.00035
1.001
1.00201
1.00589
1.01118
1.03703
1.0636
1.24114
1.47102
2.62371
5.33752
3.84798
3.20393
4.14112
4.26175
3.99024
3.87515
3.81818
3.74285
3.64124
3.54305
3.46001
3.38402
3.30308
3.21571
3.15648
3.13093
3.12386
3.12604
3.16264
3.23279
3.33036
3.44607
3.56998
3.69528
3.81812
3.93494
4.04512
4.14846
4.24565
4.33712
4.42309
4.50398
4.58082
4.65157
4.71515
4.77175
4.82157
4.86499
4.90228
4.93529
4.96442
4.98687
5.00158
5.01087
5.01473
5.01432
5.01098
5.00259
4.9885
4.9713
4.95124
4.9284
4.90297
4.87511
4.84503
4.8129
4.77901
4.74335
4.70625
4.66764
4.62785
4.58676
4.54467
4.50149
4.45745
4.41251
4.36685
4.32042
4.27341
4.22576
4.17764
4.129
4.08003
4.03066
3.98108
3.93125
3.88133
3.83131
3.78132
3.73138
3.68158
3.63196
3.58256
3.53345
3.48467
3.43627
3.38828
3.34079
3.29383
3.24749
3.20182
3.15701
3.11313
3.07036
3.02906
2.9897
2.95287
2.91965
2.8915
2.87133
4.69752
4.12406
4.29785
4.19668
3.97068
3.89848
3.86588
3.76982
3.64024
3.52682
3.44318
3.37247
3.29661
3.2236
3.159
3.12712
3.11675
3.1175
3.15392
3.22369
3.32201
3.43893
3.5637
3.68903
3.81203
3.92878
4.03871
4.1415
4.238
4.32866
4.41403
4.49291
4.57024
4.64125
4.70514
4.76195
4.81229
4.85638
4.8946
4.92769
4.95646
4.97903
4.99466
5.00423
5.00848
5.00822
5.00582
4.99881
4.98452
4.96668
4.94674
4.92431
4.89933
4.87169
4.84185
4.80985
4.77609
4.74056
4.70355
4.66505
4.62532
4.58432
4.54228
4.49917
4.45518
4.41029
4.36467
4.3183
4.27132
4.22372
4.17562
4.12703
4.07806
4.02873
3.97915
3.92936
3.87944
3.82946
3.7795
3.7296
3.67986
3.63028
3.58095
3.53189
3.48317
3.43481
3.38688
3.33943
3.29256
3.24622
3.20057
3.15578
3.11199
3.06931
3.02802
2.98848
2.95148
2.91792
2.88931
2.8686
5.46991
4.68663
4.45372
4.22427
4.00189
3.89626
3.82116
3.73354
3.62605
3.52413
3.44874
3.37747
3.29166
3.21517
3.15067
3.11326
3.09935
3.10686
3.14415
3.20939
3.30443
3.42111
3.54648
3.67112
3.79741
3.91442
4.02508
4.12856
4.22592
4.31752
4.40384
4.48464
4.56184
4.63253
4.69646
4.75362
4.80427
4.84853
4.88707
4.92016
4.94837
4.9707
4.98673
4.99659
5.00098
5.00075
4.99885
4.99306
4.98032
4.96151
4.94106
4.91882
4.89413
4.86686
4.83721
4.80543
4.77175
4.73636
4.69941
4.66103
4.62133
4.58043
4.53843
4.4954
4.45143
4.40661
4.36101
4.31469
4.26772
4.22016
4.17207
4.12349
4.07453
4.0252
3.97562
3.92583
3.87593
3.82596
3.77605
3.72619
3.67651
3.62699
3.57774
3.52877
3.48019
3.43194
3.38408
3.33679
3.29009
3.24398
3.19859
3.15382
3.10997
3.0672
3.02581
2.98613
2.94878
2.9147
2.88527
2.86338
5.82616
5.01898
4.5802
4.29302
4.06966
3.92142
3.82705
3.73013
3.6206
3.51645
3.43566
3.35972
3.28008
3.20802
3.15168
3.11745
3.10035
3.10383
3.13337
3.20104
3.29624
3.4104
3.53386
3.65915
3.78267
3.90002
4.01071
4.11463
4.21226
4.3041
4.39018
4.47067
4.54678
4.61708
4.68087
4.73807
4.78881
4.83331
4.87203
4.90516
4.93315
4.95545
4.9719
4.98229
4.98712
4.98697
4.98557
4.98112
4.97083
4.95212
4.93117
4.90876
4.88439
4.85763
4.82849
4.79714
4.76382
4.72871
4.69199
4.6538
4.61426
4.5735
4.53159
4.48869
4.44484
4.40014
4.35464
4.30843
4.26154
4.21407
4.16603
4.11753
4.06859
4.01933
3.96977
3.92005
3.87021
3.82036
3.77056
3.72087
3.67132
3.62201
3.57284
3.52412
3.47574
3.4278
3.38035
3.33325
3.28663
3.24065
3.19533
3.15073
3.10698
3.06428
3.02285
2.98303
2.94534
2.91068
2.88038
2.85704
6.00701
5.25316
4.74329
4.41006
4.16596
3.98345
3.85574
3.74581
3.63365
3.53022
3.44619
3.36817
3.29269
3.22538
3.17338
3.14073
3.12768
3.13217
3.15586
3.21403
3.30475
3.40714
3.5188
3.63789
3.75836
3.87599
3.98792
4.09323
4.192
4.28454
4.37103
4.45173
4.52729
4.59714
4.66081
4.718
4.76886
4.81349
4.85233
4.88554
4.9134
4.93578
4.95259
4.96363
4.96914
4.96908
4.96807
4.96467
4.95657
4.94002
4.91881
4.89602
4.87173
4.84543
4.81686
4.78604
4.75315
4.71842
4.68202
4.64411
4.60482
4.56428
4.5226
4.47989
4.43621
4.39167
4.3463
4.30022
4.25342
4.20604
4.15807
4.10963
4.06074
4.01152
3.96202
3.91237
3.86263
3.81292
3.76333
3.71375
3.66443
3.61533
3.56666
3.51819
3.47008
3.42235
3.37508
3.32822
3.28186
3.23607
3.19096
3.14654
3.10296
3.06034
3.0189
2.97895
2.94095
2.90571
2.87457
2.84977
6.11221
5.4343
4.914
4.54263
4.27396
4.0703
3.91621
3.78747
3.67105
3.56677
3.47742
3.40111
3.33558
3.28252
3.24524
3.22533
3.22257
3.22681
3.24286
3.28071
3.34537
3.42013
3.50847
3.60769
3.71976
3.83963
3.95636
4.06573
4.16696
4.26035
4.34704
4.42756
4.50229
4.57118
4.6342
4.69104
4.74176
4.78644
4.8254
4.85882
4.88694
4.90976
4.92721
4.93914
4.94564
4.94633
4.9456
4.94299
4.93661
4.9232
4.90279
4.88005
4.85583
4.82984
4.8018
4.77159
4.73929
4.70508
4.66911
4.63159
4.59263
4.5524
4.51098
4.46851
4.42504
4.3807
4.3355
4.28958
4.24291
4.19564
4.14775
4.09938
4.05055
4.00142
3.95197
3.90248
3.85286
3.80338
3.75401
3.70496
3.65607
3.60743
3.55904
3.51092
3.4631
3.41564
3.36859
3.32202
3.27594
3.23044
3.18556
3.1414
3.09802
3.05558
3.01421
2.97425
2.93606
2.9004
2.86858
2.84243
6.1826
5.57448
5.06871
4.67946
4.38522
4.16313
3.99016
3.85069
3.73142
3.62772
3.54135
3.47396
3.42778
3.39914
3.38235
3.38161
3.38412
3.38986
3.39968
3.41171
3.42829
3.45624
3.50641
3.57321
3.65723
3.77681
3.90184
4.02131
4.13011
4.22719
4.31497
4.3952
4.46914
4.53735
4.60009
4.65709
4.70833
4.75368
4.79339
4.82744
4.856
4.87937
4.89755
4.91043
4.91803
4.91991
4.91939
4.91741
4.91245
4.90188
4.88334
4.86143
4.83745
4.81168
4.78402
4.75436
4.72268
4.68906
4.65363
4.61657
4.57802
4.53815
4.49704
4.45487
4.41165
4.36754
4.32254
4.27679
4.23027
4.18311
4.13532
4.08703
4.03828
3.98924
3.93987
3.89063
3.84159
3.79258
3.74369
3.69497
3.64644
3.59809
3.54999
3.50215
3.45464
3.40749
3.36077
3.31451
3.26877
3.2236
3.17905
3.13519
3.0921
3.04991
3.00874
2.96887
2.93066
2.89474
2.8625
2.83541
6.22593
5.68083
5.20159
4.80993
4.50093
4.25971
4.07287
3.92338
3.80158
3.70293
3.62991
3.58697
3.5691
3.57108
3.58159
3.608
3.63132
3.63075
3.62442
3.60454
3.56118
3.53158
3.53688
3.56052
3.61654
3.70113
3.82116
3.95077
4.07243
4.17986
4.27391
4.35686
4.43133
4.49905
4.56127
4.61791
4.66938
4.71539
4.75589
4.79062
4.8199
4.84405
4.86307
4.87699
4.88579
4.88915
4.88883
4.88741
4.88368
4.87559
4.85958
4.83907
4.81572
4.79029
4.763
4.73384
4.70275
4.66977
4.63495
4.59845
4.5604
4.52097
4.48026
4.43843
4.39552
4.35168
4.30693
4.26137
4.21502
4.16798
4.12031
4.07213
4.02353
3.97474
3.9261
3.8773
3.82861
3.77998
3.73147
3.68305
3.63483
3.58679
3.53904
3.49157
3.44447
3.39772
3.35142
3.30557
3.26026
3.2155
3.17136
3.1279
3.0852
3.04337
3.00252
2.96292
2.92487
2.88895
2.85657
2.82903
6.25483
5.76331
5.31347
4.92925
4.61441
4.36232
4.16291
4.0078
3.88824
3.80151
3.75418
3.75108
3.75944
3.78846
3.85431
3.92625
3.93932
3.93047
3.89958
3.82806
3.71416
3.62719
3.59051
3.59473
3.61468
3.66472
3.74937
3.8606
3.98602
4.10505
4.21183
4.30449
4.38457
4.45466
4.51726
4.57374
4.62501
4.67114
4.71217
4.74765
4.77794
4.8032
4.82333
4.83848
4.84868
4.85383
4.85377
4.85292
4.8503
4.84421
4.83165
4.81271
4.79041
4.76571
4.73897
4.71034
4.67983
4.6475
4.61334
4.57749
4.54002
4.50113
4.46087
4.41945
4.3769
4.33337
4.28888
4.24353
4.19734
4.15044
4.10283
4.05489
4.0068
3.95858
3.91039
3.8621
3.81382
3.76557
3.71742
3.66939
3.62155
3.57393
3.5266
3.47957
3.43292
3.38664
3.34081
3.29545
3.25061
3.20633
3.16266
3.11969
3.07745
3.03609
2.99569
2.95651
2.91883
2.8832
2.85099
2.82345
6.27292
5.82673
5.40757
5.03714
4.72385
4.46742
4.26332
4.10639
3.99734
3.93718
3.93785
3.95136
3.99355
4.0888
4.23028
4.29311
4.28749
4.26024
4.18963
4.04469
3.88462
3.75991
3.68253
3.65531
3.6591
3.67622
3.71924
3.7957
3.88823
4.00067
4.1164
4.22352
4.31694
4.39652
4.46447
4.52343
4.57545
4.62175
4.66294
4.6991
4.73043
4.75675
4.77828
4.79495
4.80688
4.81384
4.81523
4.81472
4.81287
4.80836
4.79888
4.7822
4.76157
4.73803
4.71209
4.68409
4.65417
4.62246
4.58896
4.55379
4.51696
4.47867
4.43895
4.39801
4.35587
4.31269
4.26849
4.22336
4.17735
4.13061
4.08352
4.03609
3.98853
3.94083
3.89305
3.8452
3.79734
3.7495
3.70177
3.65417
3.60679
3.55964
3.51279
3.46626
3.42011
3.37436
3.32906
3.28423
3.23995
3.19623
3.15314
3.11074
3.0691
3.02834
2.98855
2.94999
2.91294
2.87793
2.84624
2.8193
6.28406
5.87682
5.48774
5.1354
4.83012
4.57659
4.37567
4.22845
4.14365
4.13775
4.15231
4.20021
4.31005
4.51079
4.65499
4.6662
4.64763
4.58698
4.4513
4.24822
4.06508
3.92032
3.81712
3.75451
3.72823
3.73005
3.74128
3.77214
3.83457
3.90562
4.00043
4.11098
4.21777
4.31247
4.39327
4.46117
4.51839
4.56718
4.60935
4.6461
4.67804
4.70539
4.72831
4.74658
4.76017
4.76907
4.77275
4.7725
4.7713
4.76811
4.7612
4.74735
4.72879
4.70676
4.68194
4.65478
4.62555
4.59448
4.56162
4.52709
4.49092
4.45324
4.41411
4.37368
4.33201
4.28921
4.2453
4.20038
4.15468
4.10847
4.06193
4.01509
3.96806
3.92083
3.87351
3.8261
3.77872
3.73136
3.68413
3.63704
3.59019
3.54356
3.49727
3.45129
3.40572
3.36054
3.31585
3.27163
3.22798
3.1849
3.14248
3.10076
3.05985
3.01984
2.98089
2.94322
2.90712
2.87317
2.84245
2.81691
6.29625
5.92038
5.55798
5.22622
4.93567
4.69418
4.50891
4.38799
4.36107
4.3751
4.42412
4.53904
4.7704
4.9845
5.0555
5.04237
4.99266
4.87544
4.65838
4.44144
4.254
4.10122
3.98196
3.89406
3.83551
3.80205
3.79604
3.80093
3.81955
3.86163
3.91464
3.9926
4.09347
4.19612
4.2914
4.37438
4.44387
4.50105
4.54817
4.58754
4.62089
4.64932
4.67334
4.69317
4.70841
4.7193
4.72548
4.72615
4.72554
4.72347
4.71856
4.70835
4.69184
4.67158
4.64824
4.62225
4.59395
4.56365
4.53149
4.49765
4.46216
4.42515
4.38666
4.34683
4.30567
4.26328
4.21965
4.17517
4.1301
4.08454
4.0386
3.99233
3.94582
3.8991
3.85229
3.80541
3.75857
3.71176
3.6651
3.61859
3.57233
3.5263
3.48062
3.43526
3.39033
3.3458
3.30178
3.25826
3.21532
3.17298
3.13134
3.09044
3.05039
3.01134
2.97342
2.93691
2.90211
2.86973
2.8405
2.81711
6.3056
5.95968
5.62512
5.31676
5.04691
4.82897
4.67494
4.61716
4.6285
4.67427
4.78749
5.02081
5.28835
5.42439
5.41926
5.38357
5.28716
5.088
4.84909
4.6343
4.45102
4.29636
4.16664
4.05967
3.97493
3.91141
3.86949
3.84634
3.84737
3.85577
3.87957
3.91946
3.97834
4.06535
4.16155
4.25584
4.34059
4.41243
4.47122
4.51866
4.55702
4.58835
4.61418
4.63538
4.65239
4.66495
4.67315
4.67627
4.67597
4.6747
4.67142
4.66436
4.65064
4.63252
4.61092
4.58637
4.55923
4.52988
4.49852
4.46539
4.43059
4.39425
4.35642
4.31719
4.27654
4.23455
4.19153
4.14772
4.1033
4.05838
4.01305
3.96736
3.92143
3.87529
3.82907
3.78277
3.73653
3.69033
3.6443
3.59842
3.5528
3.50743
3.46242
3.41774
3.37351
3.32971
3.28643
3.24368
3.20155
3.16006
3.11932
3.07939
3.04042
3.00255
2.966
2.93109
2.89812
2.86805
2.8409
2.81983
6.31718
5.99675
5.69164
5.41199
5.1745
4.99558
4.90714
4.91455
4.95465
5.06163
5.28831
5.58328
5.76975
5.78316
5.7566
5.6731
5.49398
5.25561
5.03063
4.83149
4.65629
4.50069
4.3621
4.23967
4.13378
4.0452
3.97487
3.92312
3.88988
3.87695
3.87965
3.89179
3.91793
3.96139
4.03022
4.11722
4.2076
4.2925
4.36686
4.42869
4.47831
4.5174
4.5481
4.5723
4.59135
4.60576
4.61578
4.62153
4.6221
4.62151
4.61951
4.61479
4.605
4.58909
4.5694
4.54655
4.52087
4.49271
4.46234
4.43007
4.39604
4.36042
4.32328
4.28465
4.24451
4.20315
4.16091
4.11788
4.07421
4.02998
3.98532
3.9403
3.89504
3.84956
3.80402
3.75839
3.71283
3.66732
3.62199
3.57681
3.53192
3.48727
3.44301
3.3991
3.35566
3.31266
3.27023
3.22836
3.18716
3.14666
3.107
3.06825
3.03061
2.99428
2.95951
2.92675
2.89635
2.86909
2.84404
2.82714
6.33417
6.03822
5.76385
5.52335
5.33403
5.22632
5.23016
5.26549
5.36745
5.58855
5.89393
6.10047
6.13892
6.1152
6.03756
5.86891
5.6365
5.41445
5.21409
5.0314
4.86243
4.70501
4.55866
4.42407
4.30229
4.1947
4.10221
4.02536
3.96515
3.92311
3.89648
3.89323
3.89764
3.9111
3.94067
3.99171
4.06597
4.1489
4.23209
4.30862
4.37412
4.42706
4.46836
4.49982
4.52353
4.54116
4.55352
4.56151
4.5646
4.56434
4.56318
4.56018
4.55371
4.5408
4.52351
4.50268
4.47872
4.45202
4.4229
4.39167
4.35854
4.32373
4.2873
4.24924
4.20981
4.16931
4.1279
4.08569
4.04282
3.99936
3.95547
3.91119
3.86668
3.82194
3.77714
3.73226
3.68746
3.64269
3.59813
3.55371
3.50961
3.46576
3.42232
3.37924
3.33667
3.29458
3.2531
3.21222
3.1721
3.13276
3.09439
3.05712
3.02116
2.98683
2.95444
2.9247
2.89735
2.8734
2.852
2.84158
6.36889
6.09889
5.86166
5.67403
5.56065
5.56374
5.59956
5.70433
5.92964
6.23561
6.44359
6.48787
6.46479
6.38734
6.21965
5.99485
5.77786
5.58078
5.39908
5.22694
5.06138
4.90216
4.75008
4.60674
4.47351
4.35192
4.24291
4.14754
4.06617
3.9998
3.94826
3.91345
3.89509
3.89593
3.90058
3.91595
3.94979
4.00815
4.08161
4.16191
4.23916
4.30781
4.3649
4.40965
4.44326
4.46772
4.48496
4.49601
4.5021
4.503
4.50244
4.5006
4.4963
4.4874
4.47275
4.45419
4.43225
4.40733
4.37974
4.3498
4.31777
4.28388
4.24818
4.21088
4.17237
4.13279
4.09231
4.051
4.00902
3.96643
3.9234
3.87997
3.83631
3.7924
3.74843
3.70438
3.6604
3.61647
3.57273
3.52918
3.48593
3.44297
3.40043
3.3583
3.31671
3.27564
3.23525
3.19555
3.1567
3.11878
3.08201
3.0466
3.01285
2.98118
2.9521
2.92589
2.90199
2.8833
2.86812
2.86481
6.42656
6.18496
6.00276
5.89522
5.89995
5.94119
6.05879
6.30917
6.61559
6.81355
6.84623
6.81986
6.73358
6.5513
6.32898
6.11838
5.92738
5.75088
5.58094
5.41468
5.25091
5.09027
4.93442
4.78509
4.6439
4.5122
4.39103
4.28122
4.18331
4.09787
4.02561
3.96703
3.92279
3.89454
3.88466
3.88397
3.8887
3.90641
3.94539
4.00985
4.08266
4.15907
4.23056
4.29196
4.34116
4.37837
4.40488
4.42263
4.43298
4.43743
4.43724
4.43621
4.43355
4.42783
4.41643
4.40059
4.38107
4.3583
4.33259
4.30425
4.27358
4.24075
4.20599
4.16972
4.13222
4.09365
4.05417
4.01385
3.97286
3.93125
3.88919
3.84671
3.80398
3.76101
3.71796
3.67482
3.63174
3.58872
3.5459
3.50327
3.46097
3.41899
3.37746
3.33638
3.2959
3.256
3.21687
3.17854
3.14123
3.10506
3.07033
3.03735
3.00653
2.97856
2.95337
2.93113
2.91293
2.90205
2.89615
2.89702
6.5258
6.31478
6.21982
6.22901
6.28224
6.42304
6.71396
7.02969
7.21618
7.22476
7.19055
7.08638
6.87363
6.64627
6.43793
6.25255
6.08224
5.91861
5.75606
5.59318
5.43043
5.26895
5.11086
4.95762
4.81105
4.67215
4.54208
4.42133
4.31073
4.21044
4.12137
4.04374
3.97854
3.92684
3.88903
3.87058
3.85758
3.858
3.8649
3.88593
3.93087
3.99705
4.07001
4.14238
4.20793
4.26246
4.30425
4.33395
4.35334
4.36399
4.36732
4.36692
4.36539
4.3618
4.35434
4.34157
4.32474
4.3044
4.2809
4.2545
4.22547
4.19399
4.16051
4.12547
4.08916
4.05172
4.01335
3.97413
3.93424
3.89372
3.85275
3.81133
3.76965
3.7277
3.68566
3.64352
3.60145
3.55943
3.51762
3.47602
3.43477
3.39387
3.35348
3.3136
3.27438
3.23586
3.19822
3.16158
3.12618
3.09226
3.0602
3.03045
3.00376
2.98004
2.95915
2.94356
2.93371
2.93359
2.93514
2.94099
6.66613
6.53786
6.55082
6.6184
6.79025
7.13881
7.47484
7.64778
7.64141
7.58821
7.44963
7.19892
6.95749
6.74515
6.5611
6.39513
6.2373
6.08073
5.9222
5.76168
5.59995
5.43848
5.27935
5.12388
4.97372
4.8298
4.69318
4.56434
4.44402
4.33245
4.2303
4.13804
4.05602
3.98477
3.92553
3.87991
3.84946
3.83144
3.81889
3.82069
3.83092
3.85655
3.90879
3.9742
4.04582
4.11384
4.17279
4.21977
4.25399
4.27652
4.28858
4.29225
4.29175
4.2899
4.2856
4.2768
4.26296
4.24524
4.22417
4.20002
4.17296
4.14328
4.11153
4.07803
4.04312
4.00698
3.96987
3.93188
3.89322
3.85391
3.81413
3.77388
3.73335
3.69253
3.65161
3.61057
3.56959
3.52869
3.48799
3.44754
3.40746
3.36781
3.32869
3.2902
3.25245
3.21558
3.17975
3.14523
3.11225
3.08129
3.05281
3.02766
3.00562
2.98656
2.97302
2.96772
2.96867
2.97295
2.98418
3.00978
6.89204
6.89942
6.97037
7.1658
7.56623
7.94281
8.10695
8.0906
8.00984
7.82078
7.54019
7.27507
7.05103
6.86237
6.69658
6.54182
6.39018
6.23713
6.08143
5.92221
5.76151
5.60069
5.44125
5.28463
5.13202
4.98451
4.84291
4.70793
4.58003
4.45968
4.34723
4.24289
4.14732
4.06099
3.9846
3.91919
3.86583
3.82635
3.8008
3.77915
3.76973
3.77337
3.7875
3.81951
3.87743
3.94212
4.00981
4.07265
4.12509
4.16488
4.19163
4.20713
4.21194
4.21148
4.20954
4.20487
4.19529
4.18065
4.16212
4.14036
4.11562
4.08817
4.05854
4.02695
3.99375
3.95918
3.92353
3.88697
3.84966
3.8117
3.77321
3.73426
3.69498
3.65542
3.61571
3.57591
3.53614
3.49647
3.45703
3.41787
3.37914
3.34089
3.30327
3.2664
3.23043
3.19556
3.16203
3.13021
3.1005
3.07353
3.05019
3.03
3.01339
3.00184
3.001
3.00289
3.00954
3.02524
3.05603
3.11807
7.17907
7.31803
7.61095
8.06242
8.44427
8.59593
8.56913
8.45814
8.2129
7.89546
7.60478
7.36379
7.16531
6.99489
6.83944
6.68958
6.54002
6.38815
6.23338
6.07562
5.91621
5.75635
5.59707
5.43993
5.28575
5.13569
4.99025
4.85036
4.71626
4.58864
4.46771
4.35417
4.24802
4.14976
4.05972
3.97878
3.90762
3.84756
3.79924
3.76595
3.73752
3.71619
3.71634
3.72191
3.73898
3.77603
3.83457
3.89964
3.9638
4.02084
4.06642
4.09867
4.11799
4.12599
4.12569
4.12396
4.11941
4.10989
4.09468
4.07538
4.05302
4.02819
4.00107
3.97181
3.94072
3.90806
3.87417
3.83923
3.80346
3.76698
3.72992
3.69239
3.65448
3.6163
3.57794
3.53952
3.50112
3.46285
3.42483
3.38716
3.34996
3.31337
3.27753
3.24261
3.20886
3.17652
3.146
3.11778
3.0925
3.07144
3.05315
3.03929
3.03153
3.03234
3.03635
3.0471
3.07011
3.11628
3.1649
3.25245
7.64
8.0755
8.60965
9.01423
9.13124
9.08876
8.93606
8.61683
8.26428
7.94912
7.68947
7.47758
7.29867
7.13864
6.98728
6.83821
6.68823
6.53601
6.38132
6.22408
6.06564
5.90642
5.74732
5.58965
5.43415
5.28194
5.1335
4.98971
4.85084
4.71761
4.5901
4.46891
4.35406
4.24611
4.14521
4.05202
3.96697
3.89096
3.82485
3.76941
3.7279
3.69255
3.66599
3.6491
3.65096
3.65995
3.68222
3.72755
3.78507
3.84819
3.90802
3.95845
3.99653
4.02094
4.03336
4.03443
4.03322
4.02939
4.02093
4.00503
3.98552
3.96333
3.93881
3.91214
3.88353
3.85321
3.82144
3.78844
3.75445
3.71962
3.68416
3.64818
3.61181
3.57515
3.53832
3.50142
3.46458
3.4279
3.39151
3.35556
3.32018
3.28556
3.25188
3.21942
3.18847
3.15947
3.13302
3.1097
3.09119
3.0755
3.06374
3.06122
3.06312
3.06983
3.086
3.11941
3.17078
3.24076
3.30368
3.39879
8.48766
9.20028
9.6655
9.74789
9.67963
9.46702
9.04387
8.64653
8.30646
8.02927
7.80406
7.61478
7.44713
7.29075
7.13886
6.98772
6.8355
6.68167
6.52605
6.36918
6.21033
6.05108
5.89195
5.73377
5.57727
5.4233
5.27248
5.12545
4.98272
4.84473
4.71183
4.5843
4.46246
4.34659
4.23706
4.13401
4.03804
3.94949
3.86924
3.79788
3.73659
3.68674
3.64689
3.61177
3.58579
3.57943
3.58269
3.59433
3.62075
3.67114
3.7283
3.78795
3.8424
3.8861
3.91644
3.93386
3.93874
3.9379
3.93479
3.92749
3.91276
3.89393
3.87203
3.8479
3.82188
3.7942
3.76493
3.73424
3.70235
3.66948
3.63586
3.60164
3.56699
3.53203
3.49691
3.46173
3.42666
3.3918
3.35734
3.3234
3.29022
3.25802
3.22706
3.19775
3.17051
3.14608
3.12527
3.10941
3.0966
3.08832
3.08899
3.09294
3.10373
3.12697
3.17267
3.23328
3.30432
3.38644
3.45306
3.53858
9.75599
10.3987
10.442
10.3341
10.0251
9.50718
9.05192
8.67987
8.38358
8.14615
7.94766
7.77212
7.60875
7.45078
7.29485
7.13915
6.98309
6.82625
6.66856
6.51014
6.35063
6.1909
6.03125
5.8723
5.71472
5.55915
5.40623
5.25648
5.11042
4.96857
4.8311
4.69841
4.57074
4.4484
4.33161
4.22074
4.11605
4.01782
3.92655
3.84262
3.76701
3.7003
3.64373
3.59845
3.55623
3.52423
3.50344
3.50405
3.5092
3.52426
3.55633
3.60754
3.66461
3.72066
3.76892
3.80541
3.82794
3.83872
3.83839
3.83632
3.83078
3.81906
3.80105
3.77969
3.75626
3.7312
3.70454
3.67641
3.64695
3.6164
3.58493
3.55275
3.52006
3.48703
3.45385
3.42063
3.38761
3.35487
3.32268
3.29119
3.26072
3.23156
3.20414
3.179
3.15693
3.13894
3.1263
3.11582
3.11324
3.11531
3.12256
3.13979
3.17508
3.22873
3.29661
3.37512
3.45502
3.53399
3.59089
3.65468
11.1803
11.2901
11.1124
10.6438
10.0052
9.48199
9.06977
8.74879
8.50133
8.29691
8.11521
7.94444
7.77874
7.61514
7.45279
7.29128
7.13041
6.96982
6.80923
6.64859
6.4877
6.32668
6.16596
6.00592
5.84705
5.68992
5.53506
5.38301
5.23407
5.08867
4.94718
4.81009
4.67753
4.54982
4.42707
4.30964
4.19763
4.09142
3.99118
3.89738
3.81043
3.73096
3.65975
3.59756
3.54675
3.49979
3.45995
3.43214
3.42185
3.42353
3.43127
3.4502
3.48926
3.54037
3.59591
3.64725
3.68852
3.71715
3.73322
3.73675
3.73573
3.73211
3.72373
3.70713
3.68733
3.66491
3.6407
3.61511
3.5883
3.56037
3.53139
3.5016
3.47118
3.44038
3.40942
3.3785
3.34783
3.31763
3.28815
3.25969
3.23263
3.20744
3.1847
3.16538
3.15059
3.14115
3.13485
3.13569
3.14033
3.15278
3.17909
3.22689
3.28916
3.36428
3.44623
3.52829
3.60133
3.66344
3.7009
3.74156
12.0379
11.8852
11.3572
10.5642
9.92381
9.46429
9.12044
8.86622
8.66002
8.47477
8.29737
8.1228
7.95002
7.77898
7.60986
7.44237
7.27625
7.11124
6.94693
6.78316
6.61983
6.45669
6.29443
6.13305
5.97284
5.81417
5.65753
5.50326
5.35185
5.20359
5.05886
4.91796
4.78117
4.64879
4.52097
4.398
4.27997
4.16722
4.05981
3.95811
3.86238
3.773
3.69057
3.61553
3.54865
3.49201
3.4407
3.39545
3.36103
3.34069
3.33847
3.34151
3.35189
3.37527
3.4205
3.4717
3.52362
3.569
3.60339
3.62472
3.63469
3.63438
3.63227
3.62648
3.61424
3.59569
3.57422
3.55117
3.527
3.50176
3.47551
3.44841
3.42064
3.39246
3.3641
3.33587
3.308
3.28084
3.25472
3.23011
3.20749
3.18769
3.17126
3.16093
3.15379
3.1534
3.15591
3.16494
3.18451
3.22504
3.28123
3.35224
3.43346
3.5183
3.59921
3.66926
3.72337
3.76217
3.78047
3.80261
12.2736
11.9396
11.1665
10.3678
9.84059
9.49292
9.2341
9.03335
8.84846
8.66566
8.48218