/*--------------------------------*- C++ -*----------------------------------*\
| =========                 |                                                 |
| \\      /  F ield         | OpenFOAM: The Open Source CFD Toolbox           |
|  \\    /   O peration     | Version:  2412                                  |
|   \\  /    A nd           | Website:  www.openfoam.com                      |
|    \\/     M anipulation  |                                                 |
\*---------------------------------------------------------------------------*/
FoamFile
{
    version     2.0;
    format      ascii;
    arch        "LSB;label=32;scalar=64";
    class       surfaceScalarField;
    location    "8";
    object      phi;
}
// * * * * * * * * * * * * * * * * * * * * * * * * * * * * * * * * * * * * * //

dimensions      [1 0 -1 0 0 0 0];

oriented        oriented;

internalField   nonuniform List<scalar> 
10325
(
0.00840003
1.07986e-10
0.00840003
8.38176e-10
0.00840002
2.56563e-09
0.00840002
7.7502e-09
0.0084
1.84802e-08
0.00839994
4.80964e-08
0.00839983
1.14927e-07
0.00839952
2.64817e-07
0.00839884
6.7174e-07
0.00839713
1.48938e-06
0.00839306
3.94141e-06
0.00838189
1.03139e-05
0.00834612
3.48473e-05
0.00821515
0.000127769
0.00760435
0.000601405
0.00696864
0.000635746
0.00634177
0.00062695
0.00570138
0.000640056
0.00503783
0.000663178
0.00433488
0.000702334
0.00357924
0.000754839
0.00276888
0.000809508
0.0019052
0.00086221
0.000984599
0.00091927
0.000983403
0.00840003
2.01248e-10
0.00840003
1.55967e-09
0.00840003
4.80462e-09
0.00840002
1.4459e-08
0.0084
3.43349e-08
0.00839995
9.06559e-08
0.00839986
2.06426e-07
0.00839956
5.30542e-07
0.00839904
1.17823e-06
0.00839707
3.23821e-06
0.00839328
7.61777e-06
0.00838103
2.17282e-05
0.0083435
7.14602e-05
0.00820548
0.00026254
0.00757803
0.00121919
0.00693425
0.0012797
0.00631811
0.00124326
0.0056846
0.00127326
0.00502465
0.00132279
0.00431557
0.00141082
0.00355341
0.00151619
0.00273725
0.00162491
0.00186546
0.00173243
0.000945567
0.00183781
0.00192782
0.00840003
2.93033e-10
0.00840003
2.27307e-09
0.00840003
6.96189e-09
0.00840002
2.10272e-08
0.0084
4.98333e-08
0.00839995
1.32313e-07
0.00839986
3.01709e-07
0.00839957
7.78526e-07
0.00839901
1.73825e-06
0.00839718
4.83703e-06
0.00839335
1.13505e-05
0.00838091
3.32788e-05
0.0083433
0.000108093
0.0082045
0.000397986
0.00756846
0.00184498
0.00691626
0.00193241
0.00631008
0.00184979
0.00568735
0.00189574
0.00503467
0.00197517
0.00432998
0.00211495
0.00356853
0.00227692
0.00274994
0.00244275
0.00187427
0.00260657
0.000947892
0.00276305
0.00287466
0.00840003
3.54811e-10
0.00840003
2.75154e-09
0.00840003
8.45247e-09
0.00840002
2.55076e-08
0.00840001
6.03229e-08
0.00839997
1.61559e-07
0.00839991
3.59898e-07
0.00839968
9.76383e-07
0.00839934
2.07116e-06
0.00839764
6.29433e-06
0.0083955
1.34852e-05
0.00837982
4.78987e-05
0.00835038
0.000136986
0.00821023
0.000534481
0.00758157
0.0024624
0.00693058
0.00258452
0.00633602
0.00244499
0.00572618
0.00250537
0.00508661
0.0026145
0.00438899
0.00281197
0.00363581
0.0030294
0.00281743
0.00326027
0.00192875
0.00349375
0.000980715
0.00371
0.0038544
0.00840003
4.0246e-10
0.00840003
3.12031e-09
0.00840003
9.5912e-09
0.00840002
2.8947e-08
0.00840001
6.8297e-08
0.00839999
1.84246e-07
0.00839994
4.0424e-07
0.00839975
1.13185e-06
0.00839946
2.35284e-06
0.00839821
7.30974e-06
0.00839611
1.55591e-05
0.00838591
5.7078e-05
0.0083686
0.000153463
0.00823473
0.000663747
0.0076654
0.00301913
0.00700785
0.0032438
0.00641542
0.00303853
0.00581574
0.00310491
0.00518818
0.00324165
0.00450841
0.00349136
0.00375761
0.00377999
0.00293987
0.00407757
0.00203857
0.00439336
0.00104879
0.00469865
0.00490227
0.00840003
4.41629e-10
0.00840003
3.42575e-09
0.00840003
1.05084e-08
0.00840002
3.17803e-08
0.00840002
7.47322e-08
0.00839999
2.03863e-07
0.00839995
4.39036e-07
0.00839977
1.28227e-06
0.00839955
2.5656e-06
0.00839811
8.51878e-06
0.00839587
1.77408e-05
0.00838569
6.62015e-05
0.00835998
0.000178232
0.00826551
0.000753637
0.00781814
0.00345218
0.00714379
0.0039208
0.00655086
0.00363305
0.00596096
0.00369487
0.00534884
0.00385395
0.00468592
0.00415384
0.00395133
0.00451351
0.00312416
0.00490416
0.00220052
0.00531632
0.0011548
0.00574298
0.0060562
0.00840003
4.61752e-10
0.00840003
3.57595e-09
0.00840003
1.10302e-08
0.00840003
3.32731e-08
0.00840002
7.80606e-08
0.00840001
2.15257e-07
0.0084
4.45557e-07
0.00839983
1.41012e-06
0.00839987
2.52581e-06
0.00839835
9.79325e-06
0.00839709
1.89865e-05
0.00838913
7.3058e-05
0.00837023
0.000196062
0.00831455
0.000804906
0.00810673
0.00364378
0.00740999
0.00462134
0.00677896
0.00426584
0.00618701
0.00428703
0.00559166
0.00444918
0.00493753
0.0048083
0.00421752
0.00523294
0.00340216
0.00571844
0.00244977
0.0062679
0.00133135
0.00686098
0.00738682
0.00840003
5.07155e-10
0.00840003
3.93289e-09
0.00840003
1.21062e-08
0.00840002
3.65391e-08
0.00840001
8.59227e-08
0.00839999
2.34774e-07
0.00839994
4.9674e-07
0.00839981
1.50432e-06
0.00839956
2.76902e-06
0.00839891
1.02082e-05
0.008398
1.98528e-05
0.00839537
7.45685e-05
0.00839312
0.000197137
0.00840896
0.000784959
0.00861085
0.00342455
0.007891
0.00534552
0.00714858
0.00501066
0.0065449
0.00489095
0.00595912
0.00503462
0.00531192
0.00545512
0.00459079
0.0059542
0.00377444
0.00653373
0.00281911
0.00722198
0.00161107
0.00806819
0.00899731
0.00840003
4.50315e-10
0.00840003
4.33846e-09
0.00840003
1.29563e-08
0.00840002
3.96448e-08
0.00840002
9.23847e-08
0.0084
2.49617e-07
0.00839995
5.4393e-07
0.00839991
1.5122e-06
0.0083997
2.9654e-06
0.00839993
9.76038e-06
0.00840218
1.75289e-05
0.00840746
6.81981e-05
0.00843516
0.000168101
0.00857509
0.000642169
0.00948767
0.00249323
0.00869958
0.00613715
0.00773509
0.00597777
0.00712332
0.00550447
0.00644112
0.00571741
0.00581489
0.00608094
0.00511097
0.00665851
0.00433475
0.00731086
0.00340781
0.00814826
0.00213077
0.00934401
0.0111273
0.00840003
1.38066e-10
0.00840003
5.58453e-09
0.00840003
7.57913e-09
0.00840002
4.78116e-08
0.00840006
5.55637e-08
0.00840001
3.00017e-07
0.00840024
3.10677e-07
0.00839985
1.88179e-06
0.00840143
1.3787e-06
0.00839829
1.27418e-05
0.00840979
6.00501e-06
0.00839162
8.56753e-05
0.00848228
7.6173e-05
0.00857342
0.000549022
0.00938339
0.00167044
0.00910076
0.00641495
0.00846611
0.00661278
0.00771804
0.00625386
0.00705859
0.00637758
0.00642733
0.00671124
0.00578646
0.00729869
0.00509482
0.00800238
0.00422424
0.0090188
0.00298198
0.0105859
0.0141085
0.00840003
7.97962e-10
0.00840003
1.31312e-09
0.00840003
1.22158e-08
0.00840006
1.43567e-08
0.00840003
8.51658e-08
0.00840024
9.07883e-08
0.0084
5.32057e-07
0.00840138
4.85735e-07
0.00839909
3.59599e-06
0.00840922
2.55944e-06
0.00838866
2.61125e-05
0.00845742
1.67482e-05
0.00833508
0.00019671
0.00863201
0.000253026
0.00871393
0.00158013
0.00884111
0.00627316
0.00857993
0.00687182
0.0080371
0.00679627
0.00754589
0.00686892
0.00703425
0.00722298
0.00654759
0.00778432
0.00602161
0.00852721
0.00555433
0.00948503
0.0054913
0.0106481
0.0114162
0.00818286
0.00840003
4.29889e-10
0.00840003
2.41645e-09
0.00840003
8.13831e-09
0.00840002
2.3102e-08
0.00840005
5.78085e-08
0.00839999
1.47037e-07
0.00840017
3.52481e-07
0.00839977
8.66596e-07
0.0084012
2.15319e-06
0.00839833
5.29716e-06
0.00841044
1.39923e-05
0.00838988
3.66054e-05
0.00848223
0.00010404
0.00835099
0.000381957
0.00877553
0.00115022
0.00892833
0.00610453
0.00860251
0.00719598
0.00821452
0.00718362
0.00786354
0.00721995
0.00748821
0.00759878
0.00713381
0.00813891
0.00683377
0.00882677
0.00670031
0.00961726
0.00706809
0.0102786
0.0104839
0.00799834
0.00840003
3.24364e-10
0.00840003
2.52233e-09
0.00840003
7.78125e-09
0.00840003
2.349e-08
0.00840003
5.55396e-08
0.00840003
1.48306e-07
0.00840004
3.31791e-07
0.0084
8.90498e-07
0.00840028
1.86923e-06
0.00839973
5.7319e-06
0.00840281
1.08594e-05
0.00839844
4.0376e-05
0.00841534
8.66896e-05
0.00843035
0.000364788
0.00854028
0.00103565
0.0090582
0.00557088
0.00878692
0.00746729
0.00848564
0.00748501
0.00818557
0.00752003
0.00792191
0.00786219
0.0076786
0.00838231
0.00754817
0.00895693
0.00765406
0.0095103
0.00806711
0.00986366
0.00987304
0.00867533
0.00840003
3.29386e-10
0.00840003
2.54895e-09
0.00840003
7.822e-09
0.00840003
2.35701e-08
0.00840003
5.57916e-08
0.00840003
1.48401e-07
0.00840002
3.3344e-07
0.00840002
8.76994e-07
0.00839998
1.90414e-06
0.00840017
5.45023e-06
0.00840057
1.04673e-05
0.00840158
3.87787e-05
0.00841293
7.52529e-05
0.00843909
0.000336698
0.00857346
0.000898086
0.00953933
0.00458897
0.00920445
0.00780368
0.00880214
0.00788862
0.00852754
0.00779517
0.00834371
0.00804566
0.0082312
0.0084941
0.00822075
0.00896794
0.00835306
0.0093775
0.00868558
0.00952952
0.00940902
0.00914648
0.00840003
3.08064e-10
0.00840003
2.39051e-09
0.00840003
7.35787e-09
0.00840003
2.21764e-08
0.00840003
5.25827e-08
0.00840004
1.39723e-07
0.00840006
3.1486e-07
0.0084001
8.19873e-07
0.00840017
1.82216e-06
0.00840072
4.82283e-06
0.00840046
1.06663e-05
0.00840896
2.98076e-05
0.00841226
7.16045e-05
0.0085131
0.000233801
0.00875108
0.000657405
0.0104607
0.00286062
0.0099121
0.0083545
0.00945971
0.00834337
0.00899569
0.00826062
0.00876444
0.00827662
0.00869203
0.00856511
0.00874764
0.0089113
0.00890495
0.00922028
0.00915166
0.00928232
0.00905583
0.00950255
0.00840003
2.82535e-10
0.00840003
2.19528e-09
0.00840003
6.70693e-09
0.00840003
2.02917e-08
0.00840004
4.80476e-08
0.00840005
1.28291e-07
0.00840007
2.8968e-07
0.00840013
7.48682e-07
0.00840022
1.71984e-06
0.00840083
4.15392e-06
0.008401
1.04462e-05
0.00840706
2.34054e-05
0.00841464
6.35956e-05
0.00847641
0.000170219
0.00859456
0.000541006
0.00941205
0.00203524
0.0100462
0.00771505
0.00980704
0.00858261
0.0093935
0.00867542
0.00917555
0.00849593
0.00910204
0.00863798
0.00915677
0.00885528
0.00933569
0.00903996
0.00954432
0.0090724
0.0088198
0.00977935
0.00840003
2.16645e-10
0.00840003
1.67841e-09
0.00840003
5.21947e-09
0.00840004
1.56226e-08
0.00840005
3.71093e-08
0.00840008
9.74494e-08
0.00840015
2.18984e-07
0.00840032
5.67957e-07
0.00840081
1.22125e-06
0.00840149
3.42487e-06
0.00840512
6.78263e-06
0.00840621
2.20314e-05
0.0084258
4.38509e-05
0.00843851
0.000156171
0.00856594
0.000412615
0.00891373
0.00168332
0.00989149
0.00672245
0.00984078
0.00863029
0.00969518
0.00881951
0.00950913
0.00868179
0.00945213
0.00869468
0.00948675
0.00881974
0.00963585
0.0088893
0.00984255
0.00886384
0.00863594
0.0100244
0.00840003
1.79607e-10
0.00840003
1.47781e-09
0.00840003
4.54427e-09
0.00840003
1.35943e-08
0.00840004
3.22975e-08
0.00840005
8.50334e-08
0.00840008
1.91628e-07
0.00840014
4.95858e-07
0.00840027
1.08952e-06
0.00840072
2.93078e-06
0.0084014
6.07798e-06
0.00840453
1.867e-05
0.00841078
3.75056e-05
0.00843254
0.000133255
0.00849963
0.000344799
0.00879592
0.00137864
0.0102294
0.00527523
0.0101809
0.00867827
0.0100018
0.00899792
0.0097991
0.00888372
0.00976924
0.00872378
0.00981581
0.00877249
0.00991134
0.00879258
0.010066
0.00870714
0.00848436
0.0102157
0.00840003
6.26018e-11
0.00840003
1.48453e-09
0.00840003
2.69516e-09
0.00840003
1.29523e-08
0.00840004
1.98206e-08
0.00840005
8.00443e-08
0.00840012
1.17752e-07
0.00840015
4.6372e-07
0.00840057
6.61922e-07
0.00840074
2.73501e-06
0.00840333
3.45004e-06
0.00840378
1.80014e-05
0.00842369
1.75077e-05
0.00843055
0.000125417
0.00859965
0.000173303
0.00908071
0.000902299
0.0113212
0.00301512
0.0110013
0.00899726
0.0107367
0.00926414
0.010328
0.00929371
0.0101356
0.00891662
0.0101231
0.00878429
0.0101867
0.00872792
0.0102914
0.00860068
0.00836729
0.0104055
0.00840003
1.43667e-10
0.00840003
8.17405e-10
0.00840003
3.05452e-09
0.00840004
7.78939e-09
0.00840003
2.16155e-08
0.00840006
4.90734e-08
0.00840005
1.28717e-07
0.00840023
2.85117e-07
0.00840013
7.40685e-07
0.00840121
1.64095e-06
0.00840032
4.26627e-06
0.00840848
9.59618e-06
0.00840008
2.56947e-05
0.00846285
6.13791e-05
0.0084491
0.000185144
0.00879678
0.000557239
0.00968764
0.00211685
0.0110913
0.00758315
0.0110223
0.00933299
0.0108168
0.00949979
0.0105243
0.00920983
0.0104253
0.00888325
0.0104303
0.00872212
0.0104789
0.00855037
0.00828987
0.0105534
0.00840003
1.70304e-10
0.00840003
4.92484e-10
0.00840003
2.89282e-09
0.00840003
5.04254e-09
0.00840003
2.00107e-08
0.00840005
3.20255e-08
0.00840006
1.18101e-07
0.00840016
1.84391e-07
0.00840021
6.79046e-07
0.00840082
1.02688e-06
0.008401
4.03654e-06
0.00840507
5.4639e-06
0.00840421
2.63271e-05
0.0084331
3.21853e-05
0.00843395
0.000183103
0.00865292
0.000336779
0.00925618
0.00151046
0.0110367
0.00578749
0.0111647
0.00920366
0.011118
0.00954611
0.0108982
0.00942982
0.0107442
0.00903734
0.0107074
0.00875833
0.0107087
0.00854819
0.00827682
0.0107184
0.00840003
6.06977e-11
0.00840003
6.74113e-10
0.00840003
1.53329e-09
0.00840003
6.07503e-09
0.00840004
1.10865e-08
0.00840003
3.80167e-08
0.00840008
6.65015e-08
0.00840004
2.2168e-07
0.00840034
3.83729e-07
0.00840007
1.27909e-06
0.0084019
2.20062e-06
0.00839974
7.53174e-06
0.0084134
1.26284e-05
0.00839748
4.75889e-05
0.00849949
8.07892e-05
0.00847784
0.000356315
0.00917647
0.000809097
0.0117048
0.00324209
0.0117083
0.0091966
0.0115427
0.009711
0.0112833
0.00968885
0.0110326
0.00928756
0.0109411
0.00884949
0.0109338
0.00855422
0.00828518
0.0109243
0.00840003
8.36214e-11
0.00840003
3.22553e-10
0.00840003
1.60559e-09
0.00840003
3.18441e-09
0.00840003
1.12384e-08
0.00840005
2.0247e-08
0.00840005
6.68183e-08
0.00840015
1.17891e-07
0.00840015
3.85661e-07
0.00840076
6.66588e-07
0.00840066
2.27561e-06
0.00840457
3.60695e-06
0.00840287
1.42047e-05
0.00843071
1.96989e-05
0.0084179
9.29059e-05
0.00863128
0.000142517
0.00870917
0.0007291
0.0100165
0.00192947
0.0118623
0.00734187
0.0119065
0.00966486
0.0116922
0.00990129
0.0113537
0.00962412
0.0111964
0.00900492
0.011126
0.00862297
0.00830116
0.0111088
0.00840003
2.76549e-11
0.00840003
3.39125e-10
0.00840003
7.47393e-10
0.00840003
3.03819e-09
0.00840004
5.40332e-09
0.00840004
1.88031e-08
0.00840007
3.19678e-08
0.00840008
1.07882e-07
0.00840029
1.80296e-07
0.00840033
6.18605e-07
0.00840161
9.91889e-07
0.00840145
3.72696e-06
0.00841011
5.54126e-06
0.00840563
2.39433e-05
0.00846324
3.52418e-05
0.00843836
0.000166301
0.00883811
0.000328469
0.0093133
0.00145023
0.0116789
0.00496362
0.0120645
0.00927525
0.0121119
0.00985164
0.0119229
0.00981179
0.0115436
0.00938091
0.0113674
0.0087962
0.0083763
0.0112905
0.00840003
3.45355e-11
0.00840003
1.96657e-10
0.00840003
7.33595e-10
0.00840003
1.87066e-09
0.00840003
5.17769e-09
0.00840004
1.17453e-08
0.00840004
3.06893e-08
0.00840008
6.78291e-08
0.00840008
1.75432e-07
0.00840031
3.86201e-07
0.0084003
9.97664e-07
0.0084018
2.21939e-06
0.00840152
5.77071e-06
0.00841224
1.31881e-05
0.00841171
3.54484e-05
0.00849137
8.64819e-05
0.00855905
0.000259564
0.00925848
0.000748596
0.0114038
0.00281327
0.0123646
0.00830512
0.0123963
0.00981654
0.0122331
0.0099721
0.011904
0.00970795
0.011709
0.00898684
0.00855096
0.0115304
0.00840003
3.70975e-11
0.00840003
1.21245e-10
0.00840003
6.48487e-10
0.00840003
1.22544e-09
0.00840003
4.49638e-09
0.00840004
7.79522e-09
0.00840004
2.6536e-08
0.00840006
4.52043e-08
0.00840008
1.5163e-07
0.00840021
2.5654e-07
0.00840034
8.6369e-07
0.00840111
1.44745e-06
0.00840184
4.99521e-06
0.00840688
8.11082e-06
0.0084115
3.0606e-05
0.00844992
4.78328e-05
0.00850344
0.000204941
0.00881003
0.00044047
0.00990113
0.00171812
0.0121253
0.00606612
0.0124345
0.00950311
0.0125194
0.0098833
0.0124072
0.00981705
0.0120525
0.00933936
0.00875501
0.0118433
0.00840003
1.32736e-11
0.00840003
1.36279e-10
0.00840003
3.27859e-10
0.00840003
1.23223e-09
0.00840003
2.36194e-09
0.00840003
7.67492e-09
0.00840005
1.40989e-08
0.00840005
4.43518e-08
0.00840012
8.07748e-08
0.00840012
2.52649e-07
0.00840052
4.58438e-07
0.00840051
1.44274e-06
0.00840291
2.58435e-06
0.0084025
8.44015e-06
0.00841848
1.45617e-05
0.00841384
5.19651e-05
0.0085272
9.12409e-05
0.00859373
0.000371725
0.00943209
0.000876581
0.0122838
0.00319713
0.0128564
0.00892524
0.0127898
0.00994746
0.0125847
0.0100191
0.0123063
0.0096148
0.0089487
0.0121069
0.00840003
1.60594e-11
0.00840003
6.12752e-11
0.00840003
3.00836e-10
0.00840003
6.08038e-10
0.00840003
2.09594e-09
0.00840003
3.84834e-09
0.00840004
1.23301e-08
0.00840006
2.22159e-08
0.00840007
6.9955e-08
0.0084002
1.2541e-07
0.00840025
3.94662e-07
0.00840099
7.02992e-07
0.00840129
2.26243e-06
0.00840584
3.86894e-06
0.00840646
1.38089e-05
0.00843705
2.12859e-05
0.00843655
9.1003e-05
0.008662
0.000145587
0.00883584
0.000700342
0.0101972
0.00183012
0.0126657
0.00644367
0.0129042
0.00970527
0.0129889
0.00993064
0.0127641
0.00983607
0.00928289
0.0124241
0.00840003
7.58574e-12
0.00840003
5.42471e-11
0.00840003
1.67923e-10
0.00840003
5.0477e-10
0.00840003
1.1926e-09
0.00840003
3.1472e-09
0.00840004
7.04223e-09
0.00840004
1.8056e-08
0.00840007
3.98765e-08
0.00840009
1.0166e-07
0.00840026
2.23484e-07
0.00840039
5.7125e-07
0.00840139
1.25286e-06
0.00840196
3.25877e-06
0.00840867
7.07325e-06
0.00841008
1.96205e-05
0.00845902
4.19549e-05
0.00847404
0.000129287
0.00885081
0.000322467
0.00951006
0.00116583
0.0123977
0.00353937
0.0132122
0.00888429
0.0131643
0.00997406
0.013054
0.00993976
0.009572
0.0127579
0.00840003
3.08144e-12
0.00840003
4.44844e-11
0.00840003
9.94221e-11
0.00840003
3.94369e-10
0.00840003
7.2176e-10
0.00840003
2.43023e-09
0.00840003
4.28642e-09
0.00840004
1.38956e-08
0.00840005
2.43298e-08
0.00840008
7.81743e-08
0.00840016
1.36407e-07
0.00840029
4.3904e-07
0.00840078
7.60299e-07
0.00840151
2.49642e-06
0.00840442
4.14248e-06
0.00840883
1.50639e-05
0.00842877
2.18846e-05
0.00845746
9.97798e-05
0.00862582
0.000153398
0.00904336
0.000745284
0.0105985
0.00197772
0.012971
0.00649736
0.013257
0.00968075
0.0132961
0.0098874
0.00970805
0.013145
0.00840003
3.88649e-12
0.00840003
2.23544e-11
0.00840003
8.27507e-11
0.00840003
2.13069e-10
0.00840003
5.82796e-10
0.00840003
1.33153e-09
0.00840003
3.42507e-09
0.00840004
7.62664e-09
0.00840004
1.93374e-08
0.00840008
4.27917e-08
0.00840011
1.08176e-07
0.0084003
2.38745e-07
0.00840045
6.0517e-07
0.00840161
1.33187e-06
0.00840226
3.43971e-06
0.00840983
7.46115e-06
0.00841089
2.05393e-05
0.0084665
4.40196e-05
0.00848425
0.000134222
0.00889621
0.000332044
0.00966556
0.00120297
0.0126048
0.00354006
0.0134867
0.00878628
0.0133715
0.00998732
0.0097419
0.0133087
0.00840003
3.54345e-12
0.00840003
1.25589e-11
0.00840003
6.30327e-11
0.00840003
1.25609e-10
0.00840003
4.35525e-10
0.00840003
7.92912e-10
0.00840003
2.54639e-09
0.00840003
4.55489e-09
0.00840004
1.43549e-08
0.00840006
2.55937e-08
0.00840008
8.02911e-08
0.00840018
1.42869e-07
0.00840033
4.49022e-07
0.00840086
7.94086e-07
0.00840173
2.53818e-06
0.00840482
4.33204e-06
0.00841007
1.51102e-05
0.00843079
2.30293e-05
0.00846575
9.83126e-05
0.00863746
0.000158839
0.00910084
0.000734663
0.0106701
0.00196253
0.0132423
0.00618658
0.013625
0.00957677
0.00967139
0.013654
0.00840003
1.09017e-12
0.00840003
1.16214e-11
0.00840003
2.79757e-11
0.00840003
1.04722e-10
0.00840003
2.00919e-10
0.00840003
6.4536e-10
0.00840003
1.18401e-09
0.00840003
3.66842e-09
0.00840004
6.66377e-09
0.00840005
2.04602e-08
0.00840009
3.70455e-08
0.00840012
1.13575e-07
0.00840036
2.04845e-07
0.00840051
6.30674e-07
0.00840191
1.12924e-06
0.00840261
3.55412e-06
0.00841145
6.20669e-06
0.00841281
2.11688e-05
0.00847545
3.54747e-05
0.00849234
0.00013878
0.00895297
0.000272547
0.00981431
0.00108595
0.0127735
0.00319715
0.0138989
0.00841153
0.00934752
0.014135
0.00840003
9.54143e-13
0.00840003
5.77337e-12
0.00840003
2.10951e-11
0.00840003
5.46271e-11
0.00840003
1.48298e-10
0.00840003
3.39596e-10
0.00840003
8.66821e-10
0.00840003
1.93063e-09
0.00840003
4.85491e-09
0.00840004
1.07334e-08
0.00840005
2.69135e-08
0.00840011
5.93348e-08
0.00840015
1.48964e-07
0.00840045
3.28058e-07
0.0084007
8.26368e-07
0.00840238
1.82544e-06
0.0084037
4.61662e-06
0.00841415
1.04267e-05
0.00842214
2.65606e-05
0.00849188
6.41399e-05
0.00858197
0.000178177
0.00912849
0.00052085
0.0105355
0.00179988
0.013666
0.00517559
0.00835865
0.0144367
0.00840003
6.60418e-13
0.00840003
3.5383e-12
0.00840003
1.30124e-11
0.00840003
3.36794e-11
0.00840003
9.07366e-11
0.00840003
2.08865e-10
0.00840003
5.27087e-10
0.00840003
1.18111e-09
0.00840003
2.9311e-09
0.00840004
6.52174e-09
0.00840005
1.60825e-08
0.00840007
3.56553e-08
0.00840013
8.76609e-08
0.00840026
1.93321e-07
0.00840057
4.76619e-07
0.00840131
1.04097e-06
0.00840308
2.61858e-06
0.00840775
5.5636e-06
0.00841669
1.50335e-05
0.0084575
3.05495e-05
0.00852984
9.1681e-05
0.00886446
0.000223443
0.0097318
0.000775818
0.0126019
0.00228871
0.00627006
0.014345
0.00840003
5.90705e-13
0.00840003
1.50674e-12
0.00840003
9.53963e-12
0.00840003
1.57543e-11
0.00840003
6.52659e-11
0.00840003
9.91195e-11
0.00840003
3.78659e-10
0.00840003
5.59936e-10
0.00840003
2.11699e-09
0.00840003
3.07756e-09
0.00840004
1.17364e-08
0.00840006
1.67436e-08
0.00840007
6.5014e-08
0.00840017
9.00368e-08
0.00840023
3.6167e-07
0.00840076
4.64145e-07
0.00840097
2.08305e-06
0.00840414
2.0483e-06
0.00840441
1.27e-05
0.0084255
6.86784e-06
0.00842847
7.7933e-05
0.00859797
3.90466e-05
0.00886236
0.000457007
0.0101516
0.000878093
0.00351049
0.0124981
0.00840003
1.75675e-13
0.00840003
1.24206e-12
0.00840003
3.8889e-12
0.00840003
1.15114e-11
0.00840003
2.72966e-11
0.00840003
7.05154e-11
0.00840003
1.57737e-10
0.00840003
3.94162e-10
0.00840003
8.70001e-10
0.00840003
2.1531e-09
0.00840004
4.74498e-09
0.00840004
1.16848e-08
0.00840008
2.58165e-08
0.00840008
6.30344e-08
0.00840028
1.40331e-07
0.00840028
3.34248e-07
0.00840146
7.56799e-07
0.00840084
1.76741e-06
0.00840894
3.8052e-06
0.00840017
9.53357e-06
0.00845242
2.00182e-05
0.00840234
5.70383e-05
0.00868251
0.000144166
0.00893859
0.000483672
0.00180816
0.0101515
0.00840003
3.30907e-15
0.00840003
1.02721e-12
0.00840003
1.13418e-12
0.00840003
8.57272e-12
0.00840003
8.32435e-12
0.00840003
5.14366e-11
0.00840003
4.7161e-11
0.00840003
2.8708e-10
0.00840003
2.50223e-10
0.00840003
1.58142e-09
0.00840003
1.3048e-09
0.00840003
8.76616e-09
0.00840005
6.71391e-09
0.00840005
4.96199e-08
0.00840013
3.14527e-08
0.00840004
3.0848e-07
0.00840064
7.21926e-08
0.00839941
2.15041e-06
0.00840326
-7.19009e-07
0.00839302
1.45798e-05
0.0084139
-7.27914e-06
0.00834224
0.000100504
0.00844122
7.28632e-06
0.00830367
0.000456245
0.00122226
0.00839008
0.00840003
1.54729e-13
0.00840003
1.11889e-13
0.00840003
2.07017e-12
0.00840003
1.41632e-12
0.00840003
1.40027e-11
0.00840003
9.11472e-12
0.00840003
8.17887e-11
0.00840003
5.07602e-11
0.00840003
4.61879e-10
0.00840003
2.69681e-10
0.00840003
2.58912e-09
0.00840004
1.38067e-09
0.00840003
1.45822e-08
0.00840007
6.57969e-09
0.00839999
8.74142e-08
0.00840029
8.22949e-09
0.00839944
6.34507e-07
0.00840185
-2.82995e-07
0.00839462
4.7506e-06
0.00841003
-2.93484e-06
0.00835802
3.27871e-05
0.00845822
-1.62336e-05
0.00822025
0.00020149
0.00835257
0.000186562
0.0015937
0.00752971
0.00840003
3.12767e-14
0.00840003
2.25326e-13
0.00840003
6.97433e-13
0.00840003
2.06315e-12
0.00840003
4.89418e-12
0.00840003
1.28151e-11
0.00840003
2.88754e-11
0.00840003
7.36232e-11
0.00840003
1.64414e-10
0.00840003
4.16064e-10
0.00840003
9.27138e-10
0.00840003
2.33747e-09
0.00840003
5.18911e-09
0.00840001
1.32595e-08
0.00840005
2.86327e-08
0.00839987
7.84554e-08
0.00840027
1.58223e-07
0.00839868
5.0354e-07
0.0084017
1.14642e-06
0.0083901
3.67668e-06
0.00840839
8.61571e-06
0.00833464
3.05994e-05
0.00841282
8.71013e-05
0.00806757
0.000374039
0.00169312
0.007502
0.00840003
-6.9804e-14
0.00840003
4.06498e-13
0.00840003
-1.99972e-13
0.00840003
3.07934e-12
0.00840003
-1.01042e-12
0.00840003
1.83269e-11
0.00840003
-6.30012e-12
0.00840003
1.04326e-10
0.00840003
-4.09203e-11
0.00840003
5.93472e-10
0.00840003
-2.62444e-10
0.00840003
3.42346e-09
0.00840003
-1.67624e-09
0.00840001
2.03572e-08
0.00840004
-1.13449e-08
0.00839988
1.37101e-07
0.0084001
-1.27134e-07
0.00839867
1.20947e-06
0.00840078
-1.51461e-06
0.00838914
1.05685e-05
0.00840201
-9.49045e-06
0.00832761
7.86607e-05
0.00836428
1.51e-05
0.00812235
0.000450297
0.0015255
0.00782243
0.00840003
5.7543e-14
0.00840003
-2.3691e-14
0.00840003
7.57142e-13
0.00840003
6.06544e-14
0.00840003
5.10777e-12
0.00840003
8.28595e-13
0.00840003
3.08464e-11
0.00840003
6.79773e-12
0.00840003
1.83931e-10
0.00840003
5.1602e-11
0.00840003
1.10764e-09
0.00840003
3.78536e-10
0.00840002
6.79847e-09
0.00840003
2.46192e-09
0.00839996
4.41675e-08
0.00840005
7.38459e-09
0.00839942
3.31224e-07
0.00840073
-1.00727e-07
0.00839511
2.56844e-06
0.00840566
-8.18441e-07
0.00836816
1.95239e-05
0.00842766
2.76717e-06
0.00824717
0.00015348
0.00833182
0.000228808
0.00172997
0.00770359
0.00840003
-9.35054e-14
0.00840003
1.96017e-13
0.00840003
-8.51784e-13
0.00840003
1.25433e-12
0.00840003
-5.46256e-12
0.00840003
7.03632e-12
0.00840003
-3.28038e-11
0.00840003
3.78334e-11
0.00840003
-1.97155e-10
0.00840003
1.97128e-10
0.00840003
-1.19909e-09
0.00840003
9.98238e-10
0.00840004
-7.40034e-09
0.00840003
5.34105e-09
0.00840012
-4.71173e-08
0.00840003
4.29715e-08
0.00840067
-3.13624e-07
0.00839961
4.73802e-07
0.00840373
-1.80328e-06
0.00839387
5.56891e-06
0.00841779
-9.24027e-06
0.00834454
5.13541e-05
0.00845351
5.14804e-06
0.00822941
0.00032895
0.00111545
0.00838539
0.00840003
6.6934e-15
0.00840003
2.90852e-14
0.00840003
1.1086e-13
0.00840003
2.65107e-13
0.00840003
8.14347e-13
0.00840003
1.82868e-12
0.00840003
5.36504e-12
0.00840003
1.1877e-11
0.00840003
3.413e-11
0.00840003
7.53779e-11
0.00840003
2.1297e-10
0.00840003
4.76571e-10
0.00840002
1.32292e-09
0.00840001
3.19925e-09
0.00839994
7.96866e-09
0.00839994
2.59154e-08
0.00839945
4.4731e-08
0.00839959
2.0041e-07
0.00839638
4.94432e-07
0.00840006
1.38928e-06
0.00837848
5.2845e-06
0.00841031
1.24969e-05
0.00831948
5.72031e-05
0.00838318
0.000160497
0.000856418
0.00827589
0.00840003
1.32928e-13
0.00840003
-2.79958e-13
0.00840003
1.1873e-12
0.00840003
-1.67003e-12
0.00840003
7.8123e-12
0.00840003
-8.87506e-12
0.00840003
4.75492e-11
0.00840003
-4.57981e-11
0.00840003
2.87106e-10
0.00840003
-2.28485e-10
0.00840003
1.74204e-09
0.00840003
-1.08535e-09
0.00840002
1.06869e-08
0.00840002
-4.8266e-09
0.00839995
6.66784e-08
0.00839998
-2.17357e-08
0.00839949
4.35038e-07
0.00839977
-2.00797e-07
0.00839634
3.24248e-06
0.00840044
-3.38026e-06
0.00837583
2.52554e-05
0.00840965
-2.74468e-05
0.0082927
0.000148705
0.00834321
6.29036e-05
0.000754748
0.00824318
0.00840003
3.33218e-14
0.00840003
-2.88711e-14
0.00840003
3.32799e-13
0.00840003
-5.28415e-14
0.00840003
2.28064e-12
0.00840003
1.6214e-13
0.00840003
1.39654e-11
0.00840003
2.5317e-12
0.00840003
8.34535e-11
0.00840003
2.18526e-11
0.00840003
4.94697e-10
0.00840003
1.86234e-10
0.00840004
2.92027e-09
0.00840003
1.28517e-09
0.00840007
1.73163e-08
0.00840002
9.59709e-09
0.00840032
1.00998e-07
0.00839983
8.96956e-08
0.00840239
6.58199e-07
0.00839722
3.15747e-07
0.00841546
5.93824e-06
0.00838019
-1.3808e-07
0.0084668
4.40811e-05
0.00841197
9.00814e-05
0.000428785
0.0085496
0.00840003
-1.46529e-14
0.00840003
1.6782e-13
0.00840003
1.49056e-13
0.00840003
1.37062e-12
0.00840003
1.33293e-12
0.00840003
8.40753e-12
0.00840003
8.42685e-12
0.00840003
4.93045e-11
0.00840003
5.05333e-11
0.00840003
2.86843e-10
0.00840003
2.97533e-10
0.00840003
1.66379e-09
0.00840003
1.7014e-09
0.00840002
9.61659e-09
0.00840002
9.04758e-09
0.00839994
5.53883e-08
0.00839999
3.01817e-08
0.00839957
3.30037e-07
0.00840006
-4.25978e-08
0.00839684
2.23839e-06
0.00840394
-2.18267e-06
0.00838242
1.46214e-05
0.00841612
-4.78347e-06
0.00841213
6.60338e-05
0.000234405
0.00844991
0.00840003
-6.68991e-14
0.00840003
3.34621e-13
0.00840003
-3.04175e-13
0.00840003
2.46199e-12
0.00840003
-1.60412e-12
0.00840003
1.47385e-11
0.00840003
-8.87304e-12
0.00840003
8.52694e-11
0.00840003
-4.98693e-11
0.00840003
4.91189e-10
0.00840003
-2.83322e-10
0.00840003
2.83547e-09
0.00840003
-1.66815e-09
0.00840002
1.64782e-08
0.00840004
-1.08315e-08
0.00839998
9.73925e-08
0.00840007
-9.2801e-08
0.00839959
6.58437e-07
0.0084007
-1.17093e-06
0.00839632
5.36675e-06
0.00840603
-1.2375e-05
0.00837908
3.58827e-05
0.00842169
-6.30428e-05
0.00836902
9.51344e-05
2.75535e-05
0.00843129
0.00840003
7.87554e-14
0.00840003
-2.41637e-13
0.00840003
6.21901e-13
0.00840003
-1.6028e-12
0.00840003
3.92379e-12
0.00840003
-9.33114e-12
0.00840003
2.28825e-11
0.00840003
-5.36192e-11
0.00840003
1.31529e-10
0.00840003
-3.08796e-10
0.00840003
7.55489e-10
0.00840003
-1.79094e-09
0.00840003
4.37886e-09
0.00840005
-1.05339e-08
0.0084
2.61424e-08
0.00840015
-6.39887e-08
0.00839981
1.77286e-07
0.00840086
-4.76781e-07
0.00839755
1.64128e-06
0.00840684
-4.38655e-06
0.00837646
1.48004e-05
0.00843867
-2.9887e-05
0.00827684
8.20393e-05
0.00840748
-4.24633e-05
0.000230995
0.00806862
0.00840003
0.00840003
0.00840003
0.00840003
0.00840003
0.00840003
0.00840003
0.00840003
0.00840003
0.00840003
0.00840003
0.00840003
0.00840003
0.00840002
0.00840004
0.00839995
0.00840011
0.00839947
0.00840109
0.00839545
0.00840968
0.00837421
0.0084409
0.00837672
0.00846928
0.00381904
0.00436131
0.00158677
0.00222379
-0.000545757
0.00212723
-0.00160228
0.00105947
-0.00223693
0.000635312
-0.00260524
0.000369881
-0.00273297
0.000129448
-0.00284968
0.000119046
-0.00300906
0.000161734
-0.00315821
0.000151272
-0.00327341
0.000116759
-0.00336263
9.0192e-05
-0.00343313
7.15779e-05
-0.00347868
4.66177e-05
-0.00353121
5.05743e-05
-0.00358443
4.97819e-05
-0.00361896
3.09161e-05
-0.00362601
4.22109e-07
-0.0036105
-2.33097e-05
-0.00356781
-5.25986e-05
-0.00349329
-8.51865e-05
-0.00338834
-0.000116067
-0.00325928
-0.000139884
-0.00311266
-0.000156687
-0.00295217
-0.00017054
-0.00278192
-0.000178768
-0.00260551
-0.000184017
-0.00242456
-0.000188248
-0.00223743
-0.000192852
-0.00204533
-0.000197637
-0.00184706
-0.00020369
-0.00164421
-0.000208182
-0.00142872
-0.00021953
-0.0012102
-0.000222738
-0.000990013
-0.000224109
-0.000769459
-0.000224318
-0.000547869
-0.000225027
-0.000325156
-0.000225791
-9.75508e-05
-0.000230182
0.000135272
-0.000235414
0.000360987
-0.000228087
0.000575424
-0.000216219
0.000784223
-0.000210153
0.000985537
-0.000202404
0.00118031
-0.000195464
0.00136649
-0.00018679
0.00154655
-0.00018033
0.00172397
-0.000176921
0.0018996
-0.000174331
0.00206863
-0.000167664
0.00223049
-0.000160142
0.00238555
-0.000152881
0.00253465
-0.000146335
0.00267785
-0.000139878
0.00281601