/*--------------------------------*- C++ -*----------------------------------*\
| =========                 |                                                 |
| \\      /  F ield         | OpenFOAM: The Open Source CFD Toolbox           |
|  \\    /   O peration     | Version:  2412                                  |
|   \\  /    A nd           | Website:  www.openfoam.com                      |
|    \\/     M anipulation  |                                                 |
\*---------------------------------------------------------------------------*/
FoamFile
{
    version     2.0;
    format      ascii;
    arch        "LSB;label=32;scalar=64";
    class       volScalarField;
    location    "8";
    object      T;
}
// * * * * * * * * * * * * * * * * * * * * * * * * * * * * * * * * * * * * * //

dimensions      [0 0 0 1 0 0 0];

internalField   nonuniform List<scalar> 
5250
(
1.00001
1.00002
1.00008
1.00015
1.00048
1.00088
1.00261
1.00539
1.01403
1.03674
1.08272
1.25185
1.6205
2.42923
2.70992
2.72842
2.72785
2.73248
2.7459
2.75846
2.77105
2.77859
2.78581
2.7913
2.7949
1.00001
1.00002
1.00008
1.00015
1.00047
1.00086
1.00255
1.00533
1.01376
1.03637
1.0816
1.24973
1.61089
2.42084
2.70704
2.72858
2.72789
2.7323
2.74554
2.75781
2.77015
2.77744
2.7843
2.78936
2.79243
1.00001
1.00002
1.00008
1.00014
1.00045
1.00084
1.00247
1.00518
1.01333
1.0354
1.07925
1.24466
1.58999
2.40137
2.69928
2.72772
2.72686
2.73066
2.74376
2.75586
2.76788
2.77492
2.78204
2.78623
2.78829
1.00001
1.00002
1.00007
1.00013
1.00043
1.0008
1.00234
1.00496
1.01266
1.03392
1.07557
1.23666
1.55828
2.36883
2.68618
2.72582
2.72453
2.72688
2.7402
2.75061
2.76382
2.77005
2.77653
2.78185
2.78394
1.00001
1.00002
1.00007
1.00013
1.00041
1.00075
1.0022
1.00468
1.0119
1.03195
1.07091
1.22304
1.51426
2.32048
2.66701
2.72356
2.72174
2.72205
2.73488
2.74551
2.75554
2.76413
2.7698
2.77268
2.774
1.00001
1.00002
1.00006
1.00012
1.00038
1.0007
1.00205
1.00434
1.01108
1.02957
1.06602
1.20568
1.47344
2.2562
2.64024
2.72003
2.71697
2.71543
2.7271
2.73785
2.74719
2.75151
2.76071
2.76418
2.76504
1.00001
1.00002
1.00006
1.00011
1.00035
1.00064
1.00189
1.00394
1.01019
1.02667
1.06022
1.18473
1.42416
2.16506
2.60471
2.7144
2.71068
2.70557
2.71748
2.72685
2.73907
2.74149
2.74344
2.74806
2.74625
1.00001
1.00002
1.00005
1.0001
1.00032
1.00058
1.00176
1.00349
1.00937
1.0231
1.0537
1.1606
1.36835
2.04098
2.55752
2.70512
2.70159
2.6925
2.70476
2.70905
2.71891
2.7272
2.72876
2.72692
2.72419
1.00001
1.00001
1.00005
1.00009
1.00028
1.00051
1.00159
1.00303
1.00843
1.01945
1.04684
1.13561
1.30966
1.90373
2.48692
2.68089
2.68052
2.67688
2.69234
2.69744
2.70141
2.70226
2.70231
2.69784
2.67697
1.00001
1.00001
1.00004
1.00008
1.00024
1.00044
1.00135
1.0026
1.00722
1.01652
1.04036
1.11458
1.26306
1.70536
2.48867
2.65866
2.64791
2.64617
2.66075
2.67298
2.67976
2.67833
2.6693
2.64869
2.60224
1
1.00001
1.00003
1.00008
1.00015
1.00047
1.00092
1.0025
1.00583
1.014
1.03905
1.08503
1.2598
1.66906
2.41178
2.64362
2.63998
2.63777
2.63757
2.6478
2.64972
2.64686
2.62856
2.58089
2.42146
1
1.00001
1.00003
1.00006
1.00018
1.00034
1.00104
1.00199
1.00566
1.01239
1.03123
1.08602
1.18996
1.57817
2.36297
2.59083
2.6261
2.62014
2.61946
2.62329
2.62257
2.6116
2.58228
2.52319
2.36208
1
1.00001
1.00003
1.00005
1.00016
1.00029
1.00091
1.00169
1.00497
1.01038
1.02684
1.07204
1.15976
1.49267
2.24439
2.54201
2.62115
2.61214
2.59863
2.59673
2.59235
2.57939
2.5454
2.49206
2.36586
1
1.00001
1.00002
1.00004
1.00014
1.00025
1.00079
1.00143
1.00438
1.0086
1.02337
1.05784
1.13408
1.39365
2.05808
2.46723
2.60887
2.59925
2.58919
2.57149
2.56061
2.53965
2.5078
2.46587
2.3736
1
1.00001
1.00002
1.00004
1.00011
1.00021
1.00065
1.00118
1.00366
1.00693
1.01994
1.04382
1.11146
1.29115
1.84777
2.36732
2.57273
2.56549
2.56375
2.55556
2.53855
2.51751
2.47118
2.43956
2.37234
1
1
1.00002
1.00003
1.00009
1.00017
1.00053
1.00095
1.00296
1.00555
1.01608
1.03521
1.0875
1.23525
1.63678
2.30967
2.54674
2.54362
2.53511
2.524
2.51313
2.4956
2.45446
2.40578
2.36257
1
1
1.00001
1.00002
1.00007
1.00013
1.0004
1.00074
1.00219
1.00444
1.01158
1.0293
1.06682
1.20099
1.46616
2.16804
2.49147
2.53218
2.51579
2.50601
2.48429
2.47141
2.44491
2.39294
2.34372
1
1
1.00001
1.00002
1.00006
1.0001
1.00032
1.00058
1.0018
1.00345
1.00951
1.02218
1.05283
1.15394
1.3519
1.96256
2.39701
2.51361
2.50511
2.49309
2.46903
2.43951
2.42072
2.38449
2.33448
1
1
1.00001
1.00001
1.00004
1.00008
1.00024
1.00044
1.00136
1.00258
1.00722
1.01612
1.03946
1.11023
1.24772
1.69393
2.24758
2.46461
2.47412
2.46987
2.45676
2.42737
2.39936
2.36704
2.32422
1
1
1
1.00001
1.00002
1.00008
1.00014
1.00044
1.00082
1.00246
1.00484
1.01315
1.03111
1.07385
1.20304
1.52805
2.14912
2.42269
2.44752
2.43749
2.42888
2.40988
2.38309
2.35641
2.3194
1
1
1
1.00001
1.00002
1.00006
1.00011
1.00033
1.0006
1.00182
1.00358
1.00965
1.02303
1.05426
1.15654
1.36652
1.91793
2.33093
2.42934
2.42502
2.40973
2.38804
2.36075
2.33186
2.30744
1
1
1
1.00001
1.00002
1.00003
1.0001
1.00019
1.00058
1.00109
1.00322
1.00646
1.01756
1.04061
1.10144
1.25872
1.76397
2.16077
2.36516
2.39804
2.39376
2.37936
2.35308
2.32081
2.28826
1
1
1
1.00001
1.00001
1.00003
1.00006
1.00017
1.00032
1.00095
1.00185
1.00504
1.01138
1.02768
1.07654
1.16425
1.49549
2.12612
2.30372
2.34424
2.34966
2.3483
2.33883
2.31627
2.28243
1
1
1
1
1.00001
1.00002
1.00005
1.00009
1.00028
1.00054
1.00147
1.00326
1.00795
1.02119
1.04714
1.13939
1.30933
1.83877
2.23977
2.3314
2.32828
2.31761
2.30687
2.29944
2.27807
1
1
1
1
1.00001
1.00002
1.00003
1.00009
1.00016
1.0005
1.00094
1.00278
1.00547
1.01514
1.03339
1.08542
1.20863
1.60482
2.07091
2.29867
2.30859
2.30159
2.28446
2.26465
2.25753
1
1
1
1
1
1.00001
1.00002
1.00006
1.00011
1.00035
1.00064
1.00197
1.00371
1.01066
1.02282
1.05681
1.1474
1.37257
1.85872
2.21368
2.29188
2.28907
2.27796
2.25505
2.23131
1
1
1
1
1
1.00001
1.00002
1.00003
1.0001
1.00019
1.00056
1.00105
1.00308
1.00612
1.01666
1.03751
1.09439
1.23385
1.679
2.04565
2.23293
2.26324
2.26301
2.25152
2.22926
1
1
1
1
1
1
1.00001
1.00003
1.00005
1.00015
1.00029
1.00085
1.00165
1.00447
1.01002
1.0241
1.06606
1.13907
1.42321
1.95971
2.17317
2.22103
2.23099
2.22998
2.2239
1
1
1
1
1
1
1.00001
1.00001
1.00004
1.00008
1.00025
1.00046
1.00136
1.00264
1.00716
1.01616
1.03896
1.10666
1.23711
1.65678
2.05492
2.20131
2.20644
2.21247
2.21071
1
1
1
1
1
1
1.00001
1.00001
1.00003
1.00005
1.00017
1.0003
1.00092
1.0017
1.00496
1.01006
1.02604
1.06637
1.14689
1.41688
1.93104
2.1447
2.19465
2.19537
2.19892
1
1
1
1
1
1
1
1.00001
1.00001
1.00004
1.00008
1.00025
1.00046
1.00137
1.00264
1.00721
1.01603
1.03894
1.10521
1.23393
1.63494
2.01441
2.16955
2.19351
2.20259
1
1
1
1
1
1
1
1.00001
1.00001
1.00003
1.00005
1.00016
1.0003
1.00091
1.00168
1.00494
1.00984
1.02581
1.06415
1.14334
1.40189
1.8961
2.10772
2.18545
2.22195
1
1
1
1
1
1
1
1
1.00001
1.00001
1.00004
1.00008
1.00024
1.00044
1.0013
1.00254
1.00683
1.01536
1.03691
1.0996
1.21982
1.59153
1.99598
2.18338
2.26319
1
1
1
1
1
1
1
1
1
1.00001
1.00002
1.00007
1.00013
1.00038
1.00071
1.00211
1.00405
1.01135
1.02437
1.06112
1.15174
1.39973
1.86139
2.17015
2.33778
1
1
1
1
1
1
1
1
1
1.00001
1.00002
1.00005
1.00009
1.00027
1.00048
1.00147
1.00273
1.0078
1.01668
1.04079
1.10738
1.24451
1.62489
2.17741
2.42369
1
1
1
1
1
1
1
1
1
1.00001
1.00001
1.00003
1.00006
1.0002
1.00036
1.00111
1.00208
1.00617
1.01256
1.03351
1.08383
1.2015
1.5472
2.26945
2.54685
1
1
1
1
1
1
1
1
1
1
1.00001
1.00002
1.00006
1.00012
1.00036
1.0007
1.00194
1.00439
1.01073
1.02984
1.06588
1.20723
1.49098
2.19969
2.69788
1
1
1
1
1
1
1
1
1
1
1.00001
1.00002
1.00006
1.0001
1.00031
1.00062
1.00168
1.00399
1.00955
1.02744
1.05978
1.19538
1.45493
2.18366
2.76339
1
1
1
1
1
1
1
1
1
1
1.00001
1.00002
1.00004
1.00012
1.00024
1.00065
1.00152
1.00363
1.01019
1.02267
1.07066
1.14711
1.50486
2.23458
2.76836
1
1
1
1
1
1
1
1
1
1
1.00001
1.00002
1.00005
1.00009
1.00028
1.00056
1.0015
1.00366
1.0087
1.02515
1.05489
1.17867
1.41564
2.12437
2.77629
1
1
1
1
1
1
1
1
1
1
1.00001
1.00001
1.00005
1.00009
1.00027
1.00052
1.00144
1.00339
1.0082
1.02348
1.05184
1.16695
1.38922
2.06073
2.75348
1
1
1
1
1
1
1
1
1
1
1.00001
1.00002
1.00004
1.00011
1.00021
1.00064
1.00131
1.00346
1.00858
1.02025
1.05959
1.12852
1.41712
2.09312
2.71736
1
1
1
1
1
1
1
1
1
1
1.00001
1.00001
1.00004
1.00008
1.00024
1.00049
1.00127
1.00317
1.00733
1.02118
1.04561
1.14662
1.33552
1.95949
2.67768
1
1
1
1
1
1
1
1
1
1
1.00001
1.00002
1.00004
1.00011
1.00021
1.00066
1.00122
1.00374
1.0075
1.02048
1.05069
1.1205
1.34784
1.99411
2.61293
1
1
1
1
1
1
1
1
1
1
1.00001
1.00002
1.00003
1.00011
1.0002
1.00064
1.00118
1.00362
1.00718
1.01989
1.048
1.11645
1.32822
1.96405
2.57397
1
1
1
1
1
1
1
1
1
1
1.00001
1.00001
1.00004
1.00008
1.00025
1.00046
1.00137
1.0028
1.00735
1.01833
1.04281
1.1264
1.28907
1.78019
2.61629
1
1
1
1
1
1
1
1
1
1
1.00001
1.00001
1.00004
1.00008
1.00025
1.00046
1.00144
1.0027
1.00784
1.01715
1.04319
1.1203
1.28211
1.76097
2.62254
1
1
1
1
1
1
1
1
1
1
1.00001
1.00001
1.00004
1.00008
1.00024
1.00044
1.00135
1.00266
1.00724
1.01719
1.04132
1.11994
1.27494
1.75408
2.61921
1
1
1
1
1
1
1
1
1
1
1.00001
1.00002
1.00003
1.0001
1.00018
1.00055
1.00108
1.003
1.00682
1.01686
1.04674
1.10467
1.31126
1.87424
2.55363
1
1
1
1
1
1
1
1
1
1
1.00001
1.00001
1.00004
1.00008
1.00024
1.00044
1.00134
1.00263
1.00718
1.017
1.04098
1.11871
1.27238
1.74745
2.61174
2.44208
2.75923
2.91147
3.11976
3.12376
3.07556
3.06178
3.04845
3.03303
3.01174
2.99457
2.97637
2.96045
2.93999
2.92564
2.91288
2.90978
2.90994
2.91593
2.92847
2.94592
2.96682
2.98663
3.00602
3.02264
3.03623
3.04979
3.05924
3.06764
3.07557
3.08061
3.08464
3.08734
3.08804
3.08794
3.08594
3.08084
3.07627
3.07113
3.06803
3.06205
3.05745
3.04832
3.0422
3.03338
3.02594
3.01672
3.00872
2.99845
2.98906
2.97966
2.97041
2.96086
2.95129
2.94132
2.93059
2.92104
2.90977
2.90049
2.88888
2.87991
2.86848
2.85901
2.84788
2.83828
2.8268
2.81732
2.80555
2.79601
2.7841
2.77463
2.76233
2.75324
2.74047
2.73171
2.71872
2.70988
2.69711
2.68785
2.67546
2.66584
2.65366
2.64396
2.63178
2.6222
2.60996
2.60052
2.58834
2.57899
2.567
2.55772
2.54607
2.53693
2.52577
2.51704
2.5066
2.49888
2.48991
2.48481
2.47872
2.33585
2.5125
2.68646
2.96258
3.10493
3.20645
3.25916
3.25483
3.25787
3.25747
3.25557
3.25505
3.25379
3.24621
3.23573
3.23116
3.23205
3.23747
3.24013
3.24946
3.25521
3.26254
3.26467
3.26542
3.26433
3.25652
3.24706
3.23571
3.22087
3.204
3.19456
3.18185
3.17103
3.15612
3.1396
3.12433
3.10864
3.09112
3.07572
3.05871
3.04216
3.02401
3.00775
2.98986
2.97353
2.95535
2.93954
2.92194
2.90613
2.88858
2.87407
2.85734
2.84377
2.82749
2.81479
2.79904
2.78643
2.77146
2.75891
2.74465
2.73283
2.71899
2.70789
2.69446
2.68366
2.6707
2.66003
2.64729
2.63696
2.62433
2.61448
2.60197
2.59239
2.58026
2.57061
2.55925
2.5493
2.53876
2.52848
2.51859
2.50822
2.49889
2.48864
2.47973
2.46954
2.46091
2.45062
2.44226
2.43192
2.42392
2.41361
2.4061
2.39592
2.38894
2.37924
2.37313
2.3647
2.36023
2.35471
2.35343
2.30195
2.33615
2.44246
2.55879
2.723
2.88318
3.07431
3.17795
3.2545
3.2969
3.32088
3.35799
3.38034
3.38496
3.38601
3.38163
3.38909
3.39246
3.3991
3.40378
3.40387
3.39619
3.37641
3.35299
3.33114
3.30506
3.27849
3.24873
3.22174
3.19223
3.16637
3.13662
3.10888
3.0793
3.05147
3.02255
2.99623
2.96902
2.94473
2.91914
2.8963
2.87276
2.85164
2.82988
2.81045
2.79112
2.77343
2.7562
2.73911
2.72287
2.70661
2.69206
2.67653
2.66322
2.64855
2.63606
2.62228
2.61028
2.59715
2.58568
2.57298
2.56203
2.54961
2.53897
2.52682
2.51633
2.50452
2.49405
2.48251
2.47212
2.46072
2.45057
2.43908
2.42933
2.41767
2.40835
2.39655
2.38746
2.37567
2.36668
2.35519
2.3462
2.33505
2.32599
2.31519
2.30621
2.29578
2.28698
2.27688
2.26829
2.25847
2.25005
2.24063
2.23256
2.22378
2.21629
2.20872
2.20246
2.19747
2.19404
2.30524
2.27112
2.30508
2.34913
2.43283
2.53319
2.65537
2.81668
2.96195
3.10831
3.19593
3.26278
3.31948
3.36303
3.38712
3.39849
3.40125
3.40162
3.39599
3.38361
3.35849
3.32962
3.29483
3.25534
3.21329
3.17003
3.12615
3.08398
3.04058
3.00136
2.96191
2.92532
2.88918
2.85653
2.82467
2.7957
2.7682
2.74225
2.71901
2.69561
2.67591
2.65518
2.63814
2.61949
2.60467
2.58835
2.57547
2.56116
2.54912
2.53578
2.52417
2.51213
2.50155
2.49043
2.48045
2.47013
2.46065
2.45115
2.44215
2.43327
2.42473
2.4162
2.40812
2.39973
2.39218
2.38376
2.37662
2.36814
2.36121
2.3527
2.34574
2.33725
2.33013
2.32171
2.31444
2.30607
2.29874
2.29039
2.28309
2.27467
2.26742
2.25891
2.25164
2.243
2.23567
2.22691
2.21944
2.21069
2.20317
2.19454
2.18706
2.17866
2.17132
2.16329
2.15626
2.14884
2.14258
2.13639
2.13209
2.12875
2.30342
2.26576
2.24286
2.25827
2.28557
2.33701
2.39843
2.4806
2.57889
2.68813
2.8199
2.95195
3.06368
3.16585
3.23334
3.27619
3.29514
3.29394
3.27619
3.23903
3.19262
3.13169
3.06968
3.01267
2.9561
2.90599
2.85946
2.81673
2.77689
2.73941
2.70626
2.67475
2.64731
2.621
2.59878
2.57743
2.55958
2.5427
2.52887
2.51584
2.50513
2.49484
2.48573
2.47698
2.46895
2.461
2.45392
2.44691
2.44007
2.43223
2.42465
2.41686
2.40975
2.40231
2.39537
2.38801
2.38106
2.37367
2.36669
2.35918
2.35222
2.34447
2.33756
2.32951
2.32265
2.31434
2.30752
2.29908
2.2922
2.28377
2.27672
2.26841
2.26108
2.25294
2.24534
2.23734
2.22954
2.22167
2.21377
2.20597
2.19794
2.19013
2.18195
2.17414
2.16583
2.15807
2.14966
2.14196
2.13344
2.12585
2.11734
2.10992
2.10165
2.09445
2.08671
2.07987
2.07314
2.06716
2.06252
2.05909
2.30327
2.25464
2.23335
2.21406
2.22192
2.23932
2.26897
2.30589
2.35597
2.41553
2.4881
2.57235
2.66289
2.75065
2.83774
2.90258
2.94702
2.94688
2.92661
2.8811
2.8258
2.76201
2.70515
2.65486
2.6135
2.58179
2.55469
2.53048
2.50933
2.49143
2.47597
2.46374
2.45377
2.44548
2.43859
2.43273
2.42798
2.42355
2.41982
2.4161
2.41283
2.40943
2.40624
2.40272
2.39902
2.39514
2.39158
2.38783
2.38387
2.37903
2.37406
2.36864
2.36364
2.358
2.3528
2.34674
2.34128
2.33471
2.32902
2.32195
2.31613
2.30864
2.3027
2.29484
2.28872
2.28067
2.27431
2.26622
2.25958
2.25155
2.24462
2.23667
2.2295
2.22162
2.21428
2.20642
2.19902
2.1911
2.18365
2.17562
2.16817
2.16009
2.15266
2.14452
2.13707
2.12887
2.12141
2.11318
2.10574
2.09749
2.09011
2.08188
2.07466
2.06655
2.05969
2.05191
2.04581
2.03889
2.03451
2.03019
2.29691
2.25126
2.21664
2.20018
2.18438
2.18826
2.19922
2.21652
2.23978
2.2723
2.3109
2.35907
2.41499
2.4722
2.52894
2.57209
2.60163
2.59925
2.57977
2.54214
2.49561
2.45306
2.41822
2.39441
2.37655
2.37072
2.36703
2.3647
2.36393
2.3629
2.36303
2.36336
2.36406
2.36471
2.36538
2.36613
2.36674
2.367
2.36683
2.36633
2.36537
2.36397
2.36204
2.35974
2.35676
2.35362
2.3501
2.34673
2.34269
2.33822
2.33283
2.3274
2.32155
2.31573
2.30951
2.30323
2.29677
2.29004
2.28344
2.27625
2.26957
2.26202
2.25531
2.24753
2.2408
2.2329
2.22609
2.21823
2.2113
2.20361
2.19654
2.18904
2.18181
2.17446
2.16712
2.15981
2.15238
2.14515
2.13767
2.13056
2.12311
2.11606
2.10862
2.1016
2.09417
2.08715
2.07973
2.07269
2.0653
2.05827
2.05097
2.04397
2.03687
2.02996
2.02324
2.01656
2.01053
2.00457
2.00011
1.99665
2.29084
2.24824
2.2128
2.18635
2.17205
2.15858
2.15943
2.16547
2.17681
2.19305
2.21844
2.24916
2.28685
2.32583
2.36574
2.39421
2.41296
2.40928
2.39179
2.3638
2.33098
2.30286
2.28413
2.26992
2.26457
2.26663
2.27397
2.28235
2.29057
2.29603
2.30131
2.30422
2.30754
2.30891
2.31108
2.31177
2.3125
2.31238
2.31188
2.31085
2.30902
2.30696
2.30433
2.30157
2.29817
2.29474
2.29089
2.28742
2.28341
2.27916
2.27404
2.26884
2.26329
2.25769
2.25192
2.24588
2.23989
2.2334
2.22724
2.22043
2.21418
2.20718
2.20076
2.19362
2.18691
2.17969
2.17268
2.16549
2.15823
2.15113
2.14372
2.13672
2.12924
2.12227
2.11467
2.10778
2.10018
2.09334
2.08578
2.07899
2.07151
2.06476
2.05736
2.05062
2.04332
2.03656
2.02938
2.02259
2.0156
2.00883
2.0021
1.99543
1.98902
1.98254
1.97651
1.97035
1.96488
1.95946
1.95523
1.95232
2.27899
2.24052
2.20624
2.1783
2.15848
2.14642
2.13654
2.13672
2.14253
2.15516
2.17323
2.19902
2.22826
2.25973
2.29358
2.31606
2.3246
2.31921
2.30199
2.2766
2.24446
2.22112
2.20379
2.19483
2.18802
2.1883
2.19437
2.20416
2.21437
2.22425
2.23159
2.23697
2.24104
2.24378
2.24659
2.24811
2.25
2.2506
2.25153
2.25139
2.25101
2.25011
2.24925
2.2475
2.24597
2.24351
2.24146
2.23878
2.23667
2.23339
2.23013
2.2256
2.22147
2.2164
2.21194
2.20645
2.20171
2.19577
2.19074
2.1844
2.1791
2.17246
2.16681
2.15995
2.15392
2.14694
2.14056
2.13354
2.12688
2.11985
2.11296
2.10586
2.09875
2.09163
2.08447
2.07734
2.07016
2.06305
2.05591
2.04889
2.0418
2.03489
2.02786
2.02103
2.01404
2.00726
2.00032
1.99353
1.98667
1.97985
1.97308
1.96623
1.95962
1.95279
1.94646
1.9398
1.93403
1.92798
1.92354
1.91985
2.2765
2.23552
2.20081
2.17118
2.14828
2.13283
2.12396
2.11907
2.12376
2.13712
2.15827
2.18042
2.21075
2.24527
2.27819
2.28914
2.2923
2.28278
2.26298
2.23169
2.20142
2.17603
2.15874
2.14896
2.14244
2.14129
2.14213
2.14927
2.15848
2.16945
2.1802
2.18974
2.19687
2.20299
2.20742
2.21109
2.21357
2.21534
2.21677
2.21748
2.21826
2.21853
2.21818
2.21758
2.21622
2.21478
2.21245
2.21061
2.20828
2.20597
2.20274
2.19907
2.19488
2.1904
2.18582
2.18072
2.17591
2.17037
2.16538
2.15947
2.15417
2.14786
2.14212
2.1355
2.12937
2.12259
2.11618
2.10937
2.10277
2.09594
2.08918
2.08234
2.07549
2.06867
2.06177
2.05496
2.04802
2.04122
2.0343
2.02756
2.02071
2.01406
2.0073
2.00075
1.99407
1.9876
1.98101
1.9746
1.96813
1.96178
1.95549
1.94918
1.94313
1.93692
1.93115
1.92507
1.91974
1.9142
1.91002
1.90672
2.27303
2.23423
2.19977
2.16866
2.14442
2.12504
2.11509
2.11075
2.11784
2.13472
2.15448
2.1814
2.21688
2.25212
2.27665
2.28083
2.27762
2.26262
2.23792
2.20605
2.17653
2.15225
2.1339
2.12105
2.11381
2.10833
2.10611
2.10624
2.11144
2.11755
2.12794
2.13855
2.14873
2.15653
2.1626
2.16683
2.16973
2.17194
2.17345
2.17477
2.17567
2.17629
2.17663
2.17632
2.17558
2.17418
2.17245
2.17039
2.16842
2.16611
2.16341
2.15999
2.15636
2.15221
2.14813
2.14339
2.13897
2.13376
2.12907
2.12352
2.11849
2.11263
2.10713
2.10102
2.09503
2.08875
2.08234
2.07596
2.06925
2.06276
2.05589
2.04939
2.04242
2.03587
2.02883
2.02225
2.01521
2.00865
2.00166
1.99515
1.98822
1.98179
1.9749
1.96854
1.96172
1.95543
1.94869
1.94244
1.93584
1.92964
1.92321
1.9171
1.91093
1.90497
1.89917
1.89356
1.88835
1.88345
1.87944
1.87678
2.26171
2.23042
2.19895
2.16915
2.14497
2.1254
2.11555
2.11441
2.12616
2.14244
2.16638
2.20003
2.24324
2.27557
2.28273
2.28384
2.27474
2.25414
2.2237
2.1928
2.16525
2.1414
2.12174
2.10586
2.09362
2.08516
2.07951
2.07667
2.07593
2.07845
2.08431
2.0931
2.10411
2.1147
2.12363
2.13067
2.1359
2.14034
2.14348
2.14646
2.14834
2.15013
2.15089
2.15162
2.15146
2.15086
2.14989
2.14839
2.14711
2.14549
2.14375
2.14104
2.13818
2.13445
2.13095
2.12649
2.12246
2.11743
2.11304
2.10761
2.10289
2.09716
2.09203
2.08605
2.08045
2.07423
2.06818
2.06176
2.05538
2.0489
2.04234
2.03581
2.02911
2.02253
2.01574
2.00915
2.00234
1.9958
1.98903
1.98256
1.97585
1.96943
1.96279
1.95642
1.94986
1.94352
1.93706
1.93075
1.9244
1.91815
1.91194
1.90575
1.89974
1.89368
1.88799
1.88223
1.87713
1.87208
1.86829
1.86534
2.25171
2.22098
2.19426
2.16826
2.14801
2.1313
2.12619
2.13129
2.14546
2.16518
2.19617
2.238
2.27161
2.28792
2.29021
2.28517
2.26898
2.24256
2.21308
2.18595
2.16056
2.13769
2.11727
2.09939
2.08421
2.07226
2.06325
2.05748
2.05451
2.05382
2.05473
2.05918
2.06583
2.07573
2.08601
2.09545
2.1035
2.10981
2.11462
2.11799
2.12057
2.12211
2.12325
2.12359
2.12355
2.12308
2.12197
2.12072
2.11929
2.11781
2.11618
2.11383
2.11113
2.10759
2.10414
2.09986
2.09585
2.09103
2.08657
2.08134
2.07648
2.07094
2.06568
2.05987
2.05421
2.04815
2.04207
2.03581
2.02947
2.02313
2.01658
2.01018
2.0035
1.99709
1.99035
1.98399
1.97727
1.97099
1.96433
1.95814
1.95155
1.94543
1.93889
1.9328
1.9263
1.92024
1.91385
1.90786
1.90162
1.89576
1.88973
1.88404
1.87831
1.87285
1.86754
1.8625
1.85786
1.85366
1.85032
1.84804
2.24901
2.21911
2.19161
2.16888
2.15154
2.14404
2.14536
2.15801
2.17633
2.20283
2.24327
2.2788
2.29818
2.30024
2.29713
2.2849
2.2634
2.23584
2.20952
2.18524
2.16205
2.14049
2.11969
2.10093
2.08365
2.06903
2.05663
2.04714
2.04122
2.03666
2.03523
2.03384
2.03565
2.0406
2.04852
2.05811
2.06752
2.07612
2.0828
2.08827
2.09187
2.09465
2.09597
2.09712
2.09734
2.09747
2.09697
2.09615
2.09505
2.09377
2.09265
2.09082
2.08876
2.08572
2.08276
2.07899
2.07534
2.07098
2.06676
2.06198
2.0573
2.05218
2.04705
2.04156
2.03594
2.03006
2.02403
2.01798
2.01171
2.00558
1.99912
1.99296
1.98631
1.98013
1.97336
1.96718
1.96039
1.95426
1.94756
1.94149
1.93491
1.92889
1.92242
1.91646
1.91005
1.90415
1.89782
1.892
1.88578
1.88007
1.87409
1.86855
1.86297
1.85773
1.85274
1.84806
1.84396
1.8402
1.83741
1.83549
2.24214
2.21755
2.19558
2.17409
2.16199
2.1617
2.17209
2.18793
2.21418
2.25158
2.28852
2.30957
2.31388
2.31134
2.30065
2.28176
2.25723
2.23357
2.21104
2.1892
2.16749
2.14664
2.12642
2.10685
2.0889
2.07185
2.05727
2.04408
2.03313
2.02435
2.01908
2.01533
2.01445
2.01374
2.01667
2.02248
2.03135
2.0404
2.04938
2.0567
2.06289
2.06695
2.07007
2.07189
2.07283
2.07352
2.07341
2.07281
2.07205
2.07088
2.06998
2.06854
2.06693
2.06428
2.06157
2.05807
2.05459
2.05039
2.04624
2.04153
2.03687
2.03183
2.02671
2.02138
2.01578
2.01021
2.00429
1.99859
1.99239
1.98655
1.98014
1.97417
1.96763
1.96156
1.95494
1.94886
1.94224
1.93623
1.92966
1.92379
1.91729
1.91154
1.90511
1.89941
1.89307
1.88739
1.88121
1.87554
1.86962
1.86402
1.85844
1.85303
1.84789
1.84292
1.83843
1.83423
1.83065
1.82742
1.82546
1.82399
2.21893
2.20998
2.19482
2.18705
2.18391
2.19301
2.20745
2.23122
2.2654
2.29983
2.31965
2.32515
2.32292
2.31357
2.29673
2.27461
2.25412
2.23342
2.21357
2.19275
2.17264
2.15161
2.1315
2.11102
2.09233
2.07408
2.05787
2.04268
2.02987
2.0185
2.0098
2.00241
1.99837
1.99587
1.99465
1.99524
1.99918
2.0062
2.01441
2.02354
2.0313
2.03804
2.04314
2.04648
2.04916
2.05004
2.05095
2.05073
2.05016
2.04899
2.04815
2.04688
2.04567
2.04343
2.04104
2.03784
2.03465
2.03077
2.02688
2.02248
2.01805
2.01327
2.00836
2.00321
1.99784
1.99248
1.98675
1.98119
1.97512
1.9694
1.96304
1.9572
1.95068
1.94472
1.93815
1.9321
1.9256
1.9195
1.91318
1.90716
1.90103
1.89518
1.88922
1.88355
1.87771
1.8722
1.86645
1.86108
1.85545
1.85027
1.8449
1.84002
1.83518
1.83081
1.82689
1.8233
1.82045
1.81819
1.81741
1.81651
2.20993
2.19813
2.19674
2.19923
2.21113
2.22777
2.25258
2.28803
2.3191
2.33668
2.33948
2.33645
2.32679
2.30867
2.28876
2.26892
2.25141
2.23294
2.21475
2.19566
2.17623
2.15643
2.13653
2.117
2.09797
2.07967
2.06237
2.04633
2.03147
2.01805
2.00632
1.99625
1.98853
1.98241
1.97898
1.97644
1.9755
1.97678
1.98186
1.98908
1.9976
2.00548
2.0128
2.01853
2.02246
2.02559
2.02659
2.02763
2.02734
2.02653
2.02571
2.02464
2.02381
2.02219
2.02032
2.0176
2.0148
2.01131
2.00765
2.00354
1.99914
1.99455
1.98954
1.98452
1.97915
1.97381
1.96821
1.96259
1.95682
1.95103
1.94511
1.93925
1.93315
1.92729
1.92103
1.91521
1.90886
1.90313
1.8968
1.89119
1.88495
1.8795
1.8734
1.86809
1.86214
1.85699
1.85122
1.84622
1.84077
1.83594
1.83108
1.82656
1.82254
1.81882
1.81575
1.81313
1.81149
1.81092
1.8117
1.81089
2.21086
2.20048
2.20612
2.21891
2.24067
2.26888
2.30685
2.33854
2.3556
2.35866
2.35536
2.34515
2.32615
2.30607
2.28801
2.27119
2.25504
2.23876
2.22111
2.20318
2.18366
2.16473
2.14473
2.12572
2.10628
2.08808
2.06996
2.05311
2.03636
2.0214
2.00649
1.99408
1.98188
1.97289
1.96529
1.96055
1.9566
1.95485
1.95425
1.95654
1.96187
1.97
1.97777
1.98584
1.99206
1.9972
2.00059
2.00228
2.00364
2.00339
2.00276
2.0019
2.00128
2.0002
1.99876
1.99659
1.9941
1.99104
1.98774
1.98391
1.97986
1.97542
1.97067
1.96582
1.96059
1.95554
1.94991
1.94475
1.93886
1.93364
1.92761
1.92229
1.91621
1.91075
1.90464
1.89905
1.89294
1.88729
1.88125
1.87566
1.86971
1.86429
1.85846
1.85326
1.84761
1.84259
1.83725
1.83241
1.82747
1.82302
1.8186
1.81493
1.81135
1.80869
1.80624
1.80506
1.80495
1.8059
1.80791
1.80731
2.2073
2.21396
2.22753
2.24869
2.27879
2.32166
2.353
2.36746
2.36955
2.36502
2.3532
2.33261
2.31441
2.29746
2.28239
2.26865
2.25384
2.23923
2.22214
2.20552
2.18672
2.16876
2.14917
2.13058
2.11098
2.09267
2.07377
2.05625
2.03842
2.02221
2.00597
1.99175
1.97811
1.96647
1.9558
1.9477
1.9412
1.937
1.93327
1.93249
1.93255
1.93587
1.94266
1.94982
1.95841
1.96491
1.9713
1.97494
1.97807
1.97914
1.97964
1.97922
1.97845
1.97781
1.97671
1.97519
1.97286
1.97035
1.96719
1.96393
1.96
1.95595
1.95135
1.94679
1.94176
1.93689
1.93153
1.92651
1.92093
1.91585
1.91013
1.90502
1.8992
1.89401
1.88816
1.88283
1.87705
1.87159
1.86596
1.86047
1.85505
1.84961
1.84447
1.83911
1.83429
1.82909
1.82463
1.81973
1.81571
1.81141
1.80807
1.80483
1.80237
1.80043
1.79969
1.80006
1.80173
1.80373
1.80791
1.80898
2.20939
2.23071
2.26034
2.29646
2.34153
2.37354
2.38551
2.3872
2.38048
2.36504
2.34412
2.32463
2.30769
2.29318
2.27932
2.26686
2.25285
2.23904
2.22312
2.20696
2.18919
2.171
2.1521
2.13304
2.11421
2.0952
2.07699
2.05872
2.04138
2.02435
2.00818
1.9925
1.97754
1.96357
1.95083
1.93968
1.9303
1.92313
1.91717
1.91298
1.90989
1.90933
1.91009
1.91443
1.92063
1.92855
1.93545
1.94257
1.94691
1.95108
1.95239
1.95377
1.95328
1.95247
1.95188
1.95072
1.94899
1.9467
1.94387
1.94099
1.93732
1.93375
1.92939
1.9253
1.92059
1.91605
1.91116
1.90628
1.90128
1.8962
1.89111
1.88592
1.88069
1.87545
1.87006
1.86482
1.8593
1.85414
1.84861
1.84357
1.8382
1.83335
1.82827
1.82365
1.81906
1.81463
1.81071
1.80663
1.80348
1.80023
1.79801
1.79593
1.79472
1.79464
1.79574
1.79743
1.80042
1.80507
1.81282
1.81744
2.22096
2.25673
2.30349
2.3498
2.3851
2.39681
2.39942
2.39124
2.37438
2.35226
2.33201
2.31539
2.30064
2.28814
2.27563
2.26356
2.25035
2.23652
2.22151
2.20516
2.18842
2.17028
2.15269
2.13407
2.11642
2.09798
2.08053
2.06235
2.04516
2.02732
2.01042
1.99324
1.97735
1.96153
1.94736
1.93365
1.92205
1.91135
1.90328
1.89605
1.89059
1.88602
1.88447
1.88375
1.88549
1.89049
1.89709
1.90478
1.91155
1.91753
1.92178
1.9243
1.92588
1.92561
1.92504
1.92427
1.92336
1.92152
1.91932
1.91667
1.91361
1.91042
1.90676
1.90312
1.89892
1.8948
1.8902
1.88566
1.88085
1.87595
1.87106
1.86591
1.861
1.85571
1.85079
1.84549
1.84058
1.83538
1.8305
1.82551
1.8207
1.81606
1.81144
1.80726
1.80297
1.79941
1.79572
1.79295
1.79028
1.78873
1.7871
1.78707
1.78743
1.78941
1.79159
1.79587
1.80169
1.81101
1.82249
1.82892
2.25519
2.31235
2.36348
2.40128
2.41263
2.41198
2.4016
2.38067
2.35822
2.33823
2.32125
2.30766
2.29494
2.28354
2.27147
2.25943
2.24631
2.2324
2.21786
2.20204
2.18631
2.16914
2.15255
2.1347
2.11754
2.09935
2.0819
2.06353
2.04607
2.02766
2.01053
1.99242
1.97603
1.95894
1.9439
1.92853
1.91535
1.90241
1.89171
1.88179
1.87427
1.86702
1.86206
1.85815
1.85731
1.8575
1.8606
1.86623
1.87396
1.88102
1.88837
1.89319
1.8974
1.89892
1.89991
1.89916
1.89863
1.89751
1.8962
1.89372
1.89119
1.88805
1.88494
1.88134
1.87765
1.87365
1.86945
1.8652
1.86066
1.85621
1.85144
1.84676
1.84181
1.83692
1.83189
1.82688
1.82191
1.8169
1.8121
1.8072
1.80271
1.79805
1.79403
1.78981
1.78644
1.78295
1.78045
1.77829
1.77694
1.77637
1.77669
1.77788
1.78017
1.7842
1.78886
1.79726
1.8078
1.81988
1.83278
1.8394
2.32771
2.37425
2.40453
2.41255
2.41108
2.3998
2.37752
2.35648
2.33759
2.32261
2.31046
2.30015
2.28974
2.27921
2.26804
2.25605
2.24353
2.22971
2.21571
2.20042
2.18482
2.16824
2.15119
2.13363
2.11585
2.09789
2.07984
2.06191
2.04364
2.02593
2.00769
1.99044
1.97279
1.95644
1.93981
1.92475
1.90939
1.89586
1.88222
1.87095
1.86016
1.85188
1.84424
1.83841
1.83402
1.83247
1.83255
1.83414
1.8389
1.84562
1.85358
1.86091
1.86763
1.87226
1.87539
1.87693
1.87682
1.87641
1.8757
1.87435
1.87225
1.86947
1.86642
1.86302
1.85938
1.85556
1.85145
1.84724
1.84277
1.83828
1.83353
1.82885
1.82387
1.81913
1.81402
1.80934
1.80428
1.79971
1.7949
1.79047
1.78612
1.78192
1.77823
1.77449
1.77168
1.76883
1.76734
1.76588
1.7658
1.7662
1.7679
1.77041
1.77453
1.78097
1.79081
1.80296
1.81587
1.82872
1.84094
1.84654
2.42468
2.46041
2.45738
2.44521
2.41956
2.38558
2.35828
2.33628
2.31877
2.30502
2.29376
2.28337
2.27333
2.26309
2.25209
2.241
2.22862
2.21599
2.20228
2.18826
2.17364
2.15882
2.14345
2.12782
2.11153
2.09496
2.07778
2.06015
2.04239
2.02402
2.00626
1.98812
1.9707
1.95331
1.93658
1.92019
1.9046
1.88985
1.87589
1.86334
1.85155
1.84183
1.83296
1.82603
1.81947
1.81474
1.81242
1.81254
1.81341
1.81656
1.82227
1.83009
1.83804
1.84575
1.85141
1.85608
1.85799
1.85928
1.85876
1.8581
1.857
1.85466
1.85195
1.84832
1.84483
1.84067
1.83659
1.83204
1.82749
1.82274
1.8179
1.81312
1.80812
1.80342
1.79835
1.79385
1.78888
1.78463
1.77995
1.776
1.77177
1.76828
1.76474
1.76205
1.75967
1.75829
1.7575
1.75771
1.75844
1.76046
1.76377
1.76866
1.77664
1.7875
1.79983
1.81293
1.82589
1.83702
1.84654
1.85014
2.51078
2.5091
2.48874
2.46143
2.4205
2.38726
2.36083
2.33987
2.3231
2.30904
2.29686
2.28538
2.27386
2.26281
2.2507
2.23863
2.22578
2.21259
2.19903
2.18464
2.16993
2.15444
2.13878
2.12264
2.10618
2.08934
2.07213
2.05461
2.03713
2.01943
2.00205
1.98459
1.96774
1.95081
1.93459
1.91845
1.90317
1.88821
1.87425
1.86092
1.84865
1.83736
1.82729
1.81868
1.81158
1.80555
1.80067
1.79784
1.79799
1.79871
1.80075
1.80514
1.81223
1.82044
1.82877
1.83575
1.84117
1.84412
1.84591
1.84561
1.84491
1.84357
1.84168
1.83843
1.83498
1.83085
1.82685
1.82223
1.81782
1.81283
1.80814
1.80296
1.79813
1.79295
1.78809
1.78307
1.77833
1.77366
1.76923
1.76514
1.76124
1.75802
1.755
1.75308
1.75163
1.75144
1.75181
1.75319
1.7553
1.75953
1.76619
1.77552
1.78729
1.79988
1.81324
1.82533
1.83604
1.84395
1.85001
1.85169
2.60395
2.55156
2.50442
2.45888
2.4204
2.3907
2.36764
2.34966
2.3345
2.3202
2.30632
2.29286
2.27881
2.26541
2.25197
2.23893
2.22582
2.21232
2.19864
2.18406
2.16922
2.15356
2.13774
2.1215
2.10494
2.08828
2.07122
2.05434
2.0372
2.02038
2.00356
1.98691
1.9704
1.95392
1.93794
1.92196
1.90688
1.89195
1.87804
1.86472
1.85204
1.84076
1.82954
1.82069
1.81136
1.80502
1.7975
1.79331
1.7886
1.78867
1.78974
1.79219
1.79656
1.80255
1.81064
1.81907
1.8267
1.83271
1.83684
1.83871
1.839
1.83802
1.83649
1.83441
1.83119
1.82726
1.82301
1.81849
1.81387
1.80898
1.80405
1.79889
1.79383
1.78859
1.7836
1.77851
1.77374
1.76902
1.76468
1.76062
1.75705
1.75407
1.75198
1.75062
1.75053
1.75095
1.75209
1.75466
1.75993
1.76757
1.77842
1.7903
1.80381
1.81636
1.82832
1.83743
1.84502
1.84902
1.85269
1.85259
2.71835
2.63801
2.55905
2.4871
2.44222
2.41278
2.39108
2.37388
2.35834
2.34284
2.32776
2.31306
2.29769
2.28225
2.26658
2.25075
2.23543
2.22
2.20503
2.18935