/*--------------------------------*- C++ -*----------------------------------*\
| =========                 |                                                 |
| \\      /  F ield         | OpenFOAM: The Open Source CFD Toolbox           |
|  \\    /   O peration     | Version:  2412                                  |
|   \\  /    A nd           | Website:  www.openfoam.com                      |
|    \\/     M anipulation  |                                                 |
\*---------------------------------------------------------------------------*/
FoamFile
{
    version     2.0;
    format      ascii;
    arch        "LSB;label=32;scalar=64";
    class       volVectorField;
    location    "8";
    object      U;
}
// * * * * * * * * * * * * * * * * * * * * * * * * * * * * * * * * * * * * * //

dimensions      [0 1 -1 0 0 0 0];

internalField   nonuniform List<vector> 
5250
(
(2.99999 1.61299e-08 0)
(2.99998 1.25734e-07 0)
(2.99995 3.87176e-07 0)
(2.99988 1.17047e-06 0)
(2.99968 2.80149e-06 0)
(2.9993 7.28014e-06 0)
(2.99809 1.7456e-05 0)
(2.99603 4.01046e-05 0)
(2.98812 0.000100793 0)
(2.97526 0.000217457 0)
(2.92431 0.000546543 0)
(2.80244 0.00129071 0)
(2.46264 0.00376104 0)
(1.43091 0.00981384 0)
(0.660471 0.0227267 0)
(0.554362 0.0237795 0)
(0.57131 0.0246654 0)
(0.55774 0.0260201 0)
(0.501878 0.0275145 0)
(0.414871 0.0292957 0)
(0.334465 0.0316645 0)
(0.26673 0.0344841 0)
(0.197601 0.0375688 0)
(0.118818 0.0412666 0)
(0.0518312 0.0462251 0)
(2.99999 4.60778e-08 0)
(2.99998 3.57842e-07 0)
(2.99995 1.1019e-06 0)
(2.99988 3.32095e-06 0)
(2.99968 7.90317e-06 0)
(2.99931 2.07329e-05 0)
(2.99812 4.80418e-05 0)
(2.9961 0.000118244 0)
(2.98827 0.000273955 0)
(2.97564 0.000682115 0)
(2.92516 0.00161202 0)
(2.80529 0.00404775 0)
(2.46913 0.0116982 0)
(1.44355 0.030765 0)
(0.668975 0.0694467 0)
(0.551482 0.0689082 0)
(0.568842 0.0682975 0)
(0.555766 0.0698605 0)
(0.500038 0.0718849 0)
(0.413327 0.0748249 0)
(0.333033 0.0788511 0)
(0.264835 0.0833692 0)
(0.194906 0.087802 0)
(0.115177 0.0923491 0)
(0.0483346 0.096716 0)
(2.99999 7.36559e-08 0)
(2.99998 5.72245e-07 0)
(2.99995 1.76131e-06 0)
(2.99988 5.31271e-06 0)
(2.99969 1.26147e-05 0)
(2.99933 3.33729e-05 0)
(2.99817 7.60816e-05 0)
(2.99622 0.000195012 0)
(2.98859 0.000432977 0)
(2.97639 0.00117292 0)
(2.92698 0.00268044 0)
(2.81148 0.00702508 0)
(2.48334 0.0200422 0)
(1.47319 0.0536884 0)
(0.690112 0.121504 0)
(0.547712 0.117132 0)
(0.566827 0.114309 0)
(0.55564 0.117329 0)
(0.500816 0.121442 0)
(0.415264 0.127522 0)
(0.335617 0.13495 0)
(0.267226 0.143073 0)
(0.196668 0.151126 0)
(0.115948 0.158773 0)
(0.0477543 0.164438 0)
(2.99999 9.65249e-08 0)
(2.99998 7.50198e-07 0)
(2.99995 2.30827e-06 0)
(2.99989 6.96967e-06 0)
(2.99971 1.65223e-05 0)
(2.99936 4.40232e-05 0)
(2.99825 9.91834e-05 0)
(2.9964 0.000261881 0)
(2.98908 0.000566511 0)
(2.97753 0.00162166 0)
(2.92981 0.00352684 0)
(2.82093 0.0104922 0)
(2.50534 0.0278214 0)
(1.52198 0.0779115 0)
(0.72445 0.176821 0)
(0.542446 0.165594 0)
(0.566182 0.159133 0)
(0.558965 0.163779 0)
(0.505699 0.170219 0)
(0.421932 0.179854 0)
(0.343095 0.190994 0)
(0.274655 0.203157 0)
(0.203289 0.215595 0)
(0.120598 0.227189 0)
(0.0492974 0.234685 0)
(2.99999 1.12713e-07 0)
(2.99998 8.74743e-07 0)
(2.99995 2.69121e-06 0)
(2.9999 8.12173e-06 0)
(2.99973 1.91897e-05 0)
(2.9994 5.15426e-05 0)
(2.99836 0.000113848 0)
(2.99661 0.000312874 0)
(2.98971 0.000653937 0)
(2.97889 0.0019737 0)
(2.93401 0.00410369 0)
(2.83337 0.0136413 0)
(2.53552 0.0331566 0)
(1.59784 0.10242 0)
(0.776117 0.234836 0)
(0.538069 0.214675 0)
(0.568976 0.203428 0)
(0.567404 0.209445 0)
(0.515849 0.218017 0)
(0.434119 0.231125 0)
(0.356033 0.246279 0)
(0.287427 0.262969 0)
(0.215003 0.280413 0)
(0.129349 0.296893 0)
(0.0529916 0.307136 0)
(2.99999 1.25643e-07 0)
(2.99998 9.75436e-07 0)
(2.99996 2.99983e-06 0)
(2.9999 9.0639e-06 0)
(2.99974 2.13654e-05 0)
(2.99944 5.79242e-05 0)
(2.99847 0.000125896 0)
(2.99685 0.000359172 0)
(2.99045 0.000729048 0)
(2.98044 0.00230775 0)
(2.93904 0.00472207 0)
(2.84702 0.0161697 0)
(2.57333 0.0381933 0)
(1.70207 0.125373 0)
(0.842451 0.294963 0)
(0.533257 0.263916 0)
(0.575024 0.247437 0)
(0.581288 0.254827 0)
(0.531755 0.26548 0)
(0.452607 0.28221 0)
(0.375383 0.301851 0)
(0.306615 0.324073 0)
(0.232774 0.348038 0)
(0.142989 0.371568 0)
(0.0593323 0.386935 0)
(3 1.34412e-07 0)
(2.99999 1.0415e-06 0)
(2.99996 3.20272e-06 0)
(2.99991 9.67166e-06 0)
(2.99977 2.271e-05 0)
(2.99949 6.22643e-05 0)
(2.99861 0.000131356 0)
(2.99711 0.000398491 0)
(2.99132 0.000753352 0)
(2.98225 0.00266596 0)
(2.94501 0.00525821 0)
(2.86331 0.0185093 0)
(2.61865 0.0441079 0)
(1.83438 0.144518 0)
(0.927862 0.352546 0)
(0.533698 0.312846 0)
(0.58847 0.291752 0)
(0.603323 0.299661 0)
(0.555438 0.312128 0)
(0.479143 0.333216 0)
(0.402867 0.358053 0)
(0.334086 0.386948 0)
(0.259171 0.419442 0)
(0.164532 0.453621 0)
(0.0703454 0.479267 0)
(3 1.44122e-07 0)
(2.99999 1.11549e-06 0)
(2.99996 3.4317e-06 0)
(2.99992 1.03533e-05 0)
(2.99979 2.4301e-05 0)
(2.99953 6.66755e-05 0)
(2.99875 0.000139544 0)
(2.99737 0.000430232 0)
(2.99232 0.000783747 0)
(2.98423 0.00290963 0)
(2.95167 0.00561318 0)
(2.88172 0.0198901 0)
(2.66975 0.0476196 0)
(1.99097 0.155524 0)
(1.03734 0.398114 0)
(0.551681 0.365596 0)
(0.615099 0.342058 0)
(0.636812 0.346298 0)
(0.590435 0.358908 0)
(0.516971 0.384395 0)
(0.441206 0.415096 0)
(0.372511 0.452185 0)
(0.297216 0.495618 0)
(0.198607 0.54594 0)
(0.0898038 0.592608 0)
(3 1.5981e-07 0)
(2.99999 1.23245e-06 0)
(2.99997 3.79169e-06 0)
(2.99993 1.14069e-05 0)
(2.99981 2.69282e-05 0)
(2.99958 7.24569e-05 0)
(2.99891 0.000158169 0)
(2.99765 0.000446688 0)
(2.99338 0.000888286 0)
(2.98631 0.00288473 0)
(2.95862 0.00574487 0)
(2.90064 0.0190896 0)
(2.72293 0.0465881 0)
(2.16489 0.146064 0)
(1.18364 0.390664 0)
(0.613599 0.405906 0)
(0.664299 0.396754 0)
(0.685946 0.394031 0)
(0.64152 0.409002 0)
(0.570199 0.436509 0)
(0.494128 0.473605 0)
(0.42573 0.518962 0)
(0.352522 0.575792 0)
(0.254863 0.651242 0)
(0.126591 0.742107 0)
(3 3.98203e-08 0)
(2.99999 1.60837e-06 0)
(2.99997 3.00992e-06 0)
(2.99994 1.4077e-05 0)
(2.99984 2.20239e-05 0)
(2.99964 8.84912e-05 0)
(2.99906 0.000124717 0)
(2.99798 0.000549453 0)
(2.99435 0.000560435 0)
(2.98831 0.00362083 0)
(2.96474 0.00222277 0)
(2.91769 0.0229434 0)
(2.76712 0.0252258 0)
(2.30648 0.127189 0)
(1.34808 0.304951 0)
(0.675659 0.430244 0)
(0.703361 0.451519 0)
(0.727722 0.446689 0)
(0.695648 0.463615 0)
(0.63139 0.490823 0)
(0.559571 0.53312 0)
(0.49446 0.585941 0)
(0.431528 0.660379 0)
(0.350662 0.777248 0)
(0.197375 0.983202 0)
(3 1.17599e-07 0)
(2.99999 9.1252e-07 0)
(2.99998 2.81133e-06 0)
(2.99994 8.45384e-06 0)
(2.99987 2.00049e-05 0)
(2.99967 5.30318e-05 0)
(2.99929 0.000118378 0)
(2.99801 0.000314005 0)
(2.99592 0.000665789 0)
(2.98772 0.00194154 0)
(2.97404 0.00392817 0)
(2.92139 0.0120484 0)
(2.79273 0.0320749 0)
(2.44086 0.0786372 0)
(1.4472 0.256833 0)
(0.744048 0.47376 0)
(0.714252 0.502113 0)
(0.742527 0.49923 0)
(0.733214 0.514749 0)
(0.686544 0.543025 0)
(0.628979 0.588042 0)
(0.577965 0.648383 0)
(0.54432 0.737302 0)
(0.540026 0.879092 0)
(0.567047 1.11615 0)
(3 2.13453e-07 0)
(2.99999 3.55861e-07 0)
(2.99998 3.03529e-06 0)
(2.99995 4.14479e-06 0)
(2.99988 2.11043e-05 0)
(2.99972 2.64133e-05 0)
(2.99928 0.000132398 0)
(2.99843 0.000135729 0)
(2.9957 0.000900946 0)
(2.99103 0.000640087 0)
(2.97313 0.00647054 0)
(2.94103 0.00418874 0)
(2.82102 0.0415385 0)
(2.49367 0.0649282 0)
(1.71039 0.234383 0)
(0.855139 0.524125 0)
(0.723035 0.537792 0)
(0.752342 0.53903 0)
(0.761804 0.553912 0)
(0.734913 0.586562 0)
(0.69724 0.633919 0)
(0.66761 0.699803 0)
(0.665447 0.792941 0)
(0.714094 0.925637 0)
(0.829418 1.09881 0)
(3 9.95106e-08 0)
(2.99999 7.77542e-07 0)
(2.99998 2.38847e-06 0)
(2.99996 7.25015e-06 0)
(2.99989 1.71187e-05 0)
(2.99976 4.60494e-05 0)
(2.99938 0.000102961 0)
(2.99866 0.000277455 0)
(2.99634 0.000590941 0)
(2.99237 0.00174892 0)
(2.97719 0.00348037 0)
(2.95072 0.0114957 0)
(2.84976 0.0249013 0)
(2.5796 0.0849205 0)
(1.92336 0.214107 0)
(0.984771 0.561857 0)
(0.730948 0.564759 0)
(0.762678 0.567335 0)
(0.787957 0.582718 0)
(0.780292 0.620023 0)
(0.761915 0.670376 0)
(0.754548 0.736478 0)
(0.775256 0.822845 0)
(0.844335 0.929214 0)
(0.975629 1.03564 0)
(3 9.72856e-08 0)
(2.99999 7.54443e-07 0)
(2.99998 2.32031e-06 0)
(2.99996 6.99542e-06 0)
(2.99991 1.65377e-05 0)
(2.9998 4.40467e-05 0)
(2.99947 9.86471e-05 0)
(2.99884 0.000261764 0)
(2.99693 0.000557147 0)
(2.99344 0.00164205 0)
(2.98113 0.00311462 0)
(2.95924 0.0112072 0)
(2.87798 0.0220911 0)
(2.66622 0.083129 0)
(2.12919 0.203162 0)
(1.13932 0.585457 0)
(0.756614 0.594934 0)
(0.784389 0.598322 0)
(0.819807 0.609119 0)
(0.827311 0.646169 0)
(0.822863 0.697278 0)
(0.831195 0.759181 0)
(0.866069 0.832325 0)
(0.939994 0.913377 0)
(1.06542 0.982095 0)
(3 9.49396e-08 0)
(3 7.36701e-07 0)
(2.99999 2.26839e-06 0)
(2.99997 6.83762e-06 0)
(2.99992 1.62111e-05 0)
(2.99983 4.30748e-05 0)
(2.99957 9.69462e-05 0)
(2.99904 0.000253304 0)
(2.99749 0.000555968 0)
(2.9945 0.0015229 0)
(2.98505 0.00311816 0)
(2.96687 0.00981821 0)
(2.90548 0.020375 0)
(2.74919 0.0693347 0)
(2.3434 0.171313 0)
(1.34337 0.519967 0)
(0.834886 0.609385 0)
(0.831681 0.632057 0)
(0.862353 0.641139 0)
(0.879925 0.67098 0)
(0.883112 0.71715 0)
(0.898813 0.772268 0)
(0.939903 0.832524 0)
(1.01309 0.894129 0)
(1.12705 0.94311 0)
(3 8.80915e-08 0)
(3 6.85797e-07 0)
(2.99999 2.11036e-06 0)
(2.99998 6.37572e-06 0)
(2.99994 1.51376e-05 0)
(2.99986 4.031e-05 0)
(2.99965 9.1106e-05 0)
(2.99922 0.000235998 0)
(2.99798 0.000534658 0)
(2.99558 0.00134558 0)
(2.98797 0.00316328 0)
(2.97387 0.0077273 0)
(2.92487 0.0188902 0)
(2.80442 0.05035 0)
(2.47955 0.132322 0)
(1.54428 0.385836 0)
(0.923523 0.62856 0)
(0.872285 0.667635 0)
(0.897212 0.681765 0)
(0.924893 0.698269 0)
(0.937446 0.734374 0)
(0.958166 0.78066 0)
(1.00109 0.830274 0)
(1.07088 0.877731 0)
(1.17277 0.91432 0)
(3 7.41923e-08 0)
(3 5.75702e-07 0)
(2.99999 1.77262e-06 0)
(2.99998 5.33738e-06 0)
(2.99995 1.26552e-05 0)
(2.99989 3.35374e-05 0)
(2.99973 7.55552e-05 0)
(2.99941 0.000195413 0)
(2.99842 0.00043592 0)
(2.9967 0.00112133 0)
(2.99033 0.0025327 0)
(2.98015 0.0065446 0)
(2.93938 0.0151226 0)
(2.84948 0.041834 0)
(2.58549 0.108735 0)
(1.76979 0.319249 0)
(1.06107 0.667727 0)
(0.900599 0.69922 0)
(0.918508 0.714442 0)
(0.953571 0.721204 0)
(0.980871 0.748174 0)
(1.00837 0.786249 0)
(1.05232 0.827147 0)
(1.11801 0.864782 0)
(1.20846 0.892866 0)
(3 6.09302e-08 0)
(3 4.69433e-07 0)
(2.99999 1.44657e-06 0)
(2.99999 4.33226e-06 0)
(2.99996 1.02491e-05 0)
(2.99992 2.69969e-05 0)
(2.99978 6.04826e-05 0)
(2.99952 0.000157046 0)
(2.99875 0.000338814 0)
(2.99733 0.000935358 0)
(2.99246 0.0018738 0)
(2.98446 0.00588292 0)
(2.95303 0.0117784 0)
(2.88656 0.0387533 0)
(2.68423 0.0926446 0)
(2.0396 0.291879 0)
(1.25045 0.696745 0)
(0.943431 0.731535 0)
(0.945678 0.738616 0)
(0.980553 0.739991 0)
(1.01875 0.757359 0)
(1.05166 0.788606 0)
(1.09579 0.822945 0)
(1.15744 0.85377 0)
(1.23812 0.876069 0)
(3 3.04188e-08 0)
(3 4.45153e-07 0)
(3 1.05942e-06 0)
(2.99999 3.97721e-06 0)
(2.99997 7.67021e-06 0)
(2.99994 2.47175e-05 0)
(2.99984 4.5573e-05 0)
(2.99964 0.000143641 0)
(2.99906 0.000257814 0)
(2.99798 0.000847368 0)
(2.99443 0.0013809 0)
(2.98847 0.00544628 0)
(2.9658 0.00752076 0)
(2.92057 0.0360796 0)
(2.77793 0.0640386 0)
(2.34018 0.242285 0)
(1.5327 0.603903 0)
(1.05824 0.737236 0)
(1.00676 0.756408 0)
(1.02322 0.761662 0)
(1.06102 0.768371 0)
(1.0961 0.791473 0)
(1.13726 0.819801 0)
(1.19295 0.84518 0)
(1.26445 0.863156 0)
(3 2.40173e-08 0)
(3 3.42393e-07 0)
(3 8.22573e-07 0)
(2.99999 3.0651e-06 0)
(2.99998 5.96132e-06 0)
(2.99995 1.90457e-05 0)
(2.99988 3.54377e-05 0)
(2.9997 0.000110374 0)
(2.99934 0.000200838 0)
(2.99827 0.00064444 0)
(2.99628 0.001081 0)
(2.98961 0.00404517 0)
(2.97776 0.00559062 0)
(2.93586 0.0258856 0)
(2.83532 0.0424066 0)
(2.55488 0.158526 0)
(1.77168 0.430722 0)
(1.16939 0.742114 0)
(1.05473 0.777538 0)
(1.06057 0.790771 0)
(1.09685 0.789719 0)
(1.13696 0.80046 0)
(1.17657 0.820602 0)
(1.22637 0.840211 0)
(1.28931 0.854144 0)
(3 5.12695e-08 0)
(3 1.8591e-07 0)
(3 8.85703e-07 0)
(2.99999 1.85921e-06 0)
(2.99998 6.16797e-06 0)
(2.99996 1.17867e-05 0)
(2.99991 3.65447e-05 0)
(2.99978 6.81209e-05 0)
(2.99951 0.000210289 0)
(2.99871 0.000383786 0)
(2.99726 0.00123523 0)
(2.99224 0.00209186 0)
(2.98396 0.00773228 0)
(2.95196 0.0123456 0)
(2.88348 0.0497733 0)
(2.67899 0.104137 0)
(2.04784 0.349022 0)
(1.35179 0.751094 0)
(1.10425 0.805445 0)
(1.09441 0.817955 0)
(1.12359 0.815011 0)
(1.16882 0.813806 0)
(1.21109 0.825006 0)
(1.25701 0.8387 0)
(1.31294 0.84865 0)
(3 3.17173e-08 0)
(3 1.73023e-07 0)
(3 6.42935e-07 0)
(3 1.64996e-06 0)
(2.99999 4.532e-06 0)
(2.99997 1.03812e-05 0)
(2.99993 2.69026e-05 0)
(2.99985 6.0064e-05 0)
(2.9996 0.00015464 0)
(2.99912 0.000339803 0)
(2.9977 0.000901704 0)
(2.99499 0.00189836 0)
(2.98634 0.00550016 0)
(2.96964 0.0113633 0)
(2.91471 0.0344899 0)
(2.77816 0.0877432 0)
(2.3991 0.242187 0)
(1.58951 0.676808 0)
(1.19365 0.813759 0)
(1.14263 0.833018 0)
(1.15641 0.83655 0)
(1.19864 0.829667 0)
(1.24351 0.831963 0)
(1.28661 0.83994 0)
(1.33609 0.846214 0)
(3 1.9139e-08 0)
(3 1.49189e-07 0)
(3 4.59023e-07 0)
(3 1.38668e-06 0)
(2.99999 3.28888e-06 0)
(2.99998 8.7451e-06 0)
(2.99995 1.97309e-05 0)
(2.99988 5.11788e-05 0)
(2.99974 0.000114317 0)
(2.99934 0.000294434 0)
(2.99856 0.000664072 0)
(2.99607 0.00168307 0)
(2.99185 0.00387512 0)
(2.97603 0.00979014 0)
(2.94754 0.0235799 0)
(2.845 0.061601 0)
(2.57406 0.175176 0)
(1.9265 0.462203 0)
(1.31029 0.8082 0)
(1.18893 0.846379 0)
(1.18903 0.858199 0)
(1.224 0.850834 0)
(1.27122 0.842893 0)
(1.31442 0.843578 0)
(1.35931 0.845897 0)
(3 1.7127e-08 0)
(3 9.19287e-08 0)
(3 3.42774e-07 0)
(3 8.78737e-07 0)
(2.99999 2.41323e-06 0)
(2.99999 5.52148e-06 0)
(2.99997 1.42788e-05 0)
(2.99992 3.18256e-05 0)
(2.99981 8.14724e-05 0)
(2.99958 0.00017964 0)
(2.99886 0.000468425 0)
(2.99767 0.000996758 0)
(2.9931 0.0028304 0)
(2.98595 0.00562775 0)
(2.95774 0.017847 0)
(2.89968 0.0381236 0)
(2.71844 0.121051 0)
(2.1915 0.340807 0)
(1.52611 0.769845 0)
(1.2545 0.859524 0)
(1.22839 0.874671 0)
(1.24757 0.871818 0)
(1.2921 0.858653 0)
(1.33824 0.851575 0)
(1.38172 0.848956 0)
(3 6.4749e-09 0)
(3 8.01019e-08 0)
(3 2.02617e-07 0)
(3 7.21051e-07 0)
(3 1.46102e-06 0)
(2.99999 4.46287e-06 0)
(2.99998 8.63203e-06 0)
(2.99994 2.56013e-05 0)
(2.99987 4.86425e-05 0)
(2.99966 0.000146627 0)
(2.99924 0.000265608 0)
(2.99804 0.000881008 0)
(2.9957 0.00144058 0)
(2.98854 0.0056066 0)
(2.9744 0.00880334 0)
(2.93007 0.0358509 0)
(2.82124 0.0714681 0)
(2.5171 0.237541 0)
(1.79398 0.632061 0)
(1.36319 0.852231 0)
(1.27985 0.881455 0)
(1.28105 0.889736 0)
(1.31505 0.877682 0)
(1.36019 0.863103 0)
(1.4028 0.855568 0)
(3 1.15364e-08 0)
(3 4.6346e-08 0)
(3 2.06306e-07 0)
(3 4.57584e-07 0)
(3 1.43968e-06 0)
(2.99999 2.89863e-06 0)
(2.99998 8.5224e-06 0)
(2.99996 1.68011e-05 0)
(2.99991 4.88079e-05 0)
(2.99976 9.55632e-05 0)
(2.99947 0.000278826 0)
(2.99865 0.000541688 0)
(2.99704 0.00161488 0)
(2.99209 0.00306731 0)
(2.983 0.00965719 0)
(2.95232 0.0183599 0)
(2.88224 0.0607684 0)
(2.68453 0.137274 0)
(2.09901 0.434014 0)
(1.52334 0.823778 0)
(1.33432 0.890343 0)
(1.31634 0.903353 0)
(1.33499 0.896268 0)
(1.3776 0.877605 0)
(1.42162 0.864304 0)
(3 7.02161e-09 0)
(3 3.82611e-08 0)
(3 1.42182e-07 0)
(3 3.64849e-07 0)
(3 1.0017e-06 0)
(3 2.29555e-06 0)
(2.99999 5.94027e-06 0)
(2.99997 1.32885e-05 0)
(2.99993 3.39833e-05 0)
(2.99985 7.55351e-05 0)
(2.99962 0.000193153 0)
(2.99915 0.000428187 0)
(2.99781 0.00110106 0)
(2.99521 0.00243814 0)
(2.9872 0.00641792 0)
(2.97147 0.0142199 0)
(2.92164 0.0387824 0)
(2.79897 0.101527 0)
(2.45776 0.273049 0)
(1.76279 0.718515 0)
(1.41998 0.881523 0)
(1.36081 0.906134 0)
(1.36294 0.910862 0)
(1.39583 0.894916 0)
(1.43848 0.873198 0)
(3 3.74198e-09 0)
(3 2.90773e-08 0)
(3 8.95707e-08 0)
(3 2.69436e-07 0)
(3 6.38665e-07 0)
(3 1.68505e-06 0)
(2.99999 3.79304e-06 0)
(2.99998 9.73517e-06 0)
(2.99996 2.16499e-05 0)
(2.99989 5.53162e-05 0)
(2.99977 0.00012254 0)
(2.9994 0.000314116 0)
(2.99872 0.000693282 0)
(2.99652 0.00179814 0)
(2.99281 0.00397593 0)
(2.97913 0.0104542 0)
(2.95483 0.0244489 0)
(2.86799 0.0645806 0)
(2.64429 0.179822 0)
(2.10245 0.472627 0)
(1.54378 0.854503 0)
(1.40561 0.911724 0)
(1.39173 0.921172 0)
(1.40936 0.911025 0)
(1.44781 0.884424 0)
(3 3.8291e-09 0)
(3 1.58356e-08 0)
(3 6.89924e-08 0)
(3 1.55934e-07 0)
(3 4.80321e-07 0)
(3 9.83312e-07 0)
(2.99999 2.82185e-06 0)
(2.99999 5.65311e-06 0)
(2.99997 1.59635e-05 0)
(2.99993 3.17537e-05 0)
(2.99983 8.96471e-05 0)
(2.99963 0.000176909 0)
(2.99905 0.000509855 0)
(2.99794 0.000967277 0)
(2.99441 0.00304674 0)
(2.98842 0.00528331 0)
(2.96645 0.0190224 0)
(2.92294 0.0336864 0)
(2.78507 0.12256 0)
(2.39215 0.308075 0)
(1.7956 0.740313 0)
(1.48834 0.893988 0)
(1.43276 0.918303 0)
(1.43139 0.91785 0)
(1.45723 0.895805 0)
(3 1.36586e-09 0)
(3 1.45537e-08 0)
(3 3.90262e-08 0)
(3 1.31719e-07 0)
(3 2.80159e-07 0)
(3 8.15487e-07 0)
(3 1.65854e-06 0)
(2.99999 4.67059e-06 0)
(2.99998 9.40279e-06 0)
(2.99996 2.62961e-05 0)
(2.99989 5.27069e-05 0)
(2.99975 0.000147814 0)
(2.99937 0.000294055 0)
(2.99864 0.0008436 0)
(2.9964 0.00161218 0)
(2.99245 0.00507986 0)
(2.97847 0.00882429 0)
(2.95335 0.0318192 0)
(2.86689 0.0609569 0)
(2.63235 0.212764 0)
(2.10976 0.518804 0)
(1.60511 0.867725 0)
(1.47365 0.921824 0)
(1.45396 0.923311 0)
(1.46302 0.903062 0)
(3 9.36697e-10 0)
(3 9.80233e-09 0)
(3 2.64214e-08 0)
(3 8.86744e-08 0)
(3 1.89294e-07 0)
(3 5.48261e-07 0)
(3 1.11892e-06 0)
(2.99999 3.13506e-06 0)
(2.99999 6.33625e-06 0)
(2.99997 1.76147e-05 0)
(2.99993 3.54827e-05 0)
(2.99983 9.86389e-05 0)
(2.99963 0.000197866 0)
(2.99904 0.000555958 0)
(2.99794 0.00109141 0)
(2.99443 0.00324586 0)
(2.98842 0.00591027 0)
(2.96667 0.0201526 0)
(2.924 0.0365948 0)
(2.78737 0.128179 0)
(2.40195 0.326361 0)
(1.84092 0.748811 0)
(1.54688 0.899744 0)
(1.48279 0.916961 0)
(1.46923 0.894295 0)
(3 1.16603e-09 0)
(3 5.01561e-09 0)
(3 2.13275e-08 0)
(3 4.90345e-08 0)
(3 1.48259e-07 0)
(3 3.08092e-07 0)
(3 8.6864e-07 0)
(3 1.76698e-06 0)
(2.99999 4.8998e-06 0)
(2.99998 9.917e-06 0)
(2.99996 2.7405e-05 0)
(2.99989 5.52994e-05 0)
(2.99976 0.000153266 0)
(2.99938 0.000307248 0)
(2.99865 0.000869175 0)
(2.99646 0.00168078 0)
(2.99252 0.00518189 0)
(2.97897 0.00918321 0)
(2.95442 0.032256 0)
(2.87087 0.0623008 0)
(2.64467 0.215429 0)
(2.14575 0.521358 0)
(1.65298 0.871491 0)
(1.50317 0.914776 0)
(1.46073 0.875513 0)
(3 6.47653e-10 0)
(3 3.52554e-09 0)
(3 1.30697e-08 0)
(3 3.35315e-08 0)
(3 9.14882e-08 0)
(3 2.09217e-07 0)
(3 5.36277e-07 0)
(3 1.19597e-06 0)
(2.99999 3.02125e-06 0)
(2.99999 6.69881e-06 0)
(2.99997 1.68623e-05 0)
(2.99993 3.73094e-05 0)
(2.99984 9.38895e-05 0)
(2.99964 0.000207221 0)
(2.99908 0.000524714 0)
(2.99802 0.00114315 0)
(2.99467 0.00300805 0)
(2.98894 0.00626632 0)
(2.96838 0.0181356 0)
(2.92839 0.0389157 0)
(2.80052 0.116541 0)
(2.44457 0.322476 0)
(1.88439 0.718015 0)
(1.54508 0.870599 0)
(1.43498 0.829326 0)
(3 2.3395e-10 0)
(3 2.54279e-09 0)
(3 6.75351e-09 0)
(3 2.29631e-08 0)
(3 4.83733e-08 0)
(3 1.41392e-07 0)
(3 2.8429e-07 0)
(3 8.02579e-07 0)
(3 1.59526e-06 0)
(2.99999 4.46596e-06 0)
(2.99998 8.84027e-06 0)
(2.99995 2.47256e-05 0)
(2.9999 4.8742e-05 0)
(2.99974 0.000136981 0)
(2.99943 0.000267568 0)
(2.99853 0.000770142 0)
(2.99679 0.00144466 0)
(2.99153 0.00455375 0)
(2.98155 0.00780548 0)
(2.94979 0.0278978 0)
(2.87522 0.053082 0)
(2.66822 0.176347 0)
(2.13088 0.460029 0)
(1.60129 0.787628 0)
(1.36575 0.759542 0)
(3 2.48448e-10 0)
(3 1.34169e-09 0)
(3 4.9732e-09 0)
(3 1.27536e-08 0)
(3 3.46903e-08 0)
(3 7.92377e-08 0)
(3 2.02044e-07 0)
(3 4.49567e-07 0)
(3 1.1278e-06 0)
(2.99999 2.49221e-06 0)
(2.99999 6.22351e-06 0)
(2.99997 1.37124e-05 0)
(2.99993 3.42209e-05 0)
(2.99982 7.52218e-05 0)
(2.99961 0.000188257 0)
(2.999 0.000412477 0)
(2.99783 0.00104397 0)
(2.99423 0.00227197 0)
(2.98784 0.00591982 0)
(2.9657 0.0130905 0)
(2.92083 0.0344265 0)
(2.78459 0.0898643 0)
(2.39424 0.246145 0)
(1.72657 0.573804 0)
(1.26367 0.631877 0)
(3 1.87635e-10 0)
(3 7.12049e-10 0)
(3 3.28936e-09 0)
(3 7.03168e-09 0)
(3 2.26432e-08 0)
(3 4.38084e-08 0)
(3 1.3122e-07 0)
(3 2.47384e-07 0)
(3 7.3051e-07 0)
(3 1.36219e-06 0)
(2.99999 4.02178e-06 0)
(2.99998 7.42389e-06 0)
(2.99995 2.2043e-05 0)
(2.99987 4.00358e-05 0)
(2.99971 0.000120713 0)
(2.99924 0.000210628 0)
(2.99834 0.000674138 0)
(2.99558 0.00101942 0)
(2.99058 0.00393165 0)
(2.97298 0.00433781 0)
(2.93956 0.0224187 0)
(2.82346 0.0261753 0)
(2.51039 0.117043 0)
(1.82906 0.245121 0)
(1.11499 0.42211 0)
(3 1.17293e-10 0)
(3 3.76391e-10 0)
(3 1.94524e-09 0)
(3 3.80445e-09 0)
(3 1.33451e-08 0)
(3 2.37609e-08 0)
(3 7.73657e-08 0)
(3 1.3388e-07 0)
(3 4.31586e-07 0)
(3 7.35125e-07 0)
(2.99999 2.38738e-06 0)
(2.99998 4.00288e-06 0)
(2.99996 1.32029e-05 0)
(2.9999 2.15905e-05 0)
(2.99975 7.34038e-05 0)
(2.99946 0.000111685 0)
(2.9985 0.000420402 0)
(2.99694 0.000499387 0)
(2.99062 0.0024624 0)
(2.98071 0.00157591 0)
(2.93934 0.013958 0)
(2.84751 0.00555376 0)
(2.57531 0.0616276 0)
(1.77023 0.0911962 0)
(0.973511 0.217873 0)
(3 4.50778e-12 0)
(3 3.42877e-10 0)
(3 5.96244e-10 0)
(3 2.93498e-09 0)
(3 4.30896e-09 0)
(3 1.763e-08 0)
(3 2.44329e-08 0)
(3 9.80152e-08 0)
(3 1.30326e-07 0)
(3 5.36028e-07 0)
(2.99999 6.83377e-07 0)
(2.99999 2.93846e-06 0)
(2.99996 3.54287e-06 0)
(2.99992 1.63295e-05 0)
(2.99978 1.70465e-05 0)
(2.99953 9.71081e-05 0)
(2.99867 4.90309e-05 0)
(2.99728 0.000640965 0)
(2.9915 -0.000130223 0)
(2.98253 0.00410029 0)
(2.94383 -0.00186158 0)
(2.8586 0.024315 0)
(2.59727 0.00300105 0)
(1.76679 0.0798028 0)
(0.865952 0.124826 0)
(3 1.70028e-11 0)
(3 1.30866e-10 0)
(3 4.04014e-10 0)
(3 1.19729e-09 0)
(3 2.82652e-09 0)
(3 7.27441e-09 0)
(3 1.62094e-08 0)
(3 4.03017e-08 0)
(3 8.84904e-08 0)
(3 2.18122e-07 0)
(2.99999 4.77481e-07 0)
(2.99999 1.1741e-06 0)
(2.99997 2.57097e-06 0)
(2.99992 6.29206e-06 0)
(2.99982 1.38669e-05 0)
(2.99949 3.34449e-05 0)
(2.99895 7.40037e-05 0)
(2.99679 0.000183459 0)
(2.99346 0.000379707 0)
(2.97927 0.00108022 0)
(2.95464 0.00219181 0)
(2.85413 0.00693053 0)
(2.58729 0.0173472 0)
(1.90261 0.0499785 0)
(0.826725 0.125935 0)
(3 4.04316e-11 0)
(3 3.009e-12 0)
(3 4.70178e-10 0)
(3 2.34773e-10 0)
(3 3.17309e-09 0)
(3 1.73548e-09 0)
(3 1.87812e-08 0)
(3 1.0258e-08 0)
(3 1.08008e-07 0)
(3 5.65177e-08 0)
(2.99999 6.17028e-07 0)
(2.99999 2.88669e-07 0)
(2.99997 3.53497e-06 0)
(2.99993 1.22314e-06 0)
(2.9998 2.14255e-05 0)
(2.99958 -1.48128e-06 0)
(2.99879 0.000159063 0)
(2.99754 -0.000109733 0)
(2.99225 0.00123551 0)
(2.98403 -0.00103305 0)
(2.94864 0.00817084 0)
(2.87118 -0.00548895 0)
(2.63191 0.0412535 0)
(1.859 0.0466675 0)
(0.868199 0.165222 0)
(3 -2.10364e-11 0)
(3 1.12412e-10 0)
(3 -6.50666e-11 0)
(3 8.51355e-10 0)
(3 -3.40635e-10 0)
(3 5.00274e-09 0)
(3 -2.28556e-09 0)
(3 2.80337e-08 0)
(3 -1.59037e-08 0)
(3 1.56342e-07 0)
(2.99999 -1.09322e-07 0)
(2.99999 8.80212e-07 0)
(2.99997 -7.50431e-07 0)
(2.99993 5.14045e-06 0)
(2.99982 -5.50495e-06 0)
(2.9996 3.53529e-05 0)
(2.99886 -5.41117e-05 0)
(2.99769 0.000316779 0)
(2.99272 -0.000483933 0)
(2.98506 0.00268678 0)
(2.95192 -0.00294435 0)
(2.88016 0.0187937 0)
(2.65652 0.00158777 0)
(1.92707 0.0795388 0)
(0.920276 0.171343 0)
(3 5.03147e-12 0)
(3 3.94114e-11 0)
(3 1.20256e-10 0)
(3 3.63419e-10 0)
(3 8.58679e-10 0)
(3 2.31201e-09 0)
(3 5.22091e-09 0)
(3 1.38913e-08 0)
(3 3.11918e-08 0)
(3 8.38213e-08 0)
(2.99999 1.89217e-07 0)
(2.99999 5.15021e-07 0)
(2.99997 1.17461e-06 0)
(2.99992 3.17412e-06 0)
(2.99983 7.66256e-06 0)
(2.99954 1.89674e-05 0)
(2.99902 4.99805e-05 0)
(2.99718 0.000124927 0)
(2.9942 0.000279675 0)
(2.982 0.000981734 0)
(2.961 0.00198739 0)
(2.8775 0.0075909 0)
(2.65843 0.0197463 0)
(2.07784 0.0620099 0)
(0.92576 0.185026 0)
(3 1.28527e-12 0)
(3 3.94542e-12 0)
(3 1.79756e-11 0)
(3 4.5856e-11 0)
(3 1.35154e-10 0)
(3 3.15611e-10 0)
(3 8.52213e-10 0)
(3 1.92296e-09 0)
(3 5.09296e-09 0)
(3 1.11405e-08 0)
(2.99999 3.03034e-08 0)
(2.99999 6.21467e-08 0)
(2.99997 1.86291e-07 0)
(2.99994 3.39004e-07 0)
(2.99983 1.35708e-06 0)
(2.99964 1.52636e-06 0)
(2.99895 1.76679e-05 0)
(2.99788 -7.18525e-06 0)
(2.99343 0.000241945 0)
(2.98649 0.000139369 0)
(2.95745 0.00221836 0)
(2.89526 0.00402917 0)
(2.70262 0.0200138 0)
(2.08848 0.0587419 0)
(1.02 0.172735 0)
(3 -2.72231e-11 0)
(3 5.26099e-11 0)
(3 -2.33414e-10 0)
(3 3.1567e-10 0)
(3 -1.51876e-09 0)
(3 1.70226e-09 0)
(3 -9.18096e-09 0)
(3 8.90788e-09 0)
(3 -5.54083e-08 0)
(3 4.48145e-08 0)
(2.99999 -3.38643e-07 0)
(2.99999 2.15285e-07 0)
(2.99997 -2.10395e-06 0)
(2.99992 1.09595e-06 0)
(2.99983 -1.35416e-05 0)
(2.99956 9.71311e-06 0)
(2.99902 -9.38258e-05 0)
(2.99737 0.000125675 0)
(2.99432 -0.000589391 0)
(2.98365 0.0014231 0)
(2.9643 -0.00328613 0)
(2.89271 0.0114139 0)
(2.70782 -0.00490786 0)
(2.21384 0.0462124 0)
(1.01975 0.114327 0)
(3 2.8851e-11 0)
(3 -4.51995e-11 0)
(3 2.64777e-10 0)
(3 -2.36118e-10 0)
(3 1.76857e-09 0)
(3 -1.12099e-09 0)
(3 1.08831e-08 0)
(3 -5.02428e-09 0)
(3 6.63955e-08 0)
(3 -1.96729e-08 0)
(3 4.07235e-07 0)
(2.99999 -5.27427e-08 0)
(2.99997 2.52669e-06 0)
(2.99993 7.72966e-08 0)
(2.99984 1.59315e-05 0)
(2.99957 2.133e-06 0)
(2.99905 0.000104693 0)
(2.99747 -2.8468e-06 0)
(2.99451 0.000768871 0)
(2.98434 -0.000463774 0)
(2.96571 0.0056089 0)
(2.8976 -0.00346016 0)
(2.72238 0.0300096 0)
(2.25276 0.0257076 0)
(1.04005 0.107816 0)
(3 2.6759e-11 0)
(3 -5.60529e-11 0)
(3 2.23759e-10 0)
(3 -3.38712e-10 0)
(3 1.47282e-09 0)
(3 -1.80787e-09 0)
(3 8.97656e-09 0)
(3 -9.47606e-09 0)
(3 5.4111e-08 0)
(3 -4.87772e-08 0)
(2.99999 3.26729e-07 0)
(2.99999 -2.45221e-07 0)
(2.99997 1.98773e-06 0)
(2.99994 -1.2053e-06 0)
(2.99983 1.22821e-05 0)
(2.99963 -5.90193e-06 0)
(2.99901 7.81242e-05 0)
(2.99792 -3.87053e-05 0)
(2.99394 0.000566919 0)
(2.9876 -0.000544624 0)
(2.96196 0.00460612 0)
(2.90962 -0.00451605 0)
(2.74422 0.0239226 0)
(2.22583 0.0120298 0)
(1.1562 0.0787424 0)
(3 3.09574e-12 0)
(3 2.47135e-11 0)
(3 7.52813e-11 0)
(3 2.29698e-10 0)
(3 5.43892e-10 0)
(3 1.46207e-09 0)
(3 3.30824e-09 0)
(3 8.62541e-09 0)
(3 1.93224e-08 0)
(3 4.96406e-08 0)
(2.99999 1.10549e-07 0)
(2.99999 2.80401e-07 0)
(2.99997 6.17313e-07 0)
(2.99993 1.55353e-06 0)
(2.99983 3.35042e-06 0)
(2.99963 8.83183e-06 0)
(2.99902 1.63056e-05 0)
(2.99787 5.80281e-05 0)
(2.9941 7.60529e-05 0)
(2.98769 0.000398878 0)
(2.96293 0.000658418 0)
(2.91278 0.00238847 0)
(2.75073 0.00655224 0)
(2.24683 0.0154845 0)
(1.19633 0.0502035 0)
(3 -1.88219e-11 0)
(3 1.00999e-10 0)
(3 -5.59308e-11 0)
(3 7.67625e-10 0)
(3 -2.545e-10 0)
(3 4.61785e-09 0)
(3 -1.33758e-09 0)
(3 2.68179e-08 0)
(3 -7.21984e-09 0)
(3 1.55169e-07 0)
(3 -3.92685e-08 0)
(2.99999 8.99839e-07 0)
(2.99997 -2.25341e-07 0)
(2.99994 5.24541e-06 0)
(2.99984 -1.54394e-06 0)
(2.99964 3.08624e-05 0)
(2.99905 -1.63919e-05 0)
(2.99797 0.000199709 0)
(2.99422 -0.000260581 0)
(2.98809 0.00150269 0)
(2.96357 -0.00303542 0)
(2.91471 0.00905091 0)
(2.75473 -0.0134161 0)
(2.25985 0.0183519 0)
(1.22129 0.0051663 0)
(3 9.99332e-13 0)
(3 7.67179e-12 0)
(3 2.37618e-11 0)
(3 7.10353e-11 0)
(3 1.69393e-10 0)
(3 4.44901e-10 0)
(3 1.00939e-09 0)
(3 2.57379e-09 0)
(3 5.77702e-09 0)
(3 1.4568e-08 0)
(3 3.25778e-08 0)
(2.99999 8.14697e-08 0)
(2.99997 1.81486e-07 0)
(2.99993 4.50694e-07 0)
(2.99985 9.96956e-07 0)
(2.99961 2.47364e-06 0)
(2.99916 5.38471e-06 0)
(2.99767 1.3997e-05 0)
(2.99517 2.83417e-05 0)
(2.98539 8.45893e-05 0)
(2.96867 0.000166614 0)
(2.90509 0.000504366 0)
(2.74335 0.00135084 0)
(2.31023 0.00344981 0)
(1.13275 0.0131866 0)
(3 2.28289e-11 0)
(3 -6.93e-11 0)
(3 1.52001e-10 0)
(3 -4.77756e-10 0)
(3 9.3612e-10 0)
(3 -2.79285e-09 0)
(3 5.44506e-09 0)
(3 -1.60488e-08 0)
(3 3.13014e-08 0)
(3 -9.23226e-08 0)
(3 1.79971e-07 0)
(2.99999 -5.3432e-07 0)
(2.99997 1.04646e-06 0)
(2.99994 -3.13092e-06 0)
(2.99984 6.30437e-06 0)
(2.99965 -1.88774e-05 0)
(2.99906 4.40879e-05 0)
(2.99799 -0.000138071 0)
(2.99428 0.000428477 0)
(2.9882 -0.00121909 0)
(2.96392 0.00381047 0)
(2.91571 -0.00756547 0)
(2.75707 0.0175522 0)
(2.27065 -0.0085212 0)
(1.24185 0.0271572 0)
(1.12897 0.991733 0)
(1.05458 0.70275 0)
(0.189994 0.447474 0)
(-0.437881 0.0376779 0)
(-0.523832 -0.0155389 0)
(-0.696958 -0.0257672 0)
(-0.761259 -0.0150747 0)
(-0.807775 0.00627793 0)
(-0.86849 0.0180488 0)
(-0.93432 0.0176997 0)
(-0.991526 0.0113804 0)
(-1.03999 0.00496821 0)
(-1.08645 0.000513129 0)
(-1.13543 -0.00219985 0)
(-1.17793 0.000334623 0)
(-1.20139 0.00161143 0)
(-1.2082 0.000433688 0)
(-1.2065 -0.00207201 0)
(-1.19209 -0.00499785 0)
(-1.15985 -0.00813652 0)
(-1.11206 -0.0113069 0)
(-1.05298 -0.0139154 0)
(-0.987583 -0.0156192 0)
(-0.919674 -0.0165086 0)
(-0.851396 -0.0169536 0)
(-0.784538 -0.0169639 0)
(-0.719875 -0.0167179 0)
(-0.657348 -0.0163513 0)
(-0.596724 -0.016042 0)
(-0.537578 -0.0158271 0)
(-0.479562 -0.0157854 0)
(-0.422679 -0.0159146 0)
(-0.364854 -0.0177907 0)
(-0.30813 -0.0186429 0)
(-0.252875 -0.0193867 0)
(-0.199026 -0.0201551 0)
(-0.146597 -0.021393 0)
(-0.095617 -0.0228296 0)
(-0.0456662 -0.0245074 0)
(0.00480677 -0.0270465 0)
(0.0584824 -0.0257247 0)
(0.104394 -0.0233859 0)
(0.15036 -0.0225303 0)
(0.193694 -0.0215626 0)
(0.235578 -0.0207776 0)
(0.274599 -0.0197665 0)
(0.311942 -0.0191003 0)
(0.350196 -0.0190216 0)
(0.388981 -0.0190841 0)
(0.426243 -0.018407 0)
(0.462081 -0.0175626 0)
(0.496735 -0.0168014 0)
(0.53043 -0.0161707 0)
(0.563252 -0.0155645 0)
(0.595283 -0.0150008 0)
(0.62653 -0.0144354 0)
(0.657075 -0.0138916 0)
(0.686941 -0.0133623 0)
(0.716167 -0.0128424 0)
(0.744785 -0.012343 0)
(0.772821 -0.0118467 0)
(0.800315 -0.0113724 0)
(0.82727 -0.0109051 0)
(0.853728 -0.0104534 0)
(0.879702 -0.0100128 0)
(0.905214 -0.00958733 0)
(0.930285 -0.00916992 0)
(0.954934 -0.0087686 0)
(0.979174 -0.00837331 0)
(1.00302 -0.00799237 0)
(1.02649 -0.00761634 0)
(1.04959 -0.00725308 0)
(1.07232 -0.00689239 0)
(1.09469 -0.00654359 0)
(1.1167 -0.00619566 0)
(1.13835 -0.00585853 0)
(1.15963 -0.00552362 0)
(1.18055 -0.00519847 0)
(1.2011 -0.0048794 0)
(1.22127 -0.00456943 0)
(1.24107 -0.0042693 0)
(1.26051 -0.00397737 0)
(1.27958 -0.00369659 0)