/*--------------------------------*- C++ -*----------------------------------*\
| =========                 |                                                 |
| \\      /  F ield         | OpenFOAM: The Open Source CFD Toolbox           |
|  \\    /   O peration     | Version:  2412                                  |
|   \\  /    A nd           | Website:  www.openfoam.com                      |
|    \\/     M anipulation  |                                                 |
\*---------------------------------------------------------------------------*/
FoamFile
{
    version     2.0;
    format      ascii;
    arch        "LSB;label=32;scalar=64";
    class       volScalarField;
    location    "9";
    object      p;
}
// * * * * * * * * * * * * * * * * * * * * * * * * * * * * * * * * * * * * * //

dimensions      [1 -1 -2 0 0 0 0];

internalField   nonuniform List<scalar> 
200
(
1.17637
0.879803
1.07019
0.93165
1.03644
0.979522
1.00662
0.999113
0.999431
1.00009
1.17276
0.857325
1.04749
0.987755
0.99714
0.99586
0.996149
0.996982
0.997973
0.998725
1.17132
0.863243
1.04402
0.982825
0.998504
0.996442
0.996914
0.998104
0.999038
0.999684
1.16942
0.887503
1.04842
0.953197
1.00075
0.981879
0.989717
0.992294
0.995203
0.997085
1.17527
0.910784
1.04743
0.975778
1.00378
0.993653
0.995643
0.995991
0.996914
0.997825
1.20313
0.918058
1.02705
0.976484
0.994424
0.991177
0.993275
0.994339
0.995564
0.996735
1.20201
0.858504
1.06287
0.942874
1.00855
0.977107
0.989759
0.987083
0.990816
0.993188
1.19472
0.822386
1.05148
0.982967
0.993971
0.991439
0.991625
0.992814
0.994126
0.995425
1.19828
0.824728
1.05637
0.98676
0.995773
0.995686
0.995317
0.995447
0.996156
0.997154
1.20098
0.857223
1.08731
0.920993
1.04255
0.987233
1.00295
1.00156
0.999854
0.999659
1.00048
1.00022
1.00001
0.999857
0.99978
0.999759
0.999754
0.999751
0.999733
0.999679
0.99923
0.999241
0.999112
0.999203
0.999392
0.999571
0.99969
0.999751
0.999749
0.999711
1.00004
1.00008
1.00002
0.999981
0.999942
0.999891
0.999848
0.999797
0.999749
0.999697
0.998467
0.999032
0.999288
0.999417
0.999574
0.999678
0.999747
0.999767
0.999746
0.999707
0.998673
0.998976
0.999325
0.999567
0.99975
0.999791
0.999802
0.999776
0.99974
0.9997
0.997768
0.998543
0.999216
0.999418
0.99965
0.99971
0.999723
0.999709
0.999687
0.999674
0.996089
0.998039
0.999206
0.99942
0.999596
0.999653
0.999653
0.99963
0.999622
0.999644
0.997279
0.998603
0.999382
0.999583
0.99964
0.999662
0.999626
0.999549
0.999536
0.999642
0.998503
0.999447
0.999978
1.00011
0.999974
0.999864
0.999815
0.99964
0.999561
0.9997
0.999905
1.00012
1.00028
1.00031
1.00018
1.00004
0.999918
0.999761
0.999659
0.999747
)
;

boundaryField
{
    inlet
    {
        type            fixedValue;
        value           uniform 1;
    }
    sym
    {
        type            slip;
    }
    wedge
    {
        type            slip;
    }
    top
    {
        type            slip;
    }
    back
    {
        type            empty;
    }
    front
    {
        type            empty;
    }
    outlet
    {
        type            zeroGradient;
    }
}


// ************************************************************************* //
