/*--------------------------------*- C++ -*----------------------------------*\
| =========                 |                                                 |
| \\      /  F ield         | OpenFOAM: The Open Source CFD Toolbox           |
|  \\    /   O peration     | Version:  2412                                  |
|   \\  /    A nd           | Website:  www.openfoam.com                      |
|    \\/     M anipulation  |                                                 |
\*---------------------------------------------------------------------------*/
FoamFile
{
    version     2.0;
    format      ascii;
    arch        "LSB;label=32;scalar=64";
    class       surfaceScalarField;
    location    "9";
    object      phi;
}
// * * * * * * * * * * * * * * * * * * * * * * * * * * * * * * * * * * * * * //

dimensions      [1 0 -1 0 0 0 0];

oriented        oriented;

internalField   nonuniform List<scalar> 
370
(
6.34485e-05
0.000105753
-0.000175343
0.000240624
-0.000187402
1.39471e-05
0.000298884
-0.000488776
0.000278871
1.98846e-05
0.00041949
-0.000141232
0.00043065
-1.18274e-05
0.000430358
-2.8652e-08
0.000420039
1.00058e-05
1.7048e-05
0.000402482
0.000376496
-0.000108553
0.000801417
-0.000186504
0.000980669
-0.0001661
0.000635691
-0.000144756
0.000741666
-8.74241e-05
0.000627259
-2.815e-05
0.000553064
6.0912e-05
0.00043671
0.000115084
0.000317627
0.000128816
0.000113807
0.000220399
0.00035122
-0.000312777
0.000683015
-0.000519789
0.000635859
-0.000121059
0.000473291
1.76442e-05
0.000416057
-3.17869e-05
0.000300832
8.64751e-05
0.00020903
0.000152239
0.000120897
0.000202561
5.02731e-05
0.000198116
0.000157014
5.84501e-06
0.000205898
-0.000385422
-4.73653e-05
-0.000267729
-0.000397218
0.000226053
-0.000445133
6.48443e-05
-0.000600452
0.000121076
-0.000601603
8.69434e-05
-0.000563535
0.000112904
-0.000482171
0.0001202
-0.000395186
0.000110013
8.53788e-05
-0.000324456
-0.000230888
-0.000136125
-0.00059863
9.86193e-05
-0.000580717
0.000201794
-0.000617165
0.000102644
-0.000641716
0.000142413
-0.000663573
0.000108265
-0.000639932
8.77972e-05
-0.000580762
5.98795e-05
-0.000495164
2.33583e-05
-5.69378e-06
-0.000405015
-0.000589189
0.000301021
-0.00114451
0.000651478
-0.00079685
-0.000146426
-0.000871609
0.000175858
-0.000747922
1.70838e-05
-0.000702529
6.10071e-05
-0.000605018
-1.19087e-05
-0.000512797
-3.45196e-05
-0.000412164
-7.90884e-05
-0.000105362
-0.00031431
5.54402e-05
0.000343312
-3.13689e-05
0.000736271
-0.000401304
0.000222067
-0.0003187
9.0505e-05
-0.000457154
0.000153006
-0.000415431
1.73659e-05
-0.000403767
-2.56482e-05
-0.000335272
-0.000104512
-0.00026105
-0.000153622
-0.000182021
-0.000183976
0.000349638
0.000128211
0.000808889
0.000271767
0.000742318
0.000287165
0.000596003
0.000236305
0.000569946
0.000177074
0.000498858
8.71184e-05
0.00044408
2.8867e-05
0.000385442
-4.57867e-05
0.000330578
-0.000100168
-0.000136584
0.000284254
0.000355435
-8.09686e-05
0.000841251
-0.000219841
0.00107495
5.00682e-05
0.000724317
0.000585457
0.000857291
4.27413e-05
0.000815607
0.00012776
0.000806288
3.8161e-05
0.000758317
3.06218e-06
0.00067762
-1.94267e-05
-3.44979e-05
0.000574544
2.75952e-05
-0.000205866
-0.000162606
0.000425554
0.000465201
0.00059102
0.000629385
0.000631957
0.000611896
0.00057792
0.000390562
1.03657e-05
0.000380542
8.36005e-06
0.000367487
1.15859e-05
0.000343732
2.23593e-05
0.000314064
2.83425e-05
0.00028303
2.97053e-05
0.000252653
2.90865e-05
0.00022634
2.50761e-05
0.000205531
1.96389e-05
1.60217e-05
4.90517e-05
0.000179542
-3.30077e-05
8.89044e-05
-5.31622e-05
3.03126e-05
-4.14e-05
9.18128e-06
-1.38426e-05
-6.03751e-07
1.83151e-05
-3.80705e-06
4.5173e-05
9.41989e-07
6.2058e-05
6.96206e-06
6.89885e-05
1.1542e-05
1.73498e-05
-6.72395e-05
0.00025078
-9.8697e-05
0.000118956
-9.1086e-05
2.11135e-05
-6.4218e-05
-1.92754e-05
-3.09782e-05
-3.53925e-05
-1.7175e-06
-3.45558e-05
2.11217e-05
-2.33369e-05
3.48323e-05
-8.10946e-06
3.98651e-05
5.22658e-06
1.90696e-05
-0.000252774
0.000177507
-0.00019756
6.20938e-05
-0.000124706
-5.34599e-05
-6.85601e-05
-7.71175e-05
-2.44316e-05
-8.11785e-05
8.32727e-06
-6.89257e-05
3.00447e-05
-4.66016e-05
4.25932e-05
-2.21223e-05
4.59998e-05
4.36833e-07
2.11346e-05
-0.000233835
4.75616e-06
-0.000118961
-5.48856e-05
-2.49151e-05
-0.000149615
2.97733e-05
-0.000133682
5.79203e-05
-0.000111099
7.27544e-05
-8.54885e-05
8.05056e-05
-5.60265e-05
8.20221e-05
-2.52266e-05
7.75883e-05
3.37405e-06
2.67657e-05
-0.000115965
-0.000197717
1.93104e-05
-0.000194482
6.62043e-05
-0.000199853
9.80651e-05
-0.000167838
0.00010943
-0.000124343
0.000111875
-8.97299e-05
0.000110822
-5.67325e-05
0.000106243
-2.23478e-05
9.76134e-05
1.03946e-05
3.18474e-05
-1.72766e-05
-0.000363825
0.000112413
-0.000326331
0.000141408
-0.000232032
0.000147533
-0.000176513
0.000143697
-0.00012254
0.000134503
-8.2376e-05
0.000128008
-5.20491e-05
0.00012001
-1.61364e-05
0.000107802
2.09078e-05
3.58529e-05
0.000241754
-0.000315366
0.000197026
-0.000278711
0.000172221
-0.000208537
0.00013903
-0.000145165
0.000108887
-9.43329e-05
9.1629e-05
-6.70925e-05
8.93672e-05
-5.17587e-05
8.65231e-05
-1.52051e-05
7.45193e-05
3.11198e-05
3.55764e-05
0.000381504
-0.000122674
0.000229152
-0.000128122
0.000117288
-9.91682e-05
3.32781e-05
-6.3555e-05
-1.30454e-05
-5.02427e-05
-2.33566e-05
-5.89746e-05
-1.92814e-05
-5.79624e-05
-1.13013e-05
-2.51707e-05
-1.23567e-06
1.91984e-05
2.7324e-05
0.000455467
0.000324747
0.000222769
0.000156788
0.000104188
4.29334e-05
-1.71731e-05
-4.43589e-05
-2.70394e-05
)
;

boundaryField
{
    inlet
    {
        type            calculated;
        value           nonuniform List<scalar> 10(-0.000161138 -0.00015509 -0.000144503 -0.000132701 -1.87686e-05 0.000156108 -8.36045e-05 -0.000115588 -0.000126398 -0.000122784);
    }
    sym
    {
        type            calculated;
        value           uniform 0;
    }
    wedge
    {
        type            calculated;
        value           nonuniform List<scalar> 10(-1.8482e-40 -1.19885e-20 2.39639e-20 2.39602e-20 2.39618e-20 1.19818e-20 1.19817e-20 1.19823e-20 2.39649e-20 1.19857e-20);
    }
    top
    {
        type            calculated;
        value           uniform 0;
    }
    back
    {
        type            empty;
    }
    front
    {
        type            empty;
    }
    outlet
    {
        type            calculated;
        value           nonuniform List<scalar> 10(0.000188407 6.65191e-05 3.69243e-05 4.2621e-05 7.05485e-05 9.10197e-05 0.000102184 7.30985e-05 5.27026e-06 -1.47899e-06);
    }
}


// ************************************************************************* //
