/*--------------------------------*- C++ -*----------------------------------*\
| =========                 |                                                 |
| \\      /  F ield         | OpenFOAM: The Open Source CFD Toolbox           |
|  \\    /   O peration     | Version:  2412                                  |
|   \\  /    A nd           | Website:  www.openfoam.com                      |
|    \\/     M anipulation  |                                                 |
\*---------------------------------------------------------------------------*/
FoamFile
{
    version     2.0;
    format      ascii;
    arch        "LSB;label=32;scalar=64";
    class       volVectorField;
    location    "9";
    object      U;
}
// * * * * * * * * * * * * * * * * * * * * * * * * * * * * * * * * * * * * * //

dimensions      [0 1 -1 0 0 0 0];

internalField   nonuniform List<vector> 
200
(
(-20.7074 0.528442 0)
(15.0691 2.16175 0)
(-11.1078 -0.626206 0)
(6.96433 -3.65809 0)
(-3.05705 -0.515816 0)
(2.97397 -1.30898 0)
(0.125689 -0.666505 0)
(1.17806 -0.540318 0)
(1.0549 -0.455406 0)
(0.93424 -0.374042 0)
(-14.6077 0.235169 0)
(9.89329 0.516378 0)
(-0.766828 0.686622 0)
(2.49416 -0.7091 0)
(1.4649 0.553058 0)
(1.52435 0.019443 0)
(1.40226 0.451105 0)
(1.16482 0.528181 0)
(0.865513 0.542822 0)
(0.601682 0.536649 0)
(-14.5865 -0.993725 0)
(9.95011 -3.16337 0)
(-1.86099 -2.55013 0)
(2.5728 -1.26923 0)
(0.630772 -1.28656 0)
(0.822117 -0.348951 0)
(0.625142 0.407488 0)
(0.380083 0.95126 0)
(0.179136 1.08301 0)
(0.0625045 0.894108 0)
(-15.8948 -1.6675 0)
(11.0899 -3.04387 0)
(-7.1301 1.48265 0)
(3.01111 1.30357 0)
(-3.43322 0.97003 0)
(-0.476261 1.04134 0)
(-1.66605 1.05947 0)
(-1.13219 1.0971 0)
(-1.0063 0.982659 0)
(-0.816678 0.761751 0)
(-13.5161 -1.7712 0)
(6.8063 -0.0729297 0)
(-5.88908 0.988855 0)
(1.38526 -0.15417 0)
(-2.77627 0.56581 0)
(-1.00923 0.261379 0)
(-1.65222 0.469885 0)
(-1.39001 0.480544 0)
(-1.23637 0.420374 0)
(-1.00097 0.31374 0)
(-13.0621 0.938135 0)
(4.46668 1.66167 0)
(-5.50428 0.628262 0)
(-0.0759672 1.52555 0)
(-2.64428 0.736584 0)
(-1.39781 0.946813 0)
(-1.5729 0.441457 0)
(-1.25683 0.211882 0)
(-1.04858 -0.170113 0)
(-0.772802 -0.388961 0)
(-20.5057 1.19713 0)
(14.1504 4.86445 0)
(-9.1016 -1.62494 0)
(4.29178 -0.0929216 0)
(-4.00155 -0.393919 0)
(0.670703 -0.470043 0)
(-1.80522 -0.622097 0)
(-0.48672 -0.731885 0)
(-0.811788 -0.877107 0)
(-0.420949 -0.952964 0)
(-18.0615 1.02122 0)
(12.2631 4.47602 0)
(-2.08504 3.37826 0)
(2.94223 1.7219 0)
(0.940325 1.69528 0)
(1.24265 0.790062 0)
(1.13937 0.36341 0)
(0.961298 -0.282481 0)
(0.824618 -0.726113 0)
(0.697663 -0.996044 0)
(-17.5176 -0.0675622 0)
(11.6631 -0.283184 0)
(-0.896264 -0.122529 0)
(2.70351 1.36004 0)
(1.80146 0.0774494 0)
(1.83261 0.273742 0)
(1.87089 -0.0580103 0)
(1.8275 -0.320346 0)
(1.67721 -0.48448 0)
(1.45543 -0.607951 0)
(-23.1138 -0.527786 0)
(16.6019 -2.18971 0)
(-11.9046 0.870351 0)
(7.28187 3.97033 0)
(-2.32011 0.72038 0)
(2.81174 0.967376 0)
(1.08178 0.594436 0)
(1.35709 0.384104 0)
(1.49963 0.298759 0)
(1.41888 0.241783 0)
(0.873704 -0.193372 -3.09818e-21)
(0.918991 -0.0221611 0)
(0.933389 0.13508 0)
(0.918012 0.244839 0)
(0.875891 0.308058 1.12493e-17)
(0.818992 0.334431 0)
(0.757954 0.333609 0)
(0.70036 0.315411 0)
(0.654941 0.290966 0)
(0.608865 0.263052 -6.77598e-18)
(0.269185 0.605568 -4.98316e-18)
(-0.0502007 0.336152 5.18796e-18)
(-0.124756 0.174557 0)
(-0.133833 0.114359 0)
(-0.0750127 0.0938398 4.64683e-22)
(0.00278595 0.0882669 0)
(0.0972545 0.103274 0)
(0.161673 0.10756 0)
(0.203808 0.105518 0)
(0.214665 0.10356 0)
(-0.0918898 0.586189 0)
(-0.238458 0.163108 -5.14732e-18)
(-0.243541 -0.0669016 0)
(-0.203698 -0.139447 0)
(-0.122367 -0.149507 -1.13641e-17)
(-0.0414638 -0.113555 5.88747e-18)
(0.0322914 -0.0572179 0)
(0.0880675 0.0086016 6.32137e-18)
(0.121272 0.0535023 0)
(0.118993 0.0891469 6.81432e-18)
(-0.678097 0.549179 0)
(-0.56498 0.250478 0)
(-0.409485 -0.00524493 0)
(-0.231641 -0.107145 0)
(-0.116821 -0.144089 5.67302e-18)
(-0.017597 -0.122965 -5.87913e-18)
(0.0628645 -0.0659293 0)
(0.108814 -0.00916499 -1.26359e-17)
(0.140709 0.0439685 0)
(0.137321 0.0898808 -6.81217e-18)
(-0.772479 0.235153 2.46818e-18)
(-0.384907 -0.0666253 2.56437e-18)
(-0.173568 -0.405544 0)
(0.0426721 -0.346149 2.74112e-18)
(0.117209 -0.293172 2.83078e-18)
(0.183703 -0.215416 0)
(0.218506 -0.127269 0)
(0.23951 -0.0363893 6.29992e-18)
(0.246736 0.0437983 0)
(0.227274 0.109976 0)
(-0.633351 -0.469962 -2.44669e-18)
(0.0491229 -0.33026 -2.55452e-18)
(0.0546754 -0.491158 0)
(0.252329 -0.397823 -2.72707e-18)
(0.271627 -0.296655 -2.82082e-18)
(0.301728 -0.204004 0)
(0.314434 -0.10892 0)
(0.318725 -0.0121459 0)
(0.311441 0.0758453 0)
(0.293307 0.137223 0)
(-0.39185 -0.902793 2.40653e-18)
(0.291549 -0.804082 0)
(0.271413 -0.613292 0)
(0.389845 -0.472958 0)
(0.38772 -0.332472 2.81664e-18)
(0.375764 -0.22228 0)
(0.365403 -0.125464 0)
(0.365875 -0.0198823 0)
(0.347326 0.0793768 0)
(0.329564 0.133463 3.3971e-18)
(0.560128 -1.0379 -1.20936e-18)
(0.527953 -0.909271 1.24732e-18)
(0.439778 -0.662343 0)
(0.397071 -0.478368 1.3617e-18)
(0.32406 -0.315414 -1.41581e-18)
(0.268546 -0.195984 1.46952e-18)
(0.237774 -0.120969 1.52292e-18)
(0.266397 -0.0111715 0)
(0.243374 0.0992998 1.64079e-18)
(0.23593 0.131615 -1.70459e-18)
(1.04675 -0.689966 -1.82741e-18)
(0.730412 -0.629232 -1.90406e-18)
(0.412558 -0.464593 0)
(0.178902 -0.300226 -2.07349e-18)
(-0.0154541 -0.19441 -7.15255e-19)
(-0.053062 -0.168532 -2.21843e-18)
(-0.0682721 -0.152574 -1.52701e-18)
(-0.0511686 -0.0559491 0)
(-0.0216313 0.0984903 -1.64857e-18)
(0.0166475 0.0988833 -2.5696e-18)
(1.18888 0.088758 6.1523e-19)
(0.948032 -0.0442526 6.3779e-19)
(0.662199 -0.0673577 0)
(0.466869 -0.0420246 6.8804e-19)
(0.340839 -0.0765066 -7.12997e-19)
(0.222845 -0.155923 7.39385e-19)
(0.017187 -0.178812 0)
(-0.122135 -0.087965 0)
(-0.151884 0.0135916 0)
(-0.00499975 0.0635358 8.56127e-19)
)
;

boundaryField
{
    inlet
    {
        type            fixedValue;
        value           uniform (3 0 0);
    }
    sym
    {
        type            slip;
    }
    wedge
    {
        type            slip;
    }
    top
    {
        type            slip;
    }
    back
    {
        type            empty;
    }
    front
    {
        type            empty;
    }
    outlet
    {
        type            inletOutlet;
        inletValue      uniform (3 0 0);
        value           nonuniform List<vector> 10((0.608865 0.263052 -6.77598e-18) (0.214665 0.10356 0) (0.118993 0.0891469 6.81432e-18) (0.137321 0.0898808 -6.81217e-18) (0.227274 0.109976 0) (0.293307 0.137223 0) (0.329564 0.133463 3.3971e-18) (0.23593 0.131615 -1.70459e-18) (0.0166475 0.0988833 -2.5696e-18) (3 0 0));
    }
}


// ************************************************************************* //
