/*--------------------------------*- C++ -*----------------------------------*\
| =========                 |                                                 |
| \\      /  F ield         | OpenFOAM: The Open Source CFD Toolbox           |
|  \\    /   O peration     | Version:  2412                                  |
|   \\  /    A nd           | Website:  www.openfoam.com                      |
|    \\/     M anipulation  |                                                 |
\*---------------------------------------------------------------------------*/
FoamFile
{
    version     2.0;
    format      ascii;
    arch        "LSB;label=32;scalar=64";
    class       volScalarField;
    location    "10";
    object      p;
}
// * * * * * * * * * * * * * * * * * * * * * * * * * * * * * * * * * * * * * //

dimensions      [1 -1 -2 0 0 0 0];

internalField   nonuniform List<scalar> 
200
(
1.17893
0.87571
1.07417
0.936727
1.04232
0.982778
1.00938
1.00253
1.0015
1.00205
1.17593
0.856418
1.06039
0.982594
1.0069
0.996013
0.999517
0.99603
0.998125
0.998515
1.17623
0.854873
1.06521
0.990541
1.01236
0.99477
1.00339
0.993723
1.00223
0.994778
1.17948
0.893075
1.05177
0.932933
1.02481
0.973553
1.01458
0.993052
1.00618
0.998495
1.17758
0.854783
1.05693
0.979876
1.01158
1.00119
1.0024
1.00221
1.003
1.00112
1.17741
0.881644
1.04982
0.946496
1.00171
0.982852
0.99301
0.99435
0.996758
0.99782
1.20495
0.918312
1.02374
0.979897
0.993422
0.990993
0.993106
0.993988
0.995127
0.996026
1.22547
0.891418
1.03121
0.978811
0.99616
0.992392
0.99438
0.994909
0.995571
0.996029
1.2396
0.809682
1.05312
0.93542
1.01062
0.973958
0.996505
0.985939
0.991303
0.991095
1.24031
0.790388
1.09424
1.00261
0.995295
0.996437
0.997012
0.996216
0.995795
0.995926
1.00297
1.00212
1.00254
1.00285
1.00314
1.00341
1.00371
1.00403
1.00435
1.00466
0.9998
1.00085
1.0018
1.00221
1.00269
1.00318
1.00366
1.0041
1.00445
1.00482
1.00525
1.00028
1.0034
1.00254
1.00322
1.00349
1.00385
1.0042
1.00451
1.00487
1.00325
1.00046
1.00223
1.00195
1.00251
1.00301
1.00359
1.00412
1.00452
1.00492
1.00213
1.00045
1.00169
1.00177
1.00253
1.00305
1.00363
1.00418
1.0046
1.00501
0.998907
0.999444
1.00042
1.00091
1.00168
1.00251
1.00335
1.00409
1.00466
1.00512
0.997106
0.998069
0.99903
1.00007
1.00112
1.00213
1.0032
1.0041
1.00481
1.00526
0.996359
0.997323
0.998613
0.999533
1.00093
1.00186
1.00319
1.00426
1.00509
1.00547
0.992919
0.995459
0.997488
0.999027
1.00048
1.00185
1.00335
1.00463
1.00549
1.00569
0.996448
0.997421
0.998682
0.999954
1.00122
1.00246
1.00387
1.00491
1.00555
1.00556
)
;

boundaryField
{
    inlet
    {
        type            fixedValue;
        value           uniform 1;
    }
    sym
    {
        type            slip;
    }
    wedge
    {
        type            slip;
    }
    top
    {
        type            slip;
    }
    back
    {
        type            empty;
    }
    front
    {
        type            empty;
    }
    outlet
    {
        type            zeroGradient;
    }
}


// ************************************************************************* //
