/*--------------------------------*- C++ -*----------------------------------*\
| =========                 |                                                 |
| \\      /  F ield         | OpenFOAM: The Open Source CFD Toolbox           |
|  \\    /   O peration     | Version:  2412                                  |
|   \\  /    A nd           | Website:  www.openfoam.com                      |
|    \\/     M anipulation  |                                                 |
\*---------------------------------------------------------------------------*/
FoamFile
{
    version     2.0;
    format      ascii;
    arch        "LSB;label=32;scalar=64";
    class       surfaceScalarField;
    location    "10";
    object      phi;
}
// * * * * * * * * * * * * * * * * * * * * * * * * * * * * * * * * * * * * * //

dimensions      [1 0 -1 0 0 0 0];

oriented        oriented;

internalField   nonuniform List<scalar> 
370
(
1.91633e-05
0.000110749
-0.000225053
0.000242354
-0.000196037
-3.17373e-05
0.000279454
-0.000476725
0.000302843
-2.61231e-05
0.000468839
-0.000166367
0.000541393
-7.3674e-05
0.000552546
-1.15819e-05
0.000552115
-1.46302e-07
4.3762e-05
0.000508092
0.000316325
-7.68067e-05
0.00063738
-8.03676e-05
0.000746849
-0.000143577
0.0004089
-0.000135896
0.000557885
-0.000174881
0.000351452
4.12013e-05
0.000462326
-0.000184803
0.000369841
8.10597e-05
0.0003922
-2.27161e-05
0.000132721
0.000303049
0.000313525
-0.000246032
0.000657476
-0.000422787
0.000587861
-7.01221e-05
0.000182401
0.000276059
0.000117086
-0.000114463
-5.33511e-05
0.000208511
-5.56041e-05
-0.000182922
-2.18183e-05
4.71803e-05
-1.68027e-05
-2.75938e-05
7.48566e-05
4.11968e-05
0.000140479
-0.000205069
-9.17399e-05
-0.000196998
-9.36377e-05
-7.10397e-05
0.00014652
4.1532e-05
-6.58021e-05
9.6972e-05
0.000129056
1.40831e-05
-0.000152139
9.82154e-05
-0.000103465
-1.82766e-06
-0.00023748
0.000105381
5.55811e-05
-0.00021802
0.00027067
-0.000314064
0.000545941
-0.000463378
0.00044836
3.36301e-05
0.000477845
-2.75785e-06
0.000413901
0.000160642
0.000300574
0.000129609
0.000180144
0.000220918
1.26401e-05
0.000165638
-8.51605e-05
0.000203732
0.000130989
-0.000160536
0.000204119
-0.000385913
-4.27261e-05
-0.00021398
-0.000385035
0.000377528
-0.000458331
7.33898e-05
-0.000563068
0.000266798
-0.000585048
0.000153178
-0.000546415
0.000183397
-0.000538297
0.000157846
-0.000486001
0.000151895
0.000123511
-0.000477881
-0.00058295
5.76944e-05
-0.00113777
0.000341269
-0.000901552
0.000143856
-0.000959384
0.00013184
-0.000816213
0.000124573
-0.000779221
0.000117081
-0.000704167
0.000109272
-0.000649649
0.000104053
-0.000586754
8.96318e-05
7.2386e-05
-0.000535015
-0.000520621
0.000377529
-0.000942439
0.000762147
-0.000903298
0.00010712
-0.000875643
0.000102857
-0.00075015
4.59017e-07
-0.000711657
7.93993e-05
-0.00059934
-1.56588e-06
-0.00051525
2.1322e-05
-0.000425464
1.03017e-06
-4.44185e-06
-0.000347693
0.000192808
0.000216462
0.000300097
0.000641838
0.000120037
0.000281122
0.00022816
-4.20679e-06
0.000101902
0.000120982
0.000158313
2.69623e-05
0.000131181
2.34148e-05
0.000159088
-4.27524e-06
0.000173541
-1.37657e-05
-2.61164e-05
0.000196032
0.000302597
0.000948245
0.00123462
0.00122729
0.00134232
0.00136137
0.00137586
0.0013636
0.00134214
0.00130951
0.00050759
5.12593e-07
0.000442176
6.58763e-05
0.00041585
2.71027e-05
0.000382572
3.45935e-05
0.000353076
3.02914e-05
0.000325922
2.77423e-05
0.000300883
2.55292e-05
0.000279788
2.173e-05
0.000262346
1.81794e-05
7.25722e-06
0.000177285
0.000125774
4.9367e-05
0.000194073
-3.4054e-06
8.03448e-05
-1.68168e-05
4.85864e-05
-1.03348e-05
2.43814e-05
1.0766e-05
7.30424e-06
3.47472e-05
2.32145e-06
5.61027e-05
1.24588e-06
7.02577e-05
4.97009e-06
-3.64782e-06
-9.38205e-05
0.000259744
-5.82931e-05
0.000159093
-9.19533e-05
0.000114501
-8.45812e-05
4.20406e-05
-7.88311e-05
1.94722e-05
-6.23347e-05
-8.28406e-06
-3.8575e-05
-2.04689e-05
-1.33289e-05
-2.29907e-05
9.43707e-06
-1.67665e-05
-1.81204e-05
-0.000219735
0.00026035
-0.000195231
0.000135279
-0.000188464
0.000108453
-0.000178458
3.30204e-05
-0.0001561
-1.80454e-06
-0.000125007
-3.82377e-05
-8.3048e-05
-6.12742e-05
-4.27982e-05
-6.21118e-05
-9.7133e-06
-4.87642e-05
-3.83725e-05
-0.000233907
0.000335152
-0.000241291
0.000143683
-0.000234122
0.000102438
-0.000206007
6.17194e-06
-0.00016293
-4.37181e-05
-0.000120888
-7.89398e-05
-7.14663e-05
-0.000109295
-2.19574e-05
-0.000110324
1.43123e-05
-8.37879e-05
-5.71269e-05
-0.000401723
0.000260383
-0.000358381
0.000101572
-0.000290541
3.57731e-05
-0.000246267
-3.69444e-05
-0.000193834
-9.50955e-05
-0.000141531
-0.000130154
-8.74892e-05
-0.000162238
-3.1637e-05
-0.000164949
1.41279e-05
-0.000128279
-8.04291e-05
-0.000420414
0.000146924
-0.000321288
3.4485e-06
-0.000233964
-5.03345e-05
-0.000175771
-9.48079e-05
-0.000129015
-0.000141966
-9.18071e-05
-0.000167059
-5.67695e-05
-0.000196694
-1.83975e-05
-0.000202218
1.94618e-05
-0.000164986
-0.000100174
-0.000173068
-2.60201e-05
-7.40501e-05
-9.37749e-05
-2.17002e-05
-0.00010094
1.81961e-05
-0.000133304
1.96365e-05
-0.000142907
2.96362e-05
-0.000178133
2.89634e-05
-0.000198074
3.11017e-05
-0.000204283
3.97755e-05
-0.000172692
-0.000102201
0.000281498
-0.000109544
0.000307373
-0.000115935
0.00032012
-0.000109164
0.000303357
-0.000111653
0.000280614
-0.000115498
0.000238363
-0.000131612
0.000191528
-0.000150014
0.000138604
-0.00015456
9.43868e-05
-0.000128956
-7.32706e-05
0.00119435
0.00107869
0.000971718
0.000862232
0.000749219
0.000625712
0.000486054
0.000332902
0.000200636
)
;

boundaryField
{
    inlet
    {
        type            calculated;
        value           nonuniform List<scalar> 10(-0.00013583 -0.000132647 -0.000143772 -0.000180693 -0.000143368 -0.000127565 0.000145245 0.000209048 -3.35404e-05 -9.11028e-05);
    }
    sym
    {
        type            calculated;
        value           uniform 0;
    }
    wedge
    {
        type            calculated;
        value           nonuniform List<scalar> 10(2.39744e-20 0 0 2.40261e-20 -4.24145e-39 0 0 0 2.4064e-20 2.40544e-20);
    }
    top
    {
        type            calculated;
        value           uniform 0;
    }
    back
    {
        type            empty;
    }
    front
    {
        type            empty;
    }
    outlet
    {
        type            calculated;
        value           nonuniform List<scalar> 10(0.00025593 8.21002e-05 2.48833e-05 1.15596e-05 3.41495e-05 3.86105e-05 4.03361e-05 4.28365e-05 6.63274e-05 0.000127708);
    }
}


// ************************************************************************* //
