/*--------------------------------*- C++ -*----------------------------------*\
| =========                 |                                                 |
| \\      /  F ield         | OpenFOAM: The Open Source CFD Toolbox           |
|  \\    /   O peration     | Version:  2412                                  |
|   \\  /    A nd           | Website:  www.openfoam.com                      |
|    \\/     M anipulation  |                                                 |
\*---------------------------------------------------------------------------*/
FoamFile
{
    version     2.0;
    format      ascii;
    arch        "LSB;label=32;scalar=64";
    class       volVectorField;
    location    "10";
    object      U;
}
// * * * * * * * * * * * * * * * * * * * * * * * * * * * * * * * * * * * * * //

dimensions      [0 1 -1 0 0 0 0];

internalField   nonuniform List<vector> 
200
(
(1041.13 0.00700229 0)
(1040.96 0.02383 0)
(1040.6 0.0621752 0)
(1039.83 0.146319 0)
(1038.17 0.33376 0)
(1034.67 0.736374 0)
(1027.2 1.60816 0)
(1010.01 3.52329 0)
(971.649 8.10998 0)
(894.46 18.4353 0)
(1041.19 0.0110904 0)
(1041.1 0.0377738 0)
(1040.91 0.0981665 0)
(1040.51 0.229497 0)
(1039.66 0.519029 0)
(1037.88 1.141 0)
(1034.21 2.47551 0)
(1026.34 5.34923 0)
(1008.9 11.9952 0)
(972.028 26.7907 0)
(1041.23 0.00627333 0)
(1041.18 0.0213925 0)
(1041.08 0.0551919 0)
(1040.89 0.127302 0)
(1040.47 0.282112 0)
(1039.61 0.612947 0)
(1037.82 1.31116 0)
(1034.11 2.76424 0)
(1026.28 5.88996 0)
(1009.87 12.8258 0)
(1041.25 0.00322646 0)
(1041.22 0.0109922 0)
(1041.18 0.0283147 0)
(1041.08 0.065026 0)
(1040.88 0.14243 0)
(1040.48 0.305177 0)
(1039.63 0.646098 0)
(1037.86 1.35352 0)
(1034.17 2.82433 0)
(1026.62 5.91859 0)
(1041.25 0.00153779 0)
(1041.24 0.00523292 0)
(1041.22 0.0134563 0)
(1041.17 0.0308729 0)
(1041.08 0.0674187 0)
(1040.88 0.143655 0)
(1040.46 0.301987 0)
(1039.6 0.631136 0)
(1037.78 1.31552 0)
(1034.09 2.73937 0)
(1041.26 0.000734641 0)
(1041.25 0.00249916 0)
(1041.24 0.00641955 0)
(1041.22 0.0147211 0)
(1041.17 0.0321374 0)
(1041.07 0.0684414 0)
(1040.86 0.14347 0)
(1040.41 0.299088 0)
(1039.48 0.623193 0)
(1037.59 1.30082 0)
(1041.26 0.000354753 0)
(1041.26 0.00120727 0)
(1041.25 0.00310072 0)
(1041.24 0.00711068 0)
(1041.21 0.0155271 0)
(1041.16 0.0331114 0)
(1041.04 0.0694559 0)
(1040.81 0.144785 0)
(1040.31 0.301466 0)
(1039.28 0.630796 0)
(1041.26 0.000173035 0)
(1041.26 0.000589101 0)
(1041.26 0.00151378 0)
(1041.25 0.00347339 0)
(1041.23 0.00758879 0)
(1041.2 0.0162037 0)
(1041.14 0.0340512 0)
(1041 0.0710996 0)
(1040.71 0.14809 0)
(1040.11 0.310103 0)
(1041.26 8.09078e-05 0)
(1041.26 0.000275557 0)
(1041.26 0.000708679 0)
(1041.25 0.00162811 0)
(1041.24 0.00356227 0)
(1041.22 0.00762007 0)
(1041.18 0.0160523 0)
(1041.09 0.0336158 0)
(1040.91 0.0701904 0)
(1040.52 0.147258 0)
(1041.26 2.43053e-05 0)
(1041.26 8.28134e-05 0)
(1041.26 0.000213158 0)
(1041.26 0.000490445 0)
(1041.25 0.00107507 0)
(1041.23 0.0023048 0)
(1041.2 0.00486699 0)
(1041.14 0.0102235 0)
(1041 0.0214162 0)
(1040.71 0.0450766 0)
(742.446 75.1474 0)
(654.883 134.301 -9.82554e-16)
(595.81 184.482 6.04812e-16)
(568.603 218.913 0)
(562.666 241.779 6.08758e-16)
(565.924 256.378 0)
(569.917 266.814 0)
(572.116 274.809 -7.34139e-16)
(572.141 281.318 0)
(570.67 286.461 -8.5472e-16)
(872.718 89.266 0)
(771.443 172.468 4.96315e-16)
(676.161 257.027 4.45625e-16)
(602.504 324.33 0)
(564.447 357.781 -6.88521e-16)
(553.862 365.606 6.55883e-16)
(555.471 360.543 0)
(559.063 351.591 0)
(561.44 342.368 0)
(562.499 333.961 0)
(960.654 42.335 0)
(892.535 91.6716 -1.09224e-16)
(804.133 155.628 -2.96202e-16)
(714.628 220.096 0)
(639.95 275.403 0)
(600.493 306.468 -6.11975e-16)
(587.281 317.822 0)
(585.768 318.991 -3.17091e-16)
(586.595 316.703 3.38475e-16)
(586.267 314.017 -3.63668e-16)
(1003.41 19.3605 0)
(965.835 45.9797 1.12827e-16)
(903.05 91.6886 -4.9129e-17)
(817.624 155.851 0)
(726.194 227.082 -2.35004e-16)
(651.252 286.489 2.70106e-16)
(611.096 318.455 0)
(595.69 330.413 6.08557e-16)
(591.722 332.254 -3.20268e-16)
(590.356 330.685 6.76453e-16)
(1022.83 9.01784 0)
(1003.75 22.0235 0)
(967.321 47.6845 -1.18519e-16)
(905.645 92.3026 0)
(821.078 155.567 2.4918e-16)
(726.454 228.9 -3.19715e-16)
(655.208 286.142 0)
(617.91 317.165 -3.03922e-16)
(602.942 328.897 0)
(597.877 332.194 -3.16175e-16)
(1031.8 4.36713 0)
(1021.95 10.7504 0)
(1002.2 23.967 0)
(964.391 50.105 0)
(900.708 95.9158 0)
(815.178 160.002 0)
(722.113 233.038 0)
(656.367 285.17 -2.67473e-16)
(622.914 312.765 0)
(610.504 325.183 0)
(1036.13 2.17259 -3.23031e-17)
(1030.73 5.40784 0)
(1019.79 12.1604 0)
(997.764 26.2351 0)
(955.732 54.1011 -5.80422e-17)
(887.117 101.919 0)
(794.673 169.977 0)
(707.375 237.361 3.06867e-16)
(652.772 282.729 0)
(629.839 306.906 -1.40802e-16)
(1038.28 1.09295 6.6738e-17)
(1035.09 2.75673 3.52597e-17)
(1028.6 6.24907 -3.83158e-17)
(1015.33 13.6148 4.33128e-17)
(988.549 29.01 1.13067e-16)
(938.736 59.1076 0)
(861.447 108.533 0)
(767.394 174.466 -1.25215e-16)
(693.641 231 0)
(659.161 266.747 1.46562e-16)
(1039.34 0.528643 -1.73647e-17)
(1037.26 1.34599 -1.86036e-17)
(1032.99 3.073 4.00171e-17)
(1024.21 6.70223 -2.36356e-17)
(1006.12 14.4002 -2.95157e-17)
(970.116 30.2739 0)
(907.556 59.2968 4.62222e-17)
(819.738 104.98 1.42296e-16)
(736.406 155.546 7.16723e-17)
(694.983 194.106 0)
(1039.82 0.167218 -1.78953e-17)
(1038.23 0.430877 -1.8972e-17)
(1034.94 0.990534 0)
(1028.15 2.15987 -2.26974e-17)
(1013.96 4.63022 -2.65493e-17)
(984.817 9.73966 0)
(930.297 19.3518 -4.75509e-17)
(848.701 35.7468 0)
(764.091 60.6575 -8.27642e-17)
(724.225 87.8087 0)
)
;

boundaryField
{
    inlet
    {
        type            fixedValue;
        value           uniform (1041.26 0 0);
    }
    sym
    {
        type            slip;
    }
    wedge
    {
        type            slip;
    }
    top
    {
        type            slip;
    }
    back
    {
        type            empty;
    }
    front
    {
        type            empty;
    }
    outlet
    {
        type            inletOutlet;
        inletValue      uniform (1041.26 0 0);
        value           nonuniform List<vector> 10((570.67 286.461 -8.5472e-16) (562.499 333.961 0) (586.267 314.017 -3.63668e-16) (590.356 330.685 6.76453e-16) (597.877 332.194 -3.16175e-16) (610.504 325.183 0) (629.839 306.906 -1.40802e-16) (659.161 266.747 1.46562e-16) (694.983 194.106 0) (724.225 87.8087 0));
    }
}


// ************************************************************************* //
