/*--------------------------------*- C++ -*----------------------------------*\
| =========                 |                                                 |
| \\      /  F ield         | OpenFOAM: The Open Source CFD Toolbox           |
|  \\    /   O peration     | Version:  2412                                  |
|   \\  /    A nd           | Website:  www.openfoam.com                      |
|    \\/     M anipulation  |                                                 |
\*---------------------------------------------------------------------------*/
FoamFile
{
    version     2.0;
    format      ascii;
    arch        "LSB;label=32;scalar=64";
    class       volVectorField;
    location    "10";
    object      U;
}
// * * * * * * * * * * * * * * * * * * * * * * * * * * * * * * * * * * * * * //

dimensions      [0 1 -1 0 0 0 0];

internalField   nonuniform List<vector> 
200
(
(-20.8722 0.500409 0)
(14.8296 1.39881 0)
(-10.9458 -1.17381 0)
(6.75959 -3.5242 0)
(-2.94618 -0.452474 0)
(2.94257 -1.15205 0)
(0.437151 -0.620279 0)
(1.33216 -0.346482 0)
(1.38683 -0.236201 0)
(1.25436 -0.136553 0)
(-15.766 0.273957 0)
(10.5323 1.14555 0)
(-1.85583 0.708636 0)
(2.66401 -1.0092 0)
(0.396198 -0.0125338 0)
(1.32724 -0.425829 0)
(0.677971 -0.422493 0)
(1.06545 0.160076 0)
(0.852536 0.210682 0)
(0.827084 0.603546 0)
(-16.4482 -0.906009 0)
(11.229 -2.48173 0)
(-2.55168 -1.98927 0)
(2.97391 -0.266072 0)
(-1.40669 -1.63961 0)
(1.51161 0.974629 0)
(-1.5042 -1.56034 0)
(1.03877 0.799331 0)
(-0.943713 -0.411525 0)
(0.694118 0.770907 0)
(-20.0871 -0.802196 0)
(15.281 -1.37101 0)
(-11.6611 1.34107 0)
(8.55817 2.27951 0)
(-5.8139 0.726443 0)
(4.20533 0.789577 0)
(-2.72393 -0.104313 0)
(1.44375 -0.343652 0)
(-1.51423 0.157625 0)
(-0.00633045 0.222178 0)
(-17.2417 -0.834255 0)
(11.9014 -1.94126 0)
(-4.01482 -1.81961 0)
(3.9728 -1.32611 0)
(-0.372999 0.121199 0)
(1.52851 -0.409178 0)
(0.132847 0.956176 0)
(0.589511 0.383243 0)
(-0.495492 1.02187 0)
(0.00210597 0.498667 0)
(-16.4797 -1.86935 0)
(11.5061 -3.29863 0)
(-7.34382 2.15293 0)
(3.08234 0.950538 0)
(-3.44776 1.7873 0)
(-0.313099 1.42866 0)
(-1.6984 1.4287 0)
(-1.11412 1.20702 0)
(-1.23137 1.1405 0)
(-1.06418 0.86604 0)
(-13.0172 -0.976976 0)
(4.50046 1.15788 0)
(-5.57291 1.28772 0)
(-0.520458 0.392326 0)
(-2.71768 1.1109 0)
(-1.56865 0.687826 0)
(-1.79573 0.83178 0)
(-1.529 0.735982 0)
(-1.43014 0.68375 0)
(-1.2707 0.558837 0)
(-15.4632 1.5542 0)
(6.32072 2.78384 0)
(-6.16771 0.40527 0)
(-0.0804046 1.2528 0)
(-2.62334 0.280152 0)
(-1.3984 0.812455 0)
(-1.56355 0.4158 0)
(-1.24769 0.592891 0)
(-1.06444 0.438853 0)
(-0.85716 0.357311 0)
(-22.6888 0.69499 0)
(15.5561 5.31128 0)
(-7.77801 0.77596 0)
(5.36604 -0.683682 0)
(-2.47838 -0.185778 0)
(1.9847 -0.237361 0)
(-0.623914 -0.431054 0)
(0.807296 -0.468615 0)
(0.207722 -0.456828 0)
(0.413384 -0.450471 0)
(-22.1646 0.460851 0)
(14.7825 4.18972 0)
(-1.65765 2.42076 0)
(3.47265 1.04314 0)
(3.21447 1.18565 0)
(3.09311 0.750784 0)
(3.04161 0.690185 0)
(3.09651 0.483694 0)
(3.10406 0.364133 0)
(3.06657 0.239139 0)
(1.12008 0.0413412 -7.82508e-21)
(1.1523 0.0892204 0)
(1.07783 0.140257 0)
(1.01664 0.217017 0)
(0.964707 0.283886 1.1213e-17)
(0.921174 0.325276 0)
(0.882048 0.339777 0)
(0.847963 0.337933 0)
(0.819735 0.329913 0)
(0.823244 0.314333 -6.76175e-18)
(0.552386 0.479725 -4.94567e-18)
(0.252483 0.721735 5.12268e-18)
(0.0075083 0.337204 0)
(-0.0295408 0.277082 0)
(-0.0543297 0.162731 2.03906e-22)
(-0.00158603 0.117368 0)
(0.0638172 0.106785 0)
(0.136312 0.108239 0)
(0.190142 0.112324 0)
(0.263305 0.0895268 0)
(-0.855532 0.323534 0)
(0.226305 0.559371 -5.13042e-18)
(-0.407743 0.0890017 0)
(-0.136955 -0.00839259 0)
(-0.251967 -0.0824887 -1.13541e-17)
(-0.188892 -0.11844 5.87936e-18)
(-0.147389 -0.112806 0)
(-0.0701343 -0.0797642 6.32956e-18)
(-0.0125862 -0.0321381 0)
(0.0788782 -0.0136806 6.83913e-18)
(-1.02406 0.510541 0)
(-0.210944 0.389973 0)
(-0.608591 0.237331 0)
(-0.417997 0.0802918 0)
(-0.46297 -0.0111689 5.66184e-18)
(-0.38514 -0.0892947 -5.85955e-18)
(-0.296007 -0.134347 0)
(-0.172984 -0.125849 -1.26161e-17)
(-0.0895743 -0.0961618 0)
(0.036045 -0.0640867 -6.83348e-18)
(-0.912874 0.665513 2.45178e-18)
(-0.327825 0.308161 2.55046e-18)
(-0.73057 0.140105 0)
(-0.518176 -0.0711247 2.73706e-18)
(-0.505985 -0.202904 2.8332e-18)
(-0.381242 -0.272318 0)
(-0.278583 -0.31905 0)
(-0.124487 -0.279803 6.3076e-18)
(-0.0105665 -0.197405 0)
(0.108519 -0.120709 0)
(-1.13096 0.764037 -2.43944e-18)
(-0.843656 0.279469 -2.54777e-18)
(-0.848764 0.134235 0)
(-0.66772 -0.11564 -2.74105e-18)
(-0.591425 -0.276828 -2.83101e-18)
(-0.445302 -0.36217 0)
(-0.33072 -0.446036 0)
(-0.164993 -0.424567 0)
(-0.0268278 -0.300895 0)
(0.122865 -0.169481 0)
(-1.15448 0.447007 2.44024e-18)
(-0.864714 0.0270966 0)
(-0.703896 -0.176239 0)
(-0.479865 -0.275037 0)
(-0.4283 -0.433985 2.82238e-18)
(-0.274397 -0.489789 0)
(-0.222621 -0.57539 0)
(-0.102654 -0.573944 0)
(-0.00404609 -0.44318 0)
(0.128646 -0.25397 3.41188e-18)
(-0.705444 0.249342 -1.22534e-18)
(-0.0666986 -0.102298 1.26282e-18)
(-0.261707 -0.18449 0)
(0.136726 -0.31782 1.3518e-18)
(-0.0262804 -0.397557 -1.39967e-18)
(0.113104 -0.512054 1.44868e-18)
(0.0674498 -0.579797 1.50779e-18)
(0.093887 -0.60305 0)
(0.0997978 -0.503047 1.63347e-18)
(0.136914 -0.292729 -1.70362e-18)
(0.599982 -0.464354 -1.84511e-18)
(0.717545 -0.456562 -1.89753e-18)
(0.765997 -0.412891 0)
(0.79337 -0.42118 -2.00451e-18)
(0.75982 -0.415278 -6.88491e-19)
(0.706793 -0.460437 -2.12968e-18)
(0.615341 -0.488787 -1.47131e-18)
(0.492153 -0.494888 0)
(0.347282 -0.426513 -1.62354e-18)
(0.212854 -0.249218 -2.55141e-18)
(2.93369 0.068897 5.95906e-19)
(2.75476 -0.0113489 6.17876e-19)
(2.55612 -0.0430847 0)
(2.35606 -0.0694769 6.62579e-19)
(2.13481 -0.109767 -6.87492e-19)
(1.86447 -0.172826 7.11394e-19)
(1.55395 -0.244645 0)
(1.20549 -0.293289 0)
(0.80455 -0.283954 0)
(0.410387 -0.169387 8.47839e-19)
)
;

boundaryField
{
    inlet
    {
        type            fixedValue;
        value           uniform (3 0 0);
    }
    sym
    {
        type            slip;
    }
    wedge
    {
        type            slip;
    }
    top
    {
        type            slip;
    }
    back
    {
        type            empty;
    }
    front
    {
        type            empty;
    }
    outlet
    {
        type            inletOutlet;
        inletValue      uniform (3 0 0);
        value           nonuniform List<vector> 10((0.823244 0.314333 -6.76175e-18) (0.263305 0.0895268 0) (0.0788782 -0.0136806 6.83913e-18) (0.036045 -0.0640867 -6.83348e-18) (0.108519 -0.120709 0) (0.122865 -0.169481 0) (0.128646 -0.25397 3.41188e-18) (0.136914 -0.292729 -1.70362e-18) (0.212854 -0.249218 -2.55141e-18) (0.410387 -0.169387 8.47839e-19));
    }
}


// ************************************************************************* //
