/*--------------------------------*- C++ -*----------------------------------*\
| =========                 |                                                 |
| \\      /  F ield         | OpenFOAM: The Open Source CFD Toolbox           |
|  \\    /   O peration     | Version:  2412                                  |
|   \\  /    A nd           | Website:  www.openfoam.com                      |
|    \\/     M anipulation  |                                                 |
\*---------------------------------------------------------------------------*/
FoamFile
{
    version     2.0;
    format      ascii;
    arch        "LSB;label=32;scalar=64";
    class       volScalarField;
    location    "0.003";
    object      ddt0(rho,K);
}
// * * * * * * * * * * * * * * * * * * * * * * * * * * * * * * * * * * * * * //

dimensions      [1 -1 -3 0 0 0 0];

internalField   nonuniform List<scalar> 
180000
(
-8.04942e-06
1.67271e-05
-2.84721e-05
2.33227e-06
2.00867e-05
1.39963e-05
-1.1232e-05
8.72404e-07
2.57945e-05
-2.47952e-05
1.28463e-06
2.84608e-05
1.92023e-05
3.52542e-06
-4.47833e-05
-1.75808e-05
-2.38624e-06
-9.1778e-06
-9.74252e-06
8.39376e-07
1.23683e-05
-1.36527e-06
-2.26219e-05
-3.07147e-06
-3.91215e-07
2.04127e-05
2.65878e-05
5.03924e-05
8.11193e-06
4.2799e-05
2.83138e-05
2.42609e-05
-4.47485e-05
2.07641e-05
-5.53059e-05
-1.89148e-05
-8.46394e-06
-1.20111e-05
-4.46045e-05
-1.38345e-05
-1.97507e-05
-2.5918e-05
5.39852e-05
5.81467e-05
1.27899e-05
-6.20532e-06
-3.50366e-05
2.20364e-05
1.44234e-05
2.17677e-05
1.1195e-05
9.46163e-06
-9.00571e-06
-3.39997e-05
-4.73772e-05
2.58487e-06
-1.33042e-05
-5.10867e-05
-2.54501e-05
1.26461e-05
-1.24935e-05
1.85081e-05
2.32401e-05
5.30009e-05
4.78783e-05
-1.91488e-05
-6.00845e-06
2.08527e-06
-3.28297e-06
-3.54101e-05
-5.74038e-05
-4.46956e-05
9.65209e-06
5.31872e-05
3.07578e-05
1.00257e-05
2.04323e-05
2.68643e-05
1.30643e-05
-8.20978e-06
-4.30613e-05
-1.79843e-05
-1.47002e-05
-1.36995e-05
-7.32886e-05
-4.16879e-05
5.01662e-06
4.76888e-05
-1.68796e-05
-1.8113e-05
2.73062e-06
2.37826e-05
7.40503e-05
1.85718e-05
8.63738e-06
-3.15088e-05
3.37453e-05
4.86606e-06
1.07715e-05
-1.82749e-05
2.87162e-05
1.05421e-05
3.25821e-05
-6.92988e-06
7.62741e-06
-5.05129e-06
9.37706e-06
1.17528e-05
-2.58627e-05
2.33937e-07
9.69669e-06
-4.39612e-05
-5.39915e-05
-4.78781e-05
3.12212e-05
-2.61519e-05
-3.87552e-05
4.8909e-05
-1.51795e-05
-2.54661e-05
-4.02674e-05
-3.48876e-05
5.13128e-05
5.72478e-05
2.67465e-06
1.11143e-05
4.74834e-05
3.77842e-05
4.96889e-05
-6.99406e-06
-3.10766e-06
-4.4177e-05
-4.23477e-05
-4.27082e-05
-3.2943e-05
-4.89707e-05
2.5229e-06
7.07826e-05
-4.94282e-06
4.05496e-05
-1.53036e-05
1.94981e-05
-4.64123e-07
-1.61042e-05
-1.07643e-05
-1.89923e-05
-4.19927e-05
1.29972e-05
-1.39523e-05
-1.67341e-05
-2.49615e-05
5.79087e-05
4.41538e-06
1.9337e-05
6.8318e-06
1.23051e-05
-4.42339e-06
2.26253e-05
-1.92525e-05
-5.1742e-05
-1.2035e-05
6.17792e-05
3.50032e-05
1.47171e-05
6.84344e-05
-1.30356e-05
4.81012e-05
-6.71612e-06
-2.09027e-05
-2.49231e-05
-2.24645e-05
5.49431e-05
9.15585e-06
-5.1479e-05
-3.46656e-05
7.97354e-05
-5.73867e-05
-6.52514e-05
7.17371e-06
-9.27823e-06
-2.51677e-06
-1.29261e-05
-4.12155e-05
-2.55023e-05
6.36841e-06
-3.50379e-05
2.87037e-06
4.16975e-05
2.99473e-05
5.18127e-05
1.83289e-05
9.87601e-07
3.09786e-05
-5.46209e-05
-2.36972e-05
-3.40857e-05
-1.38384e-06
-1.73019e-05
-2.71323e-05
-5.5544e-05
-2.78681e-05
-1.50135e-05
-3.88621e-05
-2.74714e-05
1.63901e-05
2.98814e-05
3.31342e-05
-7.12685e-05
-2.02968e-06
-1.6525e-05
5.97595e-05
-1.40053e-05
1.14821e-05
4.20431e-05
-1.57418e-05
3.01943e-06
6.12968e-06
-1.51892e-05
1.26114e-05
-8.98922e-06
-6.40163e-06
-8.74922e-06
-7.80894e-06
1.87154e-05
-1.16897e-05
-2.49754e-06
1.78097e-05
-9.10621e-07
1.21629e-05
2.69197e-05
3.66748e-05
4.75768e-05
3.2062e-05
4.40308e-05
3.63816e-05
1.87115e-05
-6.42374e-06
2.97812e-05
-1.32511e-05
-1.37925e-05
1.40259e-06
4.96046e-05
-1.70252e-05
1.03844e-05
5.89661e-05
1.15921e-05
6.96861e-05
3.6672e-05
-1.19505e-06
3.06269e-05
1.68625e-05
-2.24868e-05
7.40509e-06
-1.37869e-05
1.05243e-05
1.76704e-05
6.64422e-05
0.000141112
0.000138372
0.000199358
0.000330739
0.000549672
0.000865901
0.00136664
0.00221322
0.00343495
0.00538879
0.00854326
0.0133823
0.0212008
0.0333253
0.0528337
0.0833854
0.132036
0.208077
0.330044
0.520681
0.823535
1.30227
2.06642
3.2457
5.14526
8.15769
12.8306
20.1017
32.0381
50.161
77.7437
121.491
188.996
281.371
412.03
569.882
685.114
488.84
-549.005
-4424.04
-13997
-39357
-78208
1.77585e-05
-6.52696e-06
9.40432e-06
2.13344e-05
-6.48967e-06
-1.06188e-05
8.17219e-06
1.90429e-05
8.41098e-07
1.28602e-06
-2.94311e-05
1.34831e-06
7.18738e-06
-3.74134e-06
-3.02536e-05
-6.29188e-06
1.02804e-05
5.12325e-05
3.00445e-05
-3.3595e-05
8.78819e-06
2.70447e-05
3.86881e-05
-1.43831e-05
7.37362e-05
-2.87327e-05
-4.16023e-05
-2.01087e-06
2.1199e-06
-4.15699e-05
5.79154e-06
1.84401e-05
-7.45213e-07
-1.62081e-05
-2.67475e-05
-2.51777e-05
-4.49001e-06
-9.13417e-06
-3.95492e-05
-3.39676e-05
-2.26931e-05
7.31301e-08
3.1478e-06
3.20902e-05
-1.5064e-05
4.47732e-05
-1.28987e-05
-7.09768e-05
-9.11636e-06
4.96157e-05
3.79743e-05
2.55748e-05
5.99419e-05
-3.59979e-05
-1.97269e-05
2.99625e-05
-6.6839e-06
-4.76582e-05
-2.48249e-06
-2.14468e-05
-1.65938e-05
-3.54523e-05
-5.50506e-06
2.05272e-05
2.49856e-05
4.08025e-05
-6.82748e-06
-1.1417e-05
-1.07914e-05
6.46239e-05
4.12493e-05
-1.93476e-05
-1.94614e-05
1.06494e-05
-2.10281e-05
3.18222e-05
9.85082e-07
-1.41789e-05
2.32429e-06
1.1893e-05
1.84803e-05
-2.25425e-05
-1.32265e-05
-1.54943e-06
-3.1856e-05
3.59365e-05
8.76657e-06
-6.11463e-05
-2.82892e-05
-2.28897e-05
-2.4143e-05
1.19842e-06
2.47801e-05
-1.88726e-05
-1.22183e-05
2.72995e-05
-3.30881e-05
7.47556e-06
-5.24191e-05
-2.70107e-05
1.17375e-05
-1.649e-05
-2.21769e-05
2.51224e-06
2.72902e-06
1.33482e-05
2.62965e-05
6.96874e-05
4.01884e-05
2.95924e-05
-1.33103e-05
-8.96438e-06
-5.19717e-07
-7.15906e-05
-3.48144e-06
-1.31388e-05
-1.66837e-05
-5.59613e-05
-6.6474e-07
8.71961e-06
-1.66405e-07
4.30832e-05
-2.35623e-05
6.03867e-05
3.26062e-05
-4.64452e-05
3.54933e-06
5.26945e-06
1.21607e-05
-3.40411e-05
-1.68501e-05
3.8835e-05
1.61374e-05
3.88524e-05
3.67953e-05
-3.50469e-05
-8.68888e-07
8.84419e-06
2.17174e-05
1.53287e-05
-2.28954e-05
-5.31278e-05
-1.0623e-06
3.56113e-06
-9.3524e-08
8.48122e-06
-4.8736e-06
-5.31464e-06
-3.29542e-05
-2.17443e-05
-7.91571e-06
-4.43374e-05
-2.22881e-05
-2.81982e-05
3.10206e-05
-4.73103e-05
2.25442e-05
5.75591e-05
5.74975e-05
4.60221e-05
6.15346e-05
1.20357e-05
-3.18817e-05
1.37147e-05
8.23998e-06
-3.63872e-06
7.04386e-05
3.27892e-05
1.45476e-06
4.57847e-05
1.54373e-05
-3.03328e-05
-2.40684e-05
2.75582e-05
4.33345e-06
2.20491e-05
2.98911e-05
-4.24249e-05
7.90313e-06
5.15259e-05
-1.19969e-05
1.07575e-05
3.31023e-05
7.1879e-06
3.18098e-05
2.49971e-05
1.10044e-05
8.65321e-06
-6.73151e-05
7.15265e-06
-4.62949e-05
-2.30016e-05
-7.35498e-06
-2.45004e-05
2.55356e-05
6.45327e-06
6.53292e-06
2.05048e-05
1.38165e-05
5.37883e-06
-3.50458e-05
3.10405e-05
-1.06308e-05
-3.18814e-05
-1.65619e-05
-1.83336e-05
-7.11843e-05
-2.86661e-05
-3.44985e-05
-4.89092e-05
-6.85003e-05
1.19487e-05
-1.16862e-05
-1.58957e-05
4.0641e-06
-4.17965e-05
-3.5819e-05
1.78209e-05
1.43199e-05
-3.79223e-05
-2.42099e-05
-6.15995e-05
-5.92237e-05
-3.86031e-05
-5.08979e-05
-9.82951e-05
-2.7787e-05
-1.95927e-05
4.40847e-05
8.60688e-05
1.21495e-05
3.58612e-05
2.33362e-05
-4.4621e-05
2.69557e-05
9.85043e-05
4.3895e-05
-1.01653e-05
2.10094e-05
4.16879e-05
3.92645e-05
2.65838e-05
2.01247e-05
-3.01278e-05
-1.77958e-05
-1.16273e-05
-4.52558e-05
1.60262e-05
-4.28592e-05
5.57478e-06
1.01955e-05
-3.97596e-05
2.55839e-05
1.58359e-05
2.24227e-05
4.41512e-05
6.38829e-05
8.36611e-05
0.00015506
0.000208743
0.000320844
0.000556583
0.000844056
0.00132056
0.0020674
0.00332326
0.00525296
0.00828227
0.0130364
0.0205684
0.0324107
0.0512284
0.0807883
0.12789
0.201513
0.319368
0.50442
0.797329
1.25822
2.00204
3.15022
4.96607
7.88791
12.5097
19.4859
30.8994
49.0806
76.375
118.25
186.753
285.913
425.163
619.095
857.013
987.559
756.529
-864.745
-5475.22
-19057.8
-41119.8
-2.24304e-06
-1.98114e-06
1.71795e-05
-1.33161e-05
-3.21946e-05
7.10679e-06
3.84826e-05
-2.32534e-05
-2.41163e-05
-3.41651e-05
-2.16941e-05
-8.84752e-06
5.05102e-05
1.55165e-05
2.10225e-05
-2.34378e-05
-2.19945e-05
9.28198e-06
2.67386e-05
1.60455e-05
-1.14472e-05
3.15246e-05
4.61966e-05
2.54491e-05
-5.00734e-06
-6.34002e-06
-5.03306e-05
-3.81511e-05
7.2261e-06
1.28805e-05
-3.83983e-06
2.56063e-05
-3.53896e-05
-1.64688e-05
2.53876e-05
-8.42009e-06
5.27415e-06
9.6233e-06
-2.79908e-05
5.62695e-06
-2.13923e-06
-4.85309e-05
-3.79379e-05
6.33449e-05
7.40965e-05
3.65964e-05
-1.98539e-05
-9.27618e-06
4.09956e-05
2.62144e-05
5.45838e-06
2.44353e-05
-2.82082e-05
-4.45452e-05
3.71438e-05
1.83456e-05
1.52754e-05
5.35889e-05
-4.76705e-05
-5.47543e-05
6.02985e-06
-5.30888e-05
-4.0293e-05
-2.4674e-05
3.0251e-05
4.24941e-05
-6.72652e-06
-1.60925e-05
1.09829e-05
-5.63339e-05
-4.7218e-05
2.15737e-05
2.92497e-05
-1.5504e-05
-2.85335e-05
3.13696e-05
3.50054e-05
1.81349e-05
-5.21355e-05
-3.98022e-05
2.98417e-06
-4.58228e-05
4.02886e-05
-1.59515e-05
-1.66004e-05
-2.00679e-06
3.03516e-05
2.12733e-05
-2.81818e-05
3.97054e-06
2.36413e-05
-3.49025e-05
3.12448e-05
2.96568e-05
-3.39576e-05
-1.36785e-05
6.20102e-06
-6.0003e-06
2.36721e-05
-1.40858e-05
-1.59882e-06
2.92007e-06
-2.53122e-05
2.20875e-05
6.29287e-06
-4.6511e-07
4.36486e-05
2.34342e-05
-6.666e-06
4.54713e-06
1.30997e-05
1.59155e-05
-6.63484e-06
-1.03728e-05
-1.17326e-06
-2.83643e-05
-1.32724e-05
-4.56427e-05
-3.58208e-05
-6.45231e-05
-1.64389e-06
-1.54643e-05
-3.3864e-05
6.84813e-06
-6.42314e-06
-2.37175e-05
-5.48515e-05
3.93999e-05
-1.08086e-05
-1.22742e-05
1.44862e-05
3.31035e-05
9.39799e-06
-1.35707e-05
3.0212e-06
-6.42857e-06
-4.34251e-05
-2.76458e-05
2.42651e-05
2.78203e-08
-8.67092e-06
4.39437e-05
-1.68452e-06
-7.6277e-06
-4.39625e-05
7.44794e-06
-2.45817e-05
-3.80273e-05
8.8429e-06
-3.71961e-05
-3.55909e-05
2.65033e-06
-1.41121e-05
-3.36196e-05
1.99703e-05
2.57923e-05
-5.43499e-06
4.86003e-05
5.0836e-05
7.10198e-05
4.90931e-05
1.39199e-05
-3.08958e-06
1.3787e-05
3.51697e-06
-2.34367e-05
8.23425e-06
-5.73786e-06
1.67162e-06
-3.52026e-05
-7.05563e-05
-1.23908e-05
-1.01935e-05
3.39199e-06
3.20292e-07
1.35633e-05
-2.68666e-05
-2.39276e-05
2.57507e-05
3.70602e-05
1.53071e-05
1.38871e-05
4.09707e-05
-6.41376e-06
3.72242e-05
3.43402e-05
5.76752e-05
1.1822e-05
3.39341e-06
-2.59384e-05
-7.75899e-06
1.02971e-05
-6.14036e-05
-2.55633e-06
-3.99307e-05
-5.20911e-05
4.67548e-05
2.05639e-05
-1.35907e-05
2.53566e-05
5.84688e-06
-1.43355e-05
-2.45821e-05
-2.12914e-05
-5.23003e-05
3.33737e-05
-1.90889e-05
-3.57979e-05
4.3383e-05
1.81089e-06
1.70504e-06
1.02711e-05
2.4568e-05
-3.16959e-06
-1.1879e-05
2.44273e-05
1.96958e-06
4.50227e-06
-1.24926e-05
-4.65368e-05
5.94712e-07
-2.15135e-05
9.34819e-07
3.0853e-05
4.85117e-05
-1.67863e-05
-3.46506e-05
-5.57296e-05
-3.25714e-05
-4.69e-05
-1.99248e-05
-3.23214e-05
2.33645e-05
-4.16178e-05
5.55656e-05
1.36009e-05
-5.1619e-05
9.25675e-06
2.94719e-05
-1.37101e-05
-5.10891e-05
-1.52292e-05
-3.23041e-06
4.43283e-06
-2.40432e-05
-2.52086e-05
3.56882e-05
1.7145e-05
3.4341e-05
-3.18284e-05
-1.46619e-05
3.8135e-05
1.53329e-05
-9.36393e-07
-9.47222e-06
6.70784e-05
7.18344e-05
8.88356e-05
0.000158527
0.000269136
0.000355612
0.000549102
0.000848844
0.00125241
0.00199394
0.00310443
0.00489624
0.00772729
0.0121733
0.0193163
0.0304102
0.0480888
0.0756791
0.119803
0.18861
0.298456
0.471763
0.74481
1.17104
1.86563
2.94169
4.60934
7.30843
11.6727
18.1222
28.4797
45.6157
71.4688
109.625
173.768
271.771
409.251
609.051
903.391
1211.07
1449.23
1056.73
-525.545
-7720.48
-17730.6
3.10034e-06
-1.2144e-06
-8.3115e-06
3.06286e-05
2.6132e-05
-1.60977e-05
6.28371e-06
2.75257e-05
4.69287e-06
-2.16506e-05
-8.97758e-06
7.70044e-06
-2.79454e-05
-2.16377e-06
2.53518e-05
-4.99373e-06
3.66967e-05
-2.32584e-05
-1.89226e-05
-6.43817e-06
1.94529e-06
-4.40474e-05
-2.35321e-05
1.78176e-05
-2.02293e-05
3.06189e-05
1.38856e-05
4.49973e-05
3.81452e-05
3.6404e-06
2.8273e-06
4.93481e-05
1.34537e-05
-3.29999e-05
-2.20058e-05
3.19879e-05
1.82467e-05
1.20016e-05
-7.80827e-06
-3.19614e-05
2.78035e-05
3.95156e-05
-1.81276e-05
-9.57749e-07
-2.52101e-06
-2.30989e-05
3.92074e-05
1.76864e-05
1.04523e-05
4.47559e-05
-3.55715e-05
-1.80708e-05
-4.10369e-05
-5.68461e-05
-5.05496e-05
-4.0775e-05
1.2164e-05
1.64429e-05
7.9605e-05
3.04201e-05
6.55816e-07
-6.88449e-06
1.16688e-05
1.23011e-05
-2.62964e-05
-8.17967e-05
-3.47198e-05
-6.36472e-05
-6.65186e-06
1.55162e-05
-9.88422e-06
-2.45628e-05
-1.47448e-05
1.7362e-05
-4.69848e-05
-2.64046e-05
-1.43021e-05
-6.93017e-06
-2.80916e-05
8.23372e-07
5.14362e-05
2.06271e-06
2.23954e-06
-1.79838e-06
1.9728e-05
2.35084e-05
3.4002e-05
-3.87222e-05
-3.53207e-05
1.356e-05
-2.81226e-05
2.68783e-05
5.95573e-05
2.75091e-05
5.6685e-05
2.05559e-06
5.53856e-05
7.2578e-06
-2.65388e-05
1.78392e-06
-5.89398e-07
1.05395e-05
-2.63246e-06
-1.76119e-05
-1.11479e-05
-2.78963e-05
-4.40219e-05
-1.54915e-05
5.26885e-05
-7.20199e-06
-9.39488e-05
1.58286e-06
8.4453e-06
5.07451e-06
4.28339e-05
2.64121e-05
1.72824e-05
3.80524e-05
4.45091e-05
3.59665e-05
-2.65061e-05
-1.47807e-05
-2.92279e-05
-8.01115e-05
-2.66457e-05
-4.85612e-05
-3.44544e-05
-5.38278e-05
-2.43051e-05
-4.50402e-05
3.18058e-05
-1.93237e-05
-4.19284e-05
-9.51604e-07
6.98894e-05
-2.36783e-07
2.70953e-06
6.37618e-05
5.5033e-05
4.737e-05
-5.87652e-05
-3.60487e-05
1.77217e-06
1.40952e-05
2.93671e-05
-3.46304e-05
-3.16262e-05
-5.93964e-06
-4.41494e-05
-7.63619e-06
1.16099e-05
-6.80199e-06
2.68841e-05
-4.36364e-05
-5.60147e-05
2.07207e-05
3.33199e-05
-3.21526e-05
1.34736e-05
-9.58146e-06
2.3444e-05
3.79279e-05
1.09319e-05
5.86368e-05
2.04525e-05
7.19987e-05
2.08775e-05
-3.78882e-05
-5.51115e-05
-3.64704e-05
-1.45054e-05
-5.22667e-05
-1.49137e-05
-2.38682e-05
1.23674e-05
-2.63525e-05
1.09511e-05
8.05697e-05
1.85602e-06
2.61995e-05
2.539e-05
4.17792e-05
6.64876e-05
-1.53399e-05
-1.41381e-05
2.2731e-05
-5.27296e-05
-2.89741e-05
2.35794e-05
1.17613e-05
-1.1414e-05
3.04461e-05
-1.15982e-05
-1.26176e-06
-1.58257e-05
-2.44235e-05
-4.19658e-06
5.14487e-05
7.82169e-06
-1.22789e-05
1.69285e-05
3.0213e-05
-2.9797e-05
3.23772e-05
-1.76041e-05
-1.01183e-05
-8.47567e-06
-1.77275e-05
4.19422e-05
5.84374e-05
3.21632e-05
-1.03921e-05
1.7488e-05
1.85196e-05
-1.52102e-05
-2.29056e-05
-2.44746e-05
-3.95752e-05
-4.48639e-05
7.56103e-06
2.88732e-05
-4.7836e-05
-1.4154e-05
2.00172e-06
7.283e-07
-1.91538e-05
-2.55782e-05
2.65065e-07
1.705e-05
-3.5359e-05
-2.4195e-05
-4.17772e-05
-1.87789e-05
5.94295e-05
4.89864e-06
-1.53011e-05
2.03293e-05
5.34764e-05
-3.99125e-06
4.26187e-05
2.33403e-05
2.62917e-05
1.25109e-05
-4.48349e-05
9.7952e-06
-3.18824e-05
3.44467e-06
-1.81864e-05
2.58468e-05
-3.81991e-05
1.86169e-05
1.44466e-05
6.17484e-05
3.16846e-05
1.86236e-05
3.25963e-05
4.18328e-05
0.000114457
0.000112306
0.000154921
0.000284116
0.000481537
0.000731091
0.00120922
0.00191811
0.00293328
0.00451457
0.00712289
0.0111468
0.0176093
0.0276928
0.0437155
0.0687284
0.108697
0.170787
0.269529
0.425849
0.672006
1.05296
1.67448
2.64514
4.1301
6.51368
10.4396
16.224
25.2538
40.4647
63.9339
97.5414
153.758
243.798
371.781
557.62
854.289
1231.8
1688.74
1934.86
2001.06
-1234.56
-3745.09
-3.25846e-06
2.76474e-06
6.68588e-06
-1.39042e-05
-5.60733e-06
-7.64898e-06
-1.22877e-07
2.17072e-05
-1.43715e-05
-1.24892e-05
2.37864e-05
-1.34334e-05
-2.81604e-05
-5.53071e-06
1.14823e-05
-2.05039e-05
-4.9297e-05
-2.03085e-05
3.40735e-05
-2.01493e-06
-3.71463e-05
9.8249e-07
9.0872e-06
8.83807e-06
5.75903e-05
-1.95785e-05
2.66581e-05
-2.36648e-05
1.30531e-05
1.00293e-05
-1.14641e-05
1.73922e-05
-4.50189e-05
1.79694e-05
1.92577e-05
2.07265e-05
1.99697e-05
-1.54821e-05
-7.2728e-06
9.86945e-06
1.4198e-06
2.06329e-05
7.24035e-06
4.0635e-05
-1.43779e-05
-2.83559e-05
3.94707e-05
1.72736e-05
-8.13663e-06
4.62838e-06
4.60498e-05
5.31662e-06
-3.68769e-05
1.85972e-05
5.52526e-06
-6.00086e-06
1.35412e-05
-3.46086e-05
-3.56775e-05
-6.69991e-05
-3.31982e-06
-1.09744e-05
-4.1293e-05
-4.86721e-05
2.11772e-05
-5.24634e-06
-5.98068e-05
1.84195e-05
4.46156e-06
-1.7299e-05
3.33849e-05
1.37826e-05
4.71773e-07
6.71823e-05
2.02652e-05
-6.98329e-05
1.11906e-06
4.94979e-05
6.5861e-05
4.51784e-05
1.60839e-05
1.82987e-05
-4.03411e-05
2.19659e-05
1.40489e-05
-5.04036e-05
3.64071e-06
6.42795e-05
2.92519e-05
-2.59242e-05
2.12617e-05
2.66926e-05
3.99257e-05
-7.10869e-05
-7.47599e-06
-2.63677e-05
-5.14345e-06
5.64563e-05
2.19225e-05
-5.72813e-05
8.19803e-06
-3.12985e-05
-1.86493e-05
2.57765e-05
7.1688e-06
-4.79086e-07
-1.31591e-06
3.12019e-06
3.67608e-07
-8.73387e-06
-1.73158e-05
4.32129e-05
8.09762e-06
2.06645e-05
2.34926e-06
2.11027e-05
-2.30004e-05
4.97842e-05
9.66048e-06
2.55867e-05
-1.09371e-05
4.97546e-05
5.05657e-05
4.14608e-05
2.00112e-05
-6.49646e-05
7.30942e-06
1.85668e-05
-4.46055e-05
-7.3022e-05
1.54677e-05
-3.42611e-05
-9.6593e-05
-4.18052e-05
2.82396e-05
7.87543e-07
-1.41884e-05
-1.94441e-05
-2.07519e-05
2.62082e-05
7.29643e-06
1.80313e-05
-1.09474e-05
1.24109e-05
-2.20568e-06
-6.57343e-05
1.69433e-05
5.30344e-05
3.05623e-05
1.60513e-05
-5.59353e-06
-2.51595e-05
-2.75654e-05
-1.30067e-05
5.99811e-06
-9.17701e-06
2.17155e-05
-2.47924e-05
-3.90679e-05
-3.59897e-05
-3.21506e-05
-3.4597e-05
-6.30525e-05
1.08986e-05
4.63996e-05
4.81843e-05
5.49489e-05
8.16718e-06
-2.48334e-05
8.97257e-05
4.7327e-05
3.26929e-05
3.73462e-05
-1.24448e-05
-4.51658e-06
4.88749e-05
-8.39542e-06
3.61857e-06
3.74661e-05
-8.20875e-06
6.49856e-06
-2.48987e-05
-4.71166e-05
-6.85368e-05
-2.77112e-05
1.84596e-05
-3.69698e-05
-9.27895e-06
-4.56743e-05
8.50285e-06
-1.59387e-05
-5.22061e-06
-2.33945e-05
-1.66087e-05
-2.75546e-05
1.98908e-05
-6.08076e-05
-5.52555e-06
-7.2797e-06
8.71161e-06
5.75636e-06
6.51585e-05
4.53764e-06
1.9887e-06
1.08288e-06
5.67825e-05
-5.09105e-06
-3.84672e-06
-1.53178e-05
-3.04865e-05
2.15571e-05
-8.59013e-06
-1.22687e-05
6.26775e-06
4.27993e-05
-4.33385e-05
-8.80556e-06
4.24212e-05
-3.20199e-05
-3.5013e-05
5.33699e-05
-2.34076e-05
-7.36068e-05
2.78594e-05
3.48239e-07
-4.47002e-05
1.15131e-05
3.49399e-05
5.13995e-06
4.65127e-05
4.56841e-05
1.39096e-05
5.05571e-06
-3.44456e-05
-1.8577e-05
-2.35166e-05
-7.06181e-05
-1.21271e-05
-1.40145e-05
7.33901e-05
7.35595e-05
2.14765e-05
-6.31712e-06
-3.66119e-05
-2.40625e-06
-1.72772e-05
-2.5892e-05
3.37375e-05
4.21342e-05
1.56176e-05
4.071e-05
4.71083e-05
-1.12368e-05
-5.76869e-06
-2.81465e-05
-4.54401e-05
3.63703e-05
2.18339e-05
0.000108243
0.0001654
0.000289292
0.000414276
0.000651537
0.00105955
0.0016294
0.00252181
0.00401604
0.00634156
0.00988872
0.015634
0.0245088
0.0385845
0.0606206
0.0956881
0.150026
0.236313
0.372764
0.587617
0.918025
1.45558
2.30093
3.58503
5.62258
9.01455
14.0366
21.6885
34.6258
55.0343
83.7884
131.02
209.048
321.924
484.004
751.233
1123.92
1634.12
2129.76
2911.38
1799.62
3178.64
9.16073e-06
1.4016e-05
-3.27198e-05
-1.61827e-05
1.82304e-05
2.39512e-05
-2.85204e-06
1.28607e-05
-2.56675e-05
-5.12554e-06
4.24072e-06
2.86922e-05
1.51936e-05
7.74761e-06
-1.01173e-06
-9.82277e-06
7.15606e-05
5.18231e-05
2.86482e-05
7.13903e-06
-2.81098e-05
-7.92729e-06
-1.20937e-06
1.77295e-05
-4.02202e-05
1.49464e-05
6.01801e-05
1.07097e-05
1.4194e-05
5.77739e-06
2.61741e-05
-3.56958e-05
1.67612e-05
-5.46541e-06
-1.81002e-05
7.46395e-06
-5.4145e-05
-1.23324e-05
1.74737e-05
-1.88733e-05
3.12349e-05
6.34625e-05
8.43794e-05
-2.32218e-05
3.08028e-06
-1.48525e-05
-7.89876e-05
-1.01215e-05
-4.80842e-05
-2.6571e-05
4.21599e-06
2.37102e-05
4.21197e-05
-9.55276e-06
4.27843e-05
3.10356e-05
2.92444e-05
-3.06972e-06
-4.82949e-05
-2.53151e-05
-9.22898e-06
-3.97262e-05
-2.91613e-05
-2.82179e-05
-5.2785e-05
-2.46133e-05
1.40354e-05
7.10588e-05
4.01763e-05
5.41084e-05
3.53211e-05
2.61632e-05
-4.61733e-05
-3.56014e-05
7.43309e-07
4.96624e-06
-1.58525e-05
1.62603e-05
1.14233e-05
-3.24718e-05
-2.08136e-05
5.35491e-05
1.57148e-05
-2.02396e-05
2.92604e-05
1.97446e-05
1.223e-05
-1.83061e-06
7.09253e-05
-1.60174e-05
-3.61443e-05
6.53682e-05
4.24299e-06
-6.84936e-06
1.68298e-05
2.85133e-05
1.25872e-05
2.22193e-05
8.71239e-07
-3.54113e-05
-8.26932e-06
-2.10498e-05
-3.98732e-05
1.97182e-05
-5.96727e-06
-5.38911e-05
2.61385e-05
2.56856e-05
2.33689e-05
3.9734e-05
5.07007e-05
7.47985e-06
5.98743e-05
1.64499e-05
3.76181e-06
-9.04447e-06
-4.76364e-05
-6.73713e-05
3.26123e-06
-1.36113e-05
-2.81389e-05
-6.89603e-05
1.86841e-05
-1.67086e-05
2.34355e-05
-3.77692e-05
-9.91287e-06
2.12356e-05
4.10363e-05
1.19735e-05
-1.01568e-05
4.47193e-05
3.03086e-05
2.23611e-05
-3.27826e-06
2.35498e-05
6.30401e-06
-2.21558e-05
-5.48647e-05
7.12453e-06
1.44083e-05
-7.44886e-05
-8.62787e-07
9.4597e-06
-4.60292e-05
5.30927e-05
3.52465e-05
-4.85007e-05
-3.12057e-05
1.45442e-05
-1.61009e-05
3.0413e-05
-2.9192e-05
2.30015e-05
-5.91494e-06
1.98821e-05
1.58453e-05
-7.51636e-05
-2.09219e-05
-2.76844e-06
2.72655e-05
3.38415e-05
3.3044e-05
-1.46263e-05
1.76308e-05
5.51306e-05
1.76744e-05
5.94724e-06
4.04387e-05
8.72114e-05
8.52275e-06
-1.29689e-05
-1.50957e-05
-1.88804e-05
2.11853e-05
5.13795e-06
-3.20308e-05
-3.20205e-06
-4.79502e-05
-1.66374e-05
-5.35549e-06
-3.48202e-05
-2.03597e-05
1.98343e-05
-8.33708e-05
1.07454e-05
1.51494e-05
-3.91358e-05
-9.69417e-06
-4.07606e-05
-8.85134e-05
-4.83966e-05
-3.00417e-05
1.18648e-07
-4.73386e-05
3.03402e-06
1.58462e-05
-2.63216e-05
-2.57758e-05
2.07265e-05
5.16987e-06
2.51975e-05
2.55595e-05
3.81057e-05
1.77791e-05
-3.74004e-05
-1.23643e-05
-4.24006e-05
-1.75389e-05
4.17472e-05
8.02783e-05
1.53794e-05
6.42493e-06
4.09047e-05
2.06395e-05
-6.36391e-05
-5.68884e-05
-1.98423e-05
3.90724e-06
-2.12898e-05
-1.58224e-06
-3.20022e-06
-8.41275e-06
2.3011e-05
-1.77418e-05
-1.23511e-05
-3.68495e-05
-1.83909e-05
2.21107e-05
-3.97464e-05
-2.03166e-05
3.30635e-05
-3.43351e-06
3.14632e-05
4.70985e-05
4.34672e-05
-3.64988e-05
4.94281e-06
1.50874e-05
-1.79745e-05
-2.23634e-05
3.19869e-05
8.09834e-06
-1.06107e-05
7.26788e-06
6.99061e-06
-4.74839e-06
3.65543e-06
1.02793e-05
4.70516e-05
-2.57145e-06
-7.17895e-06
1.81985e-05
-2.26924e-05
-7.60748e-07
2.95867e-05
1.55199e-06
8.01672e-05
5.05888e-05
0.0001129
0.000187944
0.000340189
0.000590655
0.000909303
0.00139284
0.00224697
0.00350025
0.0055014
0.00858834
0.0134691
0.0211458
0.0332086
0.0520339
0.0819372
0.128409
0.201701
0.31764
0.500001
0.779305
1.23181
1.94632
3.02809
4.72703
7.56881
11.8014
18.1449
28.8357
45.9789
69.962
108.631
173.64
269.19
405.002
631.589
963.71
1444.26
1991.24
2990.17
2912.76
5918.93
5.43506e-06
-6.63398e-06
-3.45553e-05
4.78906e-05
2.04971e-05
-8.52641e-06
8.77532e-06
-3.6533e-06
-2.82914e-05
-1.9707e-05
-8.42836e-06
-4.43412e-06
6.66435e-06
5.14266e-05
8.03674e-07
2.02393e-06
8.76058e-07
-1.34798e-05
1.8904e-05
4.45545e-05
-3.04983e-05
-1.08316e-05
6.00556e-06
-5.06169e-05
-3.74687e-07
2.31497e-05
2.38948e-05
-2.36796e-05
-1.88027e-05
-2.03625e-05
-7.96419e-05
-3.64101e-05
-2.22867e-06
1.84599e-06
-8.06038e-07
-3.43676e-05
-1.29706e-05
-1.24874e-05
-5.66498e-05
-6.01174e-05
4.63719e-05
7.23677e-06
-3.91823e-06
3.1979e-05
3.27984e-05
2.98727e-05
5.59947e-05
6.98598e-05
-7.42094e-06
8.95714e-06
3.79922e-06
-2.09742e-05
9.95849e-07
-4.36933e-06
-9.58453e-06
-2.15668e-05
7.26044e-06
1.96423e-06
-3.46199e-05
1.63645e-05
3.18369e-05
1.81154e-05
2.91828e-05
4.9203e-05
1.50214e-05
-1.59472e-05
1.60136e-05
-4.84119e-06
-1.83365e-05
-4.73932e-05
1.17775e-06
-7.69631e-07
2.54029e-05
-6.55713e-06
1.06348e-05
-2.05805e-06
-2.64465e-05
6.80313e-06
-1.12391e-06
8.65716e-06
4.74885e-05
3.74788e-05
-9.41346e-06
-1.37277e-05
1.27638e-05
-5.55887e-05
-3.04612e-05
-7.18358e-06
1.77175e-05
-1.54036e-05
4.60426e-05
1.5755e-05
-1.9271e-05
-2.01801e-05
-1.18897e-05
7.60667e-06
-7.49568e-05
-9.05448e-05
-3.29367e-05
-6.64064e-06
1.24998e-05
3.81408e-05
-9.40555e-06
-7.6209e-05
-1.20275e-05
7.16082e-06
-1.43451e-05
1.48731e-05
-2.98418e-05
-9.0297e-06
-2.63446e-05
3.21731e-05
-1.82181e-06
1.71037e-05
5.64139e-05
2.94473e-06
-7.61925e-06
-4.9778e-05
1.73349e-05
-4.0121e-05
-6.89313e-05
-1.15789e-05
-2.73886e-05
-4.34071e-05
-2.7479e-05
6.25164e-05
6.82055e-05
-1.08912e-05
6.01199e-05
2.71685e-05
4.87734e-05
7.87977e-05
3.21698e-05
3.05836e-05
2.61653e-05
1.72196e-05
1.49722e-05
1.684e-05
2.3167e-05
3.97725e-05
1.87668e-05
-5.20196e-05
2.33421e-06
4.1991e-05
-2.89301e-06
1.48137e-05
-2.93679e-05
-1.16449e-05
-2.44977e-05
-4.77293e-05
4.42168e-06
7.67341e-05
1.25809e-05
3.45954e-05
3.72439e-06
8.48196e-06
-4.37154e-05
-5.48997e-05
1.93056e-05
3.36297e-05
-2.72796e-05
-3.59918e-05
2.41664e-05
1.18812e-05
2.85555e-05
-5.21869e-05
-6.1398e-05
4.5489e-05
-1.90138e-05
-4.42671e-06
9.63372e-06
6.61316e-05
3.20155e-05
-9.92003e-06
1.60677e-06
-9.02998e-06
1.68151e-05
-3.08242e-05
-8.52444e-05
-1.04427e-05
2.60545e-05
1.2685e-05
-5.9244e-05
9.00436e-06
-4.58321e-05
-3.00946e-05
-3.91336e-06
-1.39478e-05
2.71964e-05
2.96792e-05
9.18522e-06
2.05219e-05
-7.97639e-05
-2.11583e-05
-1.28913e-05
5.84991e-06
6.58153e-06
3.03439e-05
2.32866e-05
4.48799e-05
4.82064e-05
-1.23351e-05
-9.74711e-06
-1.37068e-05
-3.38222e-05
-4.50878e-05
-3.67984e-06
4.90996e-05
-9.4707e-06
9.53308e-06
-3.77657e-05
2.51559e-05
1.04821e-05
-1.8062e-05
1.57349e-05
3.94971e-05
3.73247e-05
-2.60691e-05
3.76439e-05
1.89452e-05
3.59494e-05
1.99345e-05
2.35693e-05
4.80321e-05
-4.94238e-05
1.12409e-05
2.96743e-05
-7.9014e-06
-4.42474e-05
1.6849e-05
1.05433e-05
3.92264e-06
4.34659e-07
-1.01135e-05
1.27171e-05
2.79209e-05
1.18103e-05
4.32384e-05
1.923e-05
1.0073e-05
-2.3125e-06
-7.79542e-06
-3.30692e-05
-2.08232e-05
5.38237e-05
3.82501e-05
-1.36908e-05
-9.79061e-06
-7.81389e-06
-4.02902e-05
-1.03898e-05
9.44758e-06
-1.62253e-05
5.85129e-05
8.26931e-08
4.08616e-05
4.14296e-05
5.66668e-05
9.27224e-05
7.38416e-05
0.000182595
0.00034205
0.000465402
0.000783824
0.00118377
0.00188065
0.00297484
0.00461297
0.00729412
0.0113628
0.0178428
0.0279573
0.0437171
0.0688202
0.107487
0.168494
0.264794
0.41621
0.647245
1.02024
1.61041
2.50261
3.89277
6.22038
9.7064
14.8764
23.542
37.5868
57.2036
88.3492
141.174
219.788
330.81
516.496
796.623
1214.32
1723.41
2702.71
3066.68
6462.57
9.72523e-06
2.22406e-05
6.4584e-06
3.52081e-06
-1.8504e-05
-9.79611e-06
4.29285e-05
1.00642e-05
1.04907e-05
3.78543e-06
3.5507e-05
4.62029e-05
-2.85915e-05
8.93265e-06
-3.32014e-05
1.79748e-05
-2.56463e-06
-2.52681e-06
-3.4406e-05
3.26572e-05
1.96562e-05
2.47493e-05
7.44841e-06
-4.91085e-05
1.45995e-05
-1.63563e-06
1.3288e-05
-3.42735e-05
9.19488e-06
2.7267e-05
3.56537e-05
2.00453e-05
-3.33762e-05
-6.62969e-06
3.88678e-06
8.82304e-06
4.04743e-05
1.40326e-05
2.51823e-05
1.53651e-05
-3.0476e-06
-3.57867e-06
-1.16482e-05
-1.77071e-05
-5.65348e-05
-2.30189e-05
8.04986e-05
3.88527e-05
1.73786e-05
-2.16497e-05
1.23651e-05
4.06252e-05
-3.96442e-05
-2.37508e-05
3.50792e-05
1.60826e-05
-1.33784e-05
5.37806e-05
1.69668e-05
-6.99299e-06
-2.02595e-05
3.12355e-05
9.93274e-06
-2.84429e-05
-2.83185e-05
1.02766e-05
-5.11275e-05
1.68711e-05
-1.01464e-05
-6.20504e-05
-3.12492e-05
-1.98256e-05
-2.40555e-05
-1.38924e-05
-4.29012e-06
2.54497e-05
3.9982e-05
7.98719e-05
0.000101352
6.33941e-05
6.29674e-05
3.20546e-05
2.42208e-06
-2.83343e-05
-4.74882e-05
2.31341e-05
-2.8537e-05
-9.67092e-06
-1.73837e-05
-3.26751e-05
1.51253e-05
2.57394e-05
6.75789e-05
3.02461e-05
3.54872e-05
-1.99158e-05
9.68063e-06
-1.91034e-06
-4.63321e-05
-1.23558e-05
-3.60312e-05
7.31331e-06
-4.3148e-05
-3.50045e-05
-1.44378e-05
-5.76692e-05
-3.64057e-05
4.61479e-05
-3.34761e-05
4.33052e-05
3.89578e-05
2.5415e-06
-1.6313e-05
-4.43932e-05
7.05616e-06
-1.96187e-05
7.51336e-06
-6.00033e-05
-7.09707e-06
-1.67003e-05
3.1952e-08
-1.52302e-05
5.66342e-05
8.51011e-06
2.84857e-05
-3.64115e-05
2.25352e-05
-4.84946e-06
-3.70256e-05
-1.26835e-05
-4.01865e-05
-5.60285e-05
-6.64415e-07
1.26255e-05
5.46342e-05
-4.51155e-05
-1.89702e-06
1.33003e-05
1.04382e-06
-3.35899e-05
1.11108e-06
4.59436e-05
2.34571e-05
1.84361e-05
-4.08996e-05
-2.43441e-06
-4.92164e-05
-4.98248e-05
2.45385e-06
-7.33538e-06
-2.55989e-05
2.52805e-05
5.95182e-05
3.10852e-05
-1.65762e-05
-3.95235e-06
9.59376e-06
1.36482e-05
5.30046e-05
-1.93257e-05
9.83536e-06
6.85086e-06
-1.49927e-05
-5.66308e-05
-2.36134e-05
2.19316e-05
5.04389e-06
-3.81833e-05
2.80202e-06
4.0778e-05
7.53294e-06
5.78923e-05
1.40371e-05
-6.02248e-06
-1.4256e-05
3.63278e-05
1.81337e-05
1.90873e-05
3.79696e-05
7.06208e-06
4.02147e-07
6.16803e-05
1.02749e-05
-1.94775e-05
2.07096e-05
-2.19557e-05
2.30689e-06
1.05297e-05
-1.836e-05
-3.41447e-05
-6.00992e-05
-3.66263e-05
3.08307e-06
1.72761e-05
3.01432e-05
4.16337e-05
-3.67083e-06
2.49067e-05
2.66843e-05
-4.95615e-05
-8.55696e-05
-2.73943e-05
-6.0764e-05
-3.83213e-05
-5.48434e-05
-7.52568e-05
-3.08997e-06
-7.58168e-06
-9.06445e-06
-2.73463e-05
-2.58594e-05
1.49725e-05
1.27763e-05
-1.9509e-05
3.66595e-05
-1.93899e-05
3.24813e-05
1.19219e-05
7.57564e-06
2.9445e-06
2.66027e-05
4.28679e-05
2.50687e-05
2.9116e-05
-3.1637e-05
-1.15717e-05
-2.22101e-05
-3.11859e-05
-4.44892e-05
-2.43701e-05
-7.72407e-06
3.63786e-05
2.26547e-05
5.56322e-05
-1.8904e-05
-1.96085e-05
2.04496e-05
1.2921e-05
3.87186e-05
-3.13495e-05
-7.32972e-06
-6.02983e-06
2.9742e-06
2.37748e-05
-2.4753e-05
-2.71447e-05
-2.72799e-05
3.03125e-06
1.15834e-05
-6.29821e-05
2.34194e-05
6.04278e-05
5.15834e-07
-1.42844e-05
2.4285e-05
-3.65898e-05
-5.56875e-08
3.21734e-05
7.53038e-05
0.000131534
0.000140811
0.000299913
0.000432924
0.000647698
0.000979374
0.00162556
0.00249057
0.00381521
0.00604923
0.00943719
0.014761
0.0231015
0.0360493
0.0566604
0.0882712
0.138079
0.216588
0.340032
0.527817
0.829934
1.30839
2.03097
3.1507
5.02477
7.84194
11.9942
18.9184
30.2139
45.9931
70.7779
112.987
176.355
265.495
414.538
643.228
990.265
1428.76
2292.58
2798.65
5992.13
8.99759e-06
-1.98094e-05
-1.78002e-05
7.04493e-05
-6.25159e-05
-1.57908e-05
4.79171e-06
2.18744e-06
3.16049e-05
5.27556e-05
-1.52646e-05
2.62376e-05
-3.45821e-06
-2.63381e-05
3.61926e-05
4.47371e-05
1.63818e-05
-3.57554e-05
-2.80456e-05
-3.42601e-05
3.50363e-06
-5.65957e-05
-2.42763e-06
6.18636e-06
7.36326e-06
-2.82771e-05
2.67946e-05
5.54322e-05
5.46605e-05
-1.0384e-05
-1.47714e-05
-4.4e-05
-4.30021e-05
5.46307e-06