/*--------------------------------*- C++ -*----------------------------------*\
| =========                 |                                                 |
| \\      /  F ield         | OpenFOAM: The Open Source CFD Toolbox           |
|  \\    /   O peration     | Version:  2412                                  |
|   \\  /    A nd           | Website:  www.openfoam.com                      |
|    \\/     M anipulation  |                                                 |
\*---------------------------------------------------------------------------*/
FoamFile
{
    version     2.0;
    format      ascii;
    arch        "LSB;label=32;scalar=64";
    class       volScalarField;
    location    "0.003";
    object      ddt0(rho,e);
}
// * * * * * * * * * * * * * * * * * * * * * * * * * * * * * * * * * * * * * //

dimensions      [1 -1 -3 0 0 0 0];

internalField   nonuniform List<scalar> 
180000
(
-4.69687e-06
9.39233e-06
-1.03912e-05
3.28248e-06
-2.57454e-05
-6.42079e-06
4.47098e-05
5.36656e-07
-4.50565e-05
2.6749e-05
-2.99121e-05
-5.272e-05
-4.85679e-08
-1.57507e-05
-4.59124e-05
2.43522e-05
2.59857e-05
8.74607e-06
2.61763e-05
4.88564e-05
-2.99956e-06
-9.61838e-06
-5.80281e-06
6.14498e-06
-9.52027e-06
9.77327e-05
2.87759e-05
-2.60476e-05
2.75208e-05
-7.49166e-05
-1.11698e-05
1.41931e-06
5.84806e-05
2.48294e-05
-4.2294e-05
2.05193e-05
-8.40481e-06
-2.01953e-05
-2.69086e-05
3.64124e-05
4.68357e-06
-1.0317e-05
-1.73803e-05
-3.52513e-05
3.08369e-05
4.99584e-05
-5.45081e-05
-2.72833e-05
-5.46458e-05
-2.09719e-05
-1.60657e-05
-7.17955e-05
-5.44384e-05
6.16661e-06
7.6992e-05
1.17957e-05
2.67005e-05
0.00011617
6.73678e-05
2.74362e-05
9.80264e-06
1.0699e-05
-1.49495e-05
-4.47787e-05
-1.45603e-05
2.7983e-05
-5.46931e-05
8.24851e-06
3.47977e-05
9.97276e-05
2.82478e-05
5.67681e-05
9.37504e-05
-5.02977e-05
-7.76505e-05
-6.98344e-05
-5.97141e-05
-5.423e-05
-5.86502e-05
8.74015e-06
-2.13053e-05
-5.07038e-05
-6.56245e-05
-1.83103e-05
7.48255e-05
0.000127909
3.82887e-06
-4.09681e-07
2.09941e-05
7.26836e-05
6.11126e-05
3.24448e-05
-9.65548e-05
-0.000147497
-4.55608e-05
-3.2061e-05
-3.69729e-05
-3.1727e-05
1.87711e-05
-1.94274e-05
7.29885e-05
2.347e-05
1.19107e-05
-1.74386e-05
-5.86664e-05
-1.05751e-05
-3.4107e-05
-6.29106e-05
1.04404e-05
1.38634e-05
3.41447e-05
3.85771e-05
6.42582e-05
9.93511e-06
-2.30562e-05
-4.03338e-05
-4.18809e-05
-3.98756e-05
3.33319e-05
0.000156613
9.66519e-05
9.2926e-05
8.39463e-06
2.93857e-06
9.70729e-05
1.79561e-06
5.41667e-05
-4.6821e-05
-5.53746e-05
-8.2018e-05
9.13855e-06
3.29508e-05
3.83945e-06
-3.42781e-05
4.89325e-05
7.88275e-05
4.66582e-06
-6.5147e-05
-8.50424e-05
-5.52512e-05
-6.94296e-05
-4.47913e-05
9.07232e-07
5.19882e-05
6.36012e-05
6.32932e-05
2.91616e-05
-2.92315e-06
4.96873e-05
0.000113998
-1.20174e-05
-7.5415e-05
4.64663e-05
2.52475e-05
-5.24231e-05
-7.49173e-07
-2.4392e-05
-3.26801e-05
6.33095e-05
9.60168e-05
5.76957e-05
2.07112e-05
1.21788e-05
-8.46036e-06
-5.55188e-05
-1.12601e-05
-0.000100963
-3.10312e-05
-1.22338e-05
3.43859e-05
-7.18338e-05
-8.93615e-05
-8.33213e-05
1.55562e-05
1.63459e-05
-4.3436e-05
2.97066e-05
7.84092e-05
5.6704e-05
3.46775e-05
-5.52292e-06
-7.00733e-07
7.80814e-05
-1.30412e-05
3.94828e-05
0.000110655
-3.05224e-05
-7.99074e-05
-2.41724e-05
-7.32934e-05
-9.78057e-05
-0.000143653
-6.63193e-05
5.03004e-05
-5.32932e-06
-3.07818e-05
1.39249e-05
-2.32788e-05
-6.07597e-06
4.18303e-05
3.56566e-05
7.0407e-05
8.15227e-05
4.78808e-05
5.25467e-05
-5.3472e-05
3.23066e-05
7.38281e-05
8.44931e-05
2.14167e-05
5.73083e-05
2.84039e-05
2.69405e-05
-6.97308e-05
1.73563e-05
1.44935e-05
-1.7102e-05
7.42836e-05
-3.67916e-05
3.88124e-05
8.46688e-05
6.08002e-05
8.182e-06
1.8192e-05
5.85126e-05
-1.12118e-05
3.20234e-05
-4.36647e-05
3.38505e-05
1.48751e-05
-1.85865e-05
-4.11416e-05
-4.15437e-05
-9.47223e-05
-0.000110809
-5.23036e-05
-7.64688e-05
-7.9209e-05
-1.06073e-05
-3.03594e-05
-2.86447e-05
-6.63828e-05
1.20291e-05
-3.0861e-05
-5.66312e-05
-6.97628e-05
-0.000130479
9.88992e-06
-2.51897e-05
-5.53471e-05
-9.61558e-06
1.72599e-05
6.20978e-05
8.82604e-05
0.000140225
0.000282151
0.000357458
0.000452606
0.000743159
0.00118914
0.00190814
0.00299326
0.00469587
0.00739608
0.0115467
0.0182473
0.0286712
0.045245
0.0713658
0.112447
0.177393
0.279748
0.441318
0.696632
1.10038
1.73705
2.74622
4.34216
6.86248
10.8514
17.2053
27.2109
43.0257
68.3154
108.446
171.288
272.02
433.522
687.194
1089.73
1743.99
2787.4
4456.54
7185.45
11734.9
19232.5
32276.2
54031.6
93599.8
147588
1.38176e-05
-3.59532e-05
-2.05168e-05
1.07253e-05
6.4462e-05
1.45748e-05
-2.92823e-05
-1.58674e-05
4.11682e-05
-3.90822e-05
-1.37626e-05
-6.65323e-05
-7.24871e-05
1.46711e-07
5.23675e-05
6.09981e-05
6.18902e-05
-7.79825e-05
-2.07988e-05
-4.01463e-05
2.1839e-05
-4.67706e-07
9.98141e-06
-6.83764e-05
-1.13861e-05
-6.75875e-06
2.26324e-05
-1.65514e-05
-1.67499e-05
7.44011e-05
-2.32864e-05
1.81058e-05
-1.93624e-05
-1.2345e-05
2.88004e-05
2.44616e-05
-4.48589e-05
2.44819e-05
0.000126662
8.22822e-05
-1.57974e-05
6.17332e-06
-1.93743e-05
1.50152e-05
-1.4839e-05
2.19583e-05
1.6522e-05
0.000158963
7.31612e-05
-1.27236e-06
-1.25965e-05
-0.000115902
-4.13852e-05
-5.8582e-05
-4.43725e-05
-0.000130678
-8.42602e-05
-1.42978e-07
-3.92703e-05
1.40148e-05
0.00010833
0.000168327
8.7868e-05
-3.69035e-05
1.24686e-06
-6.18907e-05
2.18657e-05
2.68176e-05
4.7024e-05
-2.67909e-05
-1.90976e-06
1.60209e-05
2.13256e-06
7.10525e-05
2.57727e-05
-5.67041e-05
8.16917e-06
-3.4476e-05
-8.88802e-06
-5.13445e-05
-8.90703e-05
4.59599e-05
-2.03287e-06
-2.08388e-05
7.63991e-06
-2.84245e-05
-1.74851e-05
3.54344e-05
1.48988e-05
3.91174e-05
6.61862e-06
2.00347e-05
-5.29225e-05
-4.25285e-05
5.92543e-06
-7.60558e-05
-2.93437e-05
1.54553e-06
2.07096e-05
-2.86267e-05
-1.96279e-05
5.76958e-05
9.06242e-05
6.566e-05
4.85736e-05
2.32293e-05
8.00315e-06
-0.000108543
-9.67463e-05
-7.87511e-05
-3.04152e-06
-7.28658e-05
-3.49846e-05
4.41166e-06
-4.43919e-05
3.47878e-05
8.19518e-05
8.91716e-05
4.36239e-05
2.43651e-05
-1.53683e-05
-3.31997e-05
2.41528e-05
-9.11301e-05
5.53661e-05
7.68115e-05
7.71945e-05
-2.39399e-05
3.36208e-05
1.25806e-05
1.97237e-05
5.55487e-05
2.41305e-05
-3.22909e-05
-5.57918e-05
3.071e-05
-3.03301e-05
-6.88523e-05
-7.16541e-05
-0.000116516
6.08536e-05
0.000156488
-4.18793e-06
7.23314e-06
5.92208e-06
-4.21932e-05
-5.96502e-05
2.14054e-06
7.74104e-05
2.14526e-05
-5.0934e-05
2.09658e-05
7.45395e-05
0.000129889
1.83194e-05
7.69396e-05
9.27889e-05
-2.96797e-05
2.55104e-05
-9.58533e-05
-9.92287e-05
2.48306e-05
-2.92554e-05
-1.10323e-06
-1.12929e-05
-3.42796e-05
-0.000118245
-8.67531e-05
-6.50543e-05
-7.63987e-05
-5.7918e-05
6.91155e-05
3.81662e-05
6.54056e-05
3.93377e-05
1.58457e-05
1.76443e-05
0.000134274
-3.53295e-06
-5.29116e-05
5.34944e-07
2.34671e-05
-2.0734e-05
-8.23028e-06
-5.16557e-05
-5.50743e-05
-0.000107887
-6.14038e-05
-5.41562e-05
2.31737e-05
2.32501e-05
-1.98916e-06
4.68657e-05
1.06493e-05
3.37999e-05
3.17811e-05
-3.13013e-05
2.13782e-05
-2.9065e-05
-2.87614e-05
-1.2373e-05
1.52097e-05
-1.95721e-05
3.66137e-05
-5.47597e-05
-1.01665e-05
9.81796e-05
7.09691e-05
5.05654e-05
4.16253e-05
3.59125e-05
3.54696e-05
4.73368e-05
-1.03385e-05
4.61931e-05
0.000147508
7.6725e-05
-3.04262e-05
2.41874e-05
-3.97288e-05
-3.91551e-05
-1.5828e-05
2.23873e-05
1.99933e-05
0.000110013
0.000148063
8.72343e-05
0.000117516
2.17067e-05
-6.22031e-05
-3.03002e-05
-0.00013452
9.13007e-06
7.61306e-05
7.59931e-06
-0.000139128
-8.80312e-05
-4.87582e-05
-0.000122232
-7.06692e-05
-0.000119648
-0.000114842
-3.77652e-05
2.12711e-05
1.71982e-05
-4.26243e-06
6.14477e-05
8.58937e-05
3.49663e-05
-2.89519e-05
-2.51863e-05
5.29104e-05
4.83249e-05
3.71116e-05
8.21195e-05
0.000175269
0.000351367
0.000500245
0.000741949
0.00121248
0.00181331
0.00283611
0.00447717
0.00711531
0.0112452
0.017509
0.0274436
0.0431788
0.0681181
0.107337
0.169138
0.266402
0.419951
0.661847
1.04425
1.64617
2.59752
4.10189
6.47483
10.2066
16.1473
25.5363
40.2402
63.5694
100.944
159.246
250.859
398.514
632.576
995.777
1578.58
2518.31
4002.01
6362.48
10246.2
16555.1
27071.1
44191.6
74380.1
117299
-7.21491e-06
1.05649e-05
-1.24957e-05
-9.36468e-06
1.54838e-05
2.60863e-06
4.13881e-05
1.70527e-05
2.89404e-06
1.72127e-05
6.75635e-06
-5.16102e-05
-6.19427e-05
5.82466e-05
-7.89258e-06
-1.87059e-06
2.83569e-05
-4.02217e-05
-4.36887e-05
-2.67506e-05
-5.0436e-06
9.48961e-07
-5.35061e-05
1.20171e-05
6.01522e-06
-5.21334e-06
7.38321e-05
1.20055e-05
5.51938e-05
8.20353e-05
-1.33223e-05
-4.62427e-05
3.64061e-07
-8.54173e-06
1.71904e-05
-1.24931e-05
-3.65329e-05
-3.6842e-05
-2.86534e-05
6.08872e-05
3.42494e-05
2.90574e-05
0.000139117
4.48562e-05
-6.49938e-05
-4.87771e-05
4.38748e-05
1.73983e-05
-2.4406e-05
-4.42371e-05
-8.37361e-05
-4.21071e-05
-1.66934e-06
-1.2227e-05
-1.51403e-05
-1.20157e-05
-5.89078e-05
-0.000114467
-6.71817e-06
3.31987e-05
-4.22574e-05
0.000104308
9.24362e-05
5.36157e-05
1.57623e-05
-2.76608e-05
7.73557e-06
-2.41024e-05
5.95121e-05
9.82521e-05
0.00010731
3.81021e-06
-3.89458e-05
-7.0254e-05
2.75585e-05
-2.95997e-05
-5.19057e-05
-5.26457e-07
3.88367e-05
1.60988e-05
6.29155e-05
2.51857e-05
-2.73741e-05
-4.78615e-06
4.87341e-05
3.86825e-05
-5.86465e-05
-8.63523e-05
6.12573e-05
-0.000104566
-0.000133865
-2.12179e-05
3.48418e-06
4.2634e-06
-1.91795e-05
-4.52958e-05
-2.08802e-05
-7.69556e-05
2.93689e-06
5.11635e-05
5.00624e-05
8.44806e-05
7.0047e-05
5.01176e-05
9.4795e-05
6.85356e-05
-2.82877e-05
-8.07332e-05
-4.24132e-05
1.92789e-05
-8.30989e-05
-3.40807e-05
-1.78379e-05
-3.79088e-05
-6.8856e-05
-7.60996e-06
7.46679e-05
2.13615e-05
2.36111e-05
9.7114e-05
1.00337e-05
-2.08564e-06
1.85982e-05
-3.40583e-05
-1.14898e-05
7.99048e-05
-4.62689e-06
2.83805e-05
1.34823e-05
2.52296e-05
-6.13203e-05
-5.37345e-05
3.04862e-05
-4.23831e-05
-3.9767e-05
5.32999e-05
0.000100865
6.49685e-05
-1.91346e-05
-7.66069e-06
9.87344e-07
-6.3556e-05
-3.32968e-05
-1.02612e-05
-3.26442e-05
-4.99652e-05
4.57531e-05
-3.71738e-07
-1.3243e-05
2.13013e-05
1.36512e-05
1.96485e-05
5.52755e-05
0.00014211
5.34022e-05
2.76988e-05
2.86831e-05
-2.90683e-06
-8.1313e-05
-0.000120941
-0.000118501
-4.62605e-05
-7.98707e-05
-0.000110326
-5.15226e-05
-8.6752e-06
-5.81147e-06
-7.70764e-05
-8.24985e-05
2.34661e-05
9.66431e-05
5.34533e-05
7.32205e-05
7.01156e-05
1.60406e-05
-1.42081e-05
2.86823e-05
1.77563e-05
4.71345e-05
4.05936e-06
4.41089e-05
1.35378e-05
-4.34782e-05
1.7236e-05
-9.59628e-05
-8.02793e-05
-0.000119278
-3.37906e-05
2.72486e-05
1.63517e-05
-2.25873e-05
-3.44903e-05
5.694e-05
0.000139437
0.000162489
0.000106291
5.70537e-06
7.60719e-05
-1.66505e-05
-5.05313e-05
5.4537e-06
3.50694e-05
-2.22431e-05
3.90598e-05
4.00679e-05
-0.000108441
1.88959e-05
4.28691e-05
-1.2183e-05
3.37685e-05
6.68125e-05
-1.00281e-05
-3.08085e-05
4.99238e-05
3.24005e-05
-1.47367e-06
-5.01869e-05
8.48778e-06
4.65176e-05
-9.45019e-06
1.42445e-05
9.46677e-05
-1.22955e-05
-4.76713e-05
-0.000130428
-8.37991e-05
2.91477e-05
8.43995e-05
6.43383e-05
1.81512e-05
6.60293e-05
3.949e-05
-3.31334e-05
-2.28915e-06
-4.26189e-05
1.56563e-05
-7.57169e-06
-7.26408e-05
-0.000108879
-2.00847e-06
1.17633e-05
1.86753e-05
1.22782e-05
-6.41351e-06
4.83055e-05
5.53527e-05
8.95791e-05
-3.46374e-05
-1.6294e-05
7.60657e-05
6.22711e-05
3.01935e-05
7.55102e-05
9.61533e-05
0.000194319
0.000221014
0.000270019
0.000463268
0.000654765
0.000949811
0.00158629
0.00254828
0.00405791
0.00644787
0.0102415
0.0160917
0.0252987
0.0398924
0.0626322
0.0984727
0.154724
0.243223
0.382645
0.601739
0.947504
1.49034
2.34454
3.69499
5.82355
9.14524
14.4169
22.7859
35.7947
56.1917
89.0976
140.51
219.696
346.987
551.319
863.817
1355.56
2154.66
3414.41
5368.2
8543.81
13658.3
22031.4
35204.9
58664
91223.1
-5.09693e-07
-5.07079e-06
3.00294e-06
-3.44952e-05
5.512e-06
5.81646e-05
-4.36326e-05
-9.55519e-05
2.58085e-05
5.39677e-06
1.67377e-05
1.32823e-05
-3.38861e-05
3.5804e-06
5.52897e-05
3.47917e-06
1.33688e-05
2.82001e-05
-2.40767e-05
4.35331e-06
-3.02587e-05
3.15201e-05
9.48415e-06
4.92833e-05
1.64862e-05
9.976e-06
1.4122e-05
-2.1381e-05
-3.96197e-05
2.4099e-05
1.90811e-05
-4.98766e-05
-7.85968e-05
0.00011214
0.000103203
2.68169e-05
-2.961e-05
-5.048e-05
0.000102124
7.73473e-05
-2.07943e-05
-6.86826e-05
-2.02698e-05
2.30664e-05
3.53918e-05
1.39442e-06
-3.0329e-05
-2.8614e-05
-0.000109051
-9.435e-05
-1.38005e-05
-2.63495e-05
5.80768e-05
8.58906e-05
0.000165196
0.000175387
-3.14462e-05
-9.70057e-05
-6.00408e-05
-5.93027e-05
-6.1977e-05
-3.96166e-05
-1.81169e-05
-0.000131181
-3.24246e-05
1.34106e-05
0.000114433
0.000103098
-2.04962e-05
-2.08982e-05
9.42269e-06
-1.12557e-05
-1.35982e-06
2.74269e-05
5.82689e-05
0.000103515
4.39661e-05
1.3209e-05
7.63087e-05
-1.73901e-05
-2.30547e-05
-5.09272e-05
3.3458e-06
-2.8004e-05
-4.67563e-05
-0.000116793
-6.82144e-05
3.02533e-05
2.24471e-05
-2.3426e-05
8.78194e-05
2.03925e-05
1.65702e-05
-5.03605e-05
5.39668e-07
-5.54239e-05
-8.81017e-05
-6.50803e-05
-2.05041e-06
5.70046e-06
-7.93378e-05
-1.86716e-06
-4.18645e-06
6.33114e-05
8.00289e-05
7.77695e-05
0.000113449
-1.58894e-05
-3.31276e-05
-2.43328e-05
8.10766e-05
1.38116e-05
1.17764e-05
9.58254e-06
-7.18277e-05
-7.09785e-06
-4.71863e-05
-4.12144e-05
-3.90855e-05
-2.5073e-05
-9.21542e-05
-6.83493e-05
-1.45964e-06
-3.93508e-05
4.96642e-05
2.1875e-05
6.19188e-05
6.65342e-05
0.000104368
1.1308e-05
4.98235e-05
0.000113775
0.000195276
7.28663e-06
-8.26617e-05
3.16489e-05
-2.14202e-05
-0.000111965
-0.000109113
-1.83406e-05
4.41003e-05
3.48141e-05
4.23914e-05
-1.79605e-06
-8.18595e-05
2.45269e-05
2.97782e-05
5.94725e-05
6.64568e-05
-2.62165e-05
5.13145e-05
-3.84751e-05
-3.39117e-05
8.70056e-05
8.31627e-05
-5.10838e-05
4.18803e-05
3.91725e-05
9.66914e-05
6.81595e-05
-7.78069e-05
-9.53112e-05
-1.31095e-05
-7.18185e-05
-0.000102978
-0.000128123
-0.000106227
2.28045e-05
7.19307e-07
1.27713e-05
1.16246e-05
3.90063e-05
-2.14766e-05
-3.30679e-05
6.33893e-05
6.92997e-05
3.43804e-06
-5.05998e-05
5.43785e-06
-4.88275e-05
-1.1738e-05
-6.5087e-05
-6.68894e-05
3.71457e-05
-8.79314e-05
4.43313e-05
0.000144339
3.00521e-05
4.32926e-05
1.5393e-05
5.44991e-05
-4.03044e-06
-3.44917e-05
7.79977e-06
1.75908e-05
8.76622e-05
-2.48403e-05
-5.82768e-05
-1.26182e-05
5.37321e-05
9.97263e-06
-3.80162e-05
-2.87881e-05
-2.4167e-05
-2.45623e-05
5.52248e-05
8.09731e-06
5.75627e-05
-3.88982e-05
-2.45586e-05
-6.9361e-05
-5.45483e-05
-4.60347e-05
-1.20826e-05
-8.98303e-06
1.28903e-05
3.57766e-05
6.44232e-05
8.00644e-05
-2.80381e-05
-2.2398e-05
-4.60626e-05
3.14343e-05
2.06254e-05
1.41721e-05
9.83576e-06
-9.63289e-06
-3.88144e-05
-1.77655e-05
2.6312e-05
6.53209e-05
0.000132362
6.71156e-05
-2.96348e-05
2.95856e-05
4.75596e-05
-0.00010745
-2.53819e-05
-2.54681e-05
-0.000126551
-3.78162e-05
-4.98009e-06
4.41898e-05
-8.85674e-06
-2.60308e-06
5.9943e-05
5.55858e-06
9.50774e-06
0.000108043
5.42911e-06
5.41944e-05
2.36815e-05
9.1579e-06
3.26697e-05
0.000102933
8.43294e-05
0.000260021
0.000363671
0.000596522
0.00100845
0.00158086
0.00247085
0.00374694
0.00579568
0.00901555
0.0142355
0.0224453
0.0352324
0.0553509
0.0868873
0.136437
0.214101
0.33604
0.527119
0.828286
1.2999
2.0385
3.20331
5.03933
7.88847
12.3833
19.5383
30.6356
47.8159
75.541
119.15
185.394
290.63
461.474
722.04
1123.06
1774.53
2808.9
4385.09
6903.54
10940.5
17492.1
27503
45354.9
69462.9
-2.07675e-05
-1.75813e-05
-1.82416e-05
6.16532e-06
8.07658e-05
5.36026e-05
5.68427e-06
-8.65439e-05
1.07615e-06
-1.4339e-06
-5.43189e-05
3.02942e-06
5.34023e-05
-1.55565e-05
-6.81534e-07
1.7024e-06
7.98304e-05
1.58419e-05
-5.33717e-05
1.06179e-05
-8.89613e-06
5.04695e-05
1.82346e-05
-0.000111466
-8.11327e-05
1.76789e-06
-1.23264e-05
-9.46299e-06
-9.70825e-07
6.48753e-05
5.18804e-06
2.53612e-05
3.65568e-05
-4.30452e-05
-7.95475e-05
-4.14785e-05
-4.60965e-05
4.43115e-05
-1.57188e-06
3.28065e-05
8.51315e-05
-5.55837e-06
1.97527e-06
-2.90642e-05
-1.39625e-05
6.33837e-05
3.62836e-06
9.16503e-06
9.93865e-05
2.39152e-05
-4.07536e-05
4.86305e-06
1.44354e-05
-4.72617e-05
-0.000155782
-2.05342e-05
-7.78028e-05
-5.48771e-05
9.22726e-05
0.000124969
-3.24213e-05
6.5009e-06
-1.83047e-05
-1.05932e-05
-2.25344e-05
-3.18454e-06
1.3695e-05
-3.01248e-05
-4.62239e-05
-1.43976e-05
-3.44041e-05
2.6617e-05
-5.60593e-06
-7.47725e-05
2.11341e-05
8.91104e-05
9.14717e-05
-5.88684e-05
-1.61692e-05
-7.48144e-05
2.56574e-05
3.15793e-05
0.000101464
-5.61535e-05
-1.25247e-06
0.000136962
-3.16724e-08
-6.85612e-05
-3.55882e-05
-5.8489e-06
-2.20173e-08
-6.39499e-05
-0.000132136
-2.26801e-05
2.74291e-05
7.17242e-05
-1.29541e-05
-0.000104384
-2.6299e-05
9.91058e-05
4.43059e-05
8.35743e-05
-3.93675e-05
-1.40405e-05
1.36125e-05
5.3146e-05
-3.37483e-05
4.59657e-05
5.58396e-06
-1.01703e-05
3.77552e-05
-1.53685e-05
3.34481e-06
3.78797e-05
-0.000107319
-3.18344e-05
9.39259e-06
1.49151e-05
-1.23525e-05
3.5303e-05
-1.53716e-05
-9.17417e-05
-8.95188e-05
-0.000189681
-0.000107845
9.00373e-05
1.86546e-05
9.23222e-07
4.09002e-05
8.23217e-05
4.95271e-05
8.08916e-05
0.000161431
3.71526e-05
7.60141e-07
3.12323e-05
-4.53022e-05
-5.50363e-06
-3.18942e-05
-3.36064e-05
-8.00001e-05
-3.23031e-05
-7.03936e-06
2.64206e-05
8.03704e-05
0.000124171
-7.23767e-06
-8.30184e-05
-2.80943e-05
1.65017e-05
-4.67414e-06
3.32854e-05
6.1334e-06
1.44573e-06
-1.372e-05
-7.57713e-05
-0.000107833
-6.68974e-05
6.62724e-05
7.76973e-05
7.51103e-05
0.00014985
8.68684e-05
5.2467e-05
1.82388e-05
-5.84054e-05
-0.000131621
1.31478e-05
-7.35857e-05
-0.000136336
-4.96913e-05
-8.27523e-05
-5.65505e-05
1.07147e-07
2.70029e-05
2.21374e-05
7.90467e-05
2.57574e-05
-7.43025e-05
-8.38119e-05
-8.15451e-05
-1.80363e-07
8.74549e-05
4.12756e-05
1.98724e-05
3.76897e-05
8.78323e-06
2.93136e-05
-3.51661e-06
3.85902e-05
2.36814e-05
5.54577e-05
5.30714e-05
5.65208e-05
4.88124e-05
6.67378e-05
0.000109468
3.90796e-05
1.00188e-05
9.77833e-05
2.97597e-05
4.63759e-05
2.9417e-06
2.64689e-05
-2.52163e-05
-2.23031e-05
-7.81221e-06
-2.50991e-05
2.02503e-05
9.14256e-06
-1.64583e-05
-5.64892e-05
-5.1782e-05
-8.43944e-05
-1.36526e-05
8.33601e-05
-6.03835e-05
-3.96136e-05
3.51097e-05
-5.06717e-05
-4.94124e-05
9.13638e-06
7.57621e-05
5.89691e-05
8.54504e-05
9.62597e-05
1.47796e-06
-4.38965e-05
-5.25845e-05
-0.000116049
-5.86709e-05
-6.12447e-05
-2.50155e-05
-4.1801e-05
3.29092e-05
9.53863e-05
0.000111669
0.000162196
6.06777e-05
9.81667e-06
-9.26619e-05
-2.18411e-05
-4.9508e-05
2.67995e-05
6.35074e-05
6.28343e-05
0.000122557
-2.7696e-05
-6.86929e-05
-5.49366e-05
-8.77537e-05
-0.000138136
-4.259e-05
1.86992e-05
0.000166882
0.000214773
0.000265583
0.000415908
0.000583688
0.000857917
0.00125984
0.00199406
0.00325752
0.00504297
0.00794961
0.0125755
0.0194636
0.030398
0.0476836
0.0745657
0.116778
0.182898
0.286293
0.448092
0.70247
1.09999
1.72037
2.69586
4.23254
6.60854
10.3338
16.2686
25.4751
39.5836
62.2766
98.218
152.406
237.327
376.149
588.639
909.981
1429.06
2260.48
3516.43
5490.81
8642.27
13744.9
21374.8
34939.5
52734.6
-3.90395e-06
-8.77073e-07
5.45538e-05
-9.8952e-06
-3.52572e-05
-3.4585e-05
-2.20428e-05
1.96875e-05
4.24489e-05
3.296e-05
-3.73875e-05
-4.36403e-05
-4.06518e-06
-5.73318e-05
7.06898e-05
6.4952e-05
1.06785e-05
-5.88032e-05
-5.00556e-05
-5.86583e-05
5.16944e-05
6.33912e-05
-4.80651e-05
-4.23956e-05
1.417e-05
-6.45398e-05
9.99129e-06
3.01131e-05
6.72243e-05
-7.19366e-05
3.37576e-05
6.88713e-05
4.83215e-05
5.02092e-05
2.80883e-05
4.76003e-05
4.86585e-05
6.58824e-05
6.94297e-05
2.34813e-05
-5.94817e-05
-0.000144438
-0.000143618
-9.9665e-05
-0.000104676
-3.28478e-05
6.81234e-05
8.10518e-05
0.000123236
0.0001038
6.53229e-05
6.05674e-05
-7.79247e-05
-2.69711e-06
-3.48636e-05
-0.000158038
-0.000100803
-9.56039e-05
4.34435e-05
5.40993e-05
8.60605e-05
2.58062e-05
2.68286e-05
3.78704e-05
0.000117908
0.000120314
-9.24065e-06
-4.25006e-05
-0.000134375
-0.000109044
-6.89124e-05
-5.15179e-05
-7.79698e-06
-9.76363e-06
-3.05286e-05
3.48872e-05
5.03161e-05
-6.40765e-06
-8.42515e-07
7.77013e-05
5.57247e-05
-7.73764e-06
-4.14891e-05
5.3364e-05
7.03441e-06
2.06573e-05
0.000101876
-4.48783e-05
-0.000124142
-3.34698e-05
2.2574e-05
-5.67898e-06
-2.266e-06
-3.90183e-05
-9.42184e-05
-9.71143e-05
-2.19573e-05
-2.1746e-05
1.87753e-05
6.77126e-05
1.31138e-05
7.13168e-05
3.40463e-05
5.7441e-06
8.73229e-05
0.000132485
0.00010314
3.04352e-05
2.61757e-05
-3.79367e-05
-7.19628e-05
-6.01834e-05
-4.53541e-05
-0.000111007
-0.000136925
-5.79077e-05
5.00842e-06
9.67612e-06
3.85799e-06
1.83558e-05
0.000160061
0.00010699
1.78635e-05
-5.461e-06
7.2857e-07
2.61701e-05
7.22234e-05
-5.03216e-05
-4.27029e-06
-4.70714e-06
-3.83392e-05
-4.80419e-05
-2.8956e-05
-5.26659e-05
-5.89412e-05
2.95016e-05
-5.95595e-05
1.05653e-05
-1.82947e-06
-5.30386e-05
3.43939e-05
5.83367e-05
-1.52429e-05
1.74105e-05
9.84517e-05
-3.69072e-05
9.11609e-06
0.00012172
1.37869e-05
1.85536e-05
2.56155e-05
-7.80851e-05
-6.31522e-05
-1.8775e-05
-1.49868e-05
-1.98074e-05
-2.21499e-05
7.70301e-05
0.00012649
9.73798e-06
-5.6352e-06
-5.11086e-05
-2.57736e-05
5.29737e-05
-1.47207e-05
-3.10584e-05
-1.50989e-05
3.79648e-05
-0.000109295
-0.000103892
-2.58732e-05
-6.91834e-05
2.67635e-05
-6.98848e-06
-1.68893e-05
1.27646e-05
4.10989e-05
8.02496e-05
0.00011075
9.98201e-05
1.1112e-05
3.09884e-05
-4.86673e-05
4.19428e-05
3.33097e-05
-3.9781e-05
-9.13029e-05
-9.97167e-05
-6.27728e-05
7.53701e-05
0.000104628
0.000145849
9.6059e-05
0.000127383
6.72949e-05
-3.26952e-05
3.51448e-05
8.51254e-05
6.17977e-05
7.31565e-05
3.23836e-05
-8.57531e-05
-0.000141074
-8.07783e-05
-1.92652e-05
-3.84195e-06
2.90041e-05
5.40643e-05
6.59794e-05
-6.7172e-05
-0.000100931
-8.26727e-05
-5.17538e-05
-8.07473e-05
-1.77209e-05
3.27232e-05
4.41877e-05
-3.85584e-05
-1.49629e-05
3.79696e-05
1.8788e-05
2.62533e-05
-1.07864e-05
-5.52485e-05
7.00508e-06
8.77488e-05
8.82801e-05
-2.74423e-05
-2.02081e-05
9.46814e-05
5.50968e-05
3.08468e-06
-1.76073e-05
-5.03639e-06
-8.05735e-05
-2.85644e-05
-1.59584e-05
6.82158e-06
-4.52272e-05
7.30514e-05
4.79146e-05
1.63854e-05
5.42308e-06
5.02551e-05
5.7144e-07
4.43705e-05
4.24773e-05
2.43851e-05
9.57236e-06
-6.73787e-05
1.37837e-07
3.02342e-06
-9.74978e-05
3.9315e-05
2.58805e-06
0.000125615
0.000225665
0.000318838
0.000537662
0.000806958
0.00115182
0.00179369
0.0027475
0.0043575
0.00672649
0.0104535
0.0163452
0.0255326
0.0400008
0.0624119
0.0975082
0.152457
0.23836
0.37205
0.581983
0.909383
1.41863
2.21725
3.47456
5.41335
8.4377
13.254
20.7306
32.1065
50.3268
79.3299
122.904
190.41
301.128
471.459
726.022
1134.31
1792.91
2784.45
4323.39
6769.28
10729.8
16565
26890.8
40089.3
-1.5516e-05
2.51999e-06
5.97751e-05
-6.87662e-06
-2.61581e-05
-1.30442e-06
-1.84937e-05
9.29067e-06
3.21192e-06
1.46405e-06
2.96003e-05
7.34211e-05
3.28113e-06
-2.89839e-05
-5.72754e-05
-1.83986e-06
-8.7815e-06
2.27391e-05
-2.98684e-05
-3.1385e-05
2.39718e-05
-5.82777e-05
-5.13799e-05
1.65327e-05
3.19045e-05
-6.62192e-05
-4.40629e-06
2.4907e-05
-6.27736e-05
3.67943e-05
7.40251e-05
0.00014591
4.65719e-05
1.16285e-05
1.95242e-06
1.77412e-05
1.58431e-05
-1.57973e-05
9.80851e-05
0.000100162
3.87788e-06
2.63425e-05
5.08893e-07
-6.42223e-05
-3.62041e-05
-7.64868e-05
-9.28243e-05
-4.25935e-05
-2.72123e-06
-7.04359e-06
-1.12582e-05
3.84654e-05
1.46208e-05
6.04092e-05
-2.60279e-05
5.3027e-06
2.5134e-05
2.44826e-05
-1.90234e-07
1.04663e-05
3.65637e-05
1.38311e-05
9.62249e-06
-9.09163e-05
-3.60135e-05
-6.33207e-06
-4.59202e-05
-7.46985e-06
1.63877e-05
5.61472e-05
0.000100927
6.25047e-05
-3.73921e-05
-5.06385e-05
-7.16344e-05
-5.53269e-05
-2.46381e-05
2.46373e-05
0.000110617
2.44551e-05
-6.9558e-05
-4.98672e-05
-7.4417e-06
-2.58801e-05
5.70431e-05
4.34955e-05
5.29667e-05
1.0549e-05
1.65001e-05
5.77291e-05
-8.47483e-05
-5.73411e-05
8.73926e-06
-2.85435e-06
-0.000138879
-0.000107385
2.1414e-05
0.000174957
6.87811e-05
-1.66857e-06
-1.23628e-05
-8.0598e-05
7.12412e-06
0.00013534
7.53485e-05
2.77955e-05
3.72465e-05
2.69021e-05
4.60893e-05
8.40331e-05
3.48883e-05
1.45391e-05
4.0187e-05
-8.83324e-05
-0.000103151
-0.0001631
-0.00011111
-0.000162957
-3.81606e-05
8.69543e-05
0.000105987
0.00011173
8.5706e-05
0.000140068
6.67589e-05
-2.56731e-05
-1.00138e-06
-2.84968e-05
-9.25913e-06
-1.77834e-05
3.32516e-06
9.33327e-06
-3.43997e-05
2.77286e-05
-3.82991e-05
-6.58003e-05
-9.84734e-05
-6.53684e-05
-7.9134e-05
-8.1184e-05
-1.49317e-05
1.47082e-05
-6.30815e-05
2.88117e-05
-6.37567e-05
-1.6367e-05
7.34733e-05
3.14065e-05
7.45146e-05
0.000138491
4.67219e-05
-0.000108562
-6.75462e-05
-4.80465e-05
-2.90099e-05
1.26198e-05
2.32389e-05
0.00012184
-4.68392e-05
-7.53034e-05
2.23512e-05
-3.5844e-05
-1.31608e-05
-6.30869e-05
-4.30409e-05
0.000132486
0.000101445
-1.63187e-05
5.95515e-05
6.82708e-05
1.89009e-05
-0.000155831
-5.01756e-05
-2.10788e-05
-4.51852e-05
-5.42917e-05
-1.63308e-05
3.10417e-05
6.17809e-05
3.28048e-05
3.37633e-05
2.64794e-05
6.30847e-05
6.25824e-05
6.56372e-05
-6.34013e-07
3.9221e-05
1.32082e-05
-8.07661e-05
-7.17725e-05
-8.52996e-05
-3.73815e-05
0.000106263
8.19021e-05
5.98329e-05
6.94055e-05
3.7022e-05
-4.11319e-05
-9.74598e-05
-6.49447e-05
-8.55971e-05
-2.41097e-05
-7.22135e-07
-3.06289e-05
1.16786e-05
7.34581e-05
4.87603e-05
-2.74121e-06
-5.59401e-06
1.82014e-05
4.84295e-05
3.19409e-05
2.69727e-05
1.76607e-05
-6.78462e-05
-6.89337e-05
-7.68152e-05
5.11558e-05
3.20054e-05
-3.51973e-05
2.75271e-05
-7.3414e-05
-7.20703e-05
-5.41339e-05
3.85735e-05
-1.90628e-05
-6.85402e-05
3.58528e-05
6.20598e-05
3.56431e-05
-2.61532e-05
-7.16509e-06
-1.65571e-06
3.21596e-05
1.76798e-06
-1.00701e-05
-7.81318e-06
-1.46161e-05
-9.06239e-06
-2.28581e-05
-2.37596e-06
9.94e-06
5.20599e-05
-3.27925e-05
-5.03764e-05
-3.59245e-06
-9.32595e-06
-2.1333e-05
9.36164e-06
0.000166706
8.6007e-05
2.51713e-05
-1.28149e-05
-5.12391e-06
8.45035e-05
5.68134e-05
0.000166852
0.00024859
0.000398878
0.000694164
0.000916566
0.00149518
0.0023265
0.00357406
0.00548607
0.0085829
0.0135197
0.0210775
0.0329116
0.0512576
0.0799926
0.124758
0.194476
0.302936
0.473064
0.737761
1.14858
1.79128
2.80201
4.35787
6.77506
10.6205
16.5939
25.6397
40.0685
63.1115
97.6853
150.786
237.958
372.695
572.601
891.1
1407.32
2184.05
3378.66
5269.8
8334.21
12805.8
20682.5
30540.3
1.48277e-05
7.47741e-06
-2.33035e-06
-9.764e-06
1.78403e-05
-2.71708e-05
-9.0414e-06
4.15737e-06
-4.39825e-05
4.02913e-05
-4.16787e-05
-1.14419e-05
8.01854e-06
1.77934e-05
3.64731e-05
-1.04694e-06
6.31508e-05
1.71164e-05
2.99695e-05
7.87139e-06
-4.37891e-05
-2.01e-05
-2.36262e-05
-1.74607e-05
2.8236e-05
-2.44151e-05
4.28997e-06
6.63635e-05
4.08627e-05
-2.66854e-05
-0.000117863
-7.77961e-05
-3.76237e-05
3.30098e-05
-2.90593e-05
1.82967e-06
-5.75562e-05
-2.59302e-05
1.90856e-05
-9.5834e-05
-2.53783e-05
0.000113951
1.36021e-05
9.03022e-05
0.00013026
5.28998e-05
-5.33854e-05
-0.000122143
-2.33882e-06
-3.03669e-05
-3.75274e-05
4.12971e-05
3.52448e-05
3.1214e-05
-1.0286e-05
5.21421e-05
-3.13545e-05
-9.33295e-05
3.50728e-05
6.75011e-05
2.02938e-05
8.52215e-06
-1.3979e-06
-4.12159e-05
2.45333e-05
-1.11022e-05
-3.45257e-05
-5.72648e-05
-6.08608e-06
3.18453e-05
3.0712e-05
1.98277e-05
6.0327e-06
8.86113e-05
6.37146e-05
-1.60614e-05
5.46594e-05
-9.94181e-05
-0.000116732
-0.000139386
-0.000154097
-0.000123813
-2.77369e-05
8.4804e-05
4.56692e-05
5.44044e-05
6.90325e-05
7.43241e-05
0.000142605
0.0001776
8.47565e-05
-6.41372e-05
-0.000122007
-0.000122509
-0.000119558
-8.49951e-05
-7.29389e-05
-2.51122e-05
-5.48516e-05
4.04638e-06
5.29751e-05
-3.95065e-05
9.14216e-06
5.81077e-05
9.78342e-05
0.000188794
9.5809e-05
1.81072e-05
2.58768e-05
-3.08555e-05
-5.5163e-05
-5.76935e-05
-5.56733e-06
6.37661e-06
-6.41422e-05
-3.38198e-05
2.00368e-05
7.57329e-06
-3.66993e-05
-2.55373e-06
6.16389e-05
-1.6728e-05
-2.12348e-05
-9.23086e-05
-6.33888e-05
-2.87258e-05
-5.5946e-05
5.72439e-06
0.000134329
0.000107795
0.000126374
9.81946e-05
8.2517e-05
-1.29725e-05
-3.56601e-06
1.60776e-05
-9.62694e-06
-5.93975e-05
-6.485e-06
-2.27778e-05
-2.41912e-05
-3.99811e-05
-3.18047e-05
-5.59108e-05
-5.62497e-05
3.86455e-05
4.7219e-05
2.51783e-05
9.59762e-06
6.4506e-05
7.73018e-05
1.44195e-05
-6.04489e-05
2.98158e-05
6.11994e-05
-3.29809e-06
-3.50971e-07
-4.367e-05
-7.28466e-05
-4.36427e-05
-9.04757e-05
-5.73198e-05
-3.85435e-05
2.59654e-05
1.94844e-05
4.57145e-06
9.84727e-05
7.53271e-05
3.62208e-06
6.81428e-06
-6.02749e-05
-7.1838e-05
-7.24838e-05
1.59638e-05
6.91821e-06
-4.10371e-05
-1.41018e-05
1.73559e-05
-3.46472e-05
2.73181e-05
3.79735e-05
-4.78997e-05
-1.34758e-05
3.32539e-05
1.2047e-05
4.33575e-05
2.49183e-05
-6.25927e-06
-2.46903e-05
7.25765e-05
0.000153173
0.000171055
3.60305e-05
1.29223e-05
5.33418e-06
-5.13793e-05
1.61423e-05
-0.000162922
-0.000190393
-6.67875e-05
-7.95365e-06
-4.91476e-05
-4.24962e-06
8.7204e-05
0.000159544
0.000112713
5.23465e-05
3.10785e-05
5.13135e-05
1.98979e-05
-2.77908e-05
-1.53127e-05
-1.85094e-05
-3.6665e-05
-3.8637e-05
-1.04073e-05
-9.66058e-06
-2.38993e-05
3.53041e-05
-4.79917e-05
-2.25639e-05
-5.24448e-05
-3.06738e-05
-1.1143e-05
3.04401e-05
4.31527e-05
4.45538e-05
8.25019e-05
4.10479e-05
-1.4332e-06
6.35472e-05
-2.74628e-05
-9.08097e-07
-6.49676e-06
-4.59691e-05
1.04158e-05
-5.65621e-05
-7.65823e-05
-6.07361e-05
8.2314e-06
6.77457e-05
2.04274e-05
-2.83446e-05
-8.16025e-07
-4.1396e-05
4.41154e-05
0.00010041
4.62267e-05
8.33578e-05
-2.67698e-06
-6.24462e-05
-2.69167e-05
2.36834e-05
4.15182e-05
9.26466e-05
0.000156981
0.000148982
0.000238971
0.000285457
0.000474466
0.000763986
0.00115209
0.0017863
0.00292486
0.00455253
0.00705634
0.0109999
0.0171437
0.0267073
0.0413781
0.0644801
0.100373
0.156263
0.243001
0.378774
0.589892
0.916681
1.42686
2.2285
3.4607
5.36964
8.40298
13.1161
20.2306
31.5423
49.6409
76.7802
118.212
186.229
291.717
447.524
694.493
1096.01
1700.25
2623.9
4081.47
6444.7
9871.38
15885
23291.9
-2.84514e-06
2.73664e-05
-2.58653e-05
-8.31335e-05
7.55015e-05
-1.69221e-05
3.68257e-05
4.27974e-05
-4.82967e-05
1.39103e-05
-1.87544e-05
-7.48625e-05
6.95013e-06
5.65044e-05
-2.89766e-05
-2.73089e-05
1.57744e-05
4.0433e-05
-1.8627e-05
3.43675e-05
7.28023e-05
8.49864e-05
1.55654e-05
-0.00011144
6.6982e-06
4.64069e-05
-1.28017e-05
-9.22701e-05
-9.87516e-05
-4.22771e-05
2.20958e-06
0.000100208
7.3632e-05
-1.94213e-05
-5.89268e-05
-3.46148e-05
9.74004e-05
0.000146673
6.54916e-05
-2.93359e-06
-1.93524e-06
-6.95338e-05
-0.00011772
-5.60648e-05
1.29258e-05
2.98162e-05
2.94034e-06
-2.22285e-05
3.86506e-06