/*--------------------------------*- C++ -*----------------------------------*\
| =========                 |                                                 |
| \\      /  F ield         | OpenFOAM: The Open Source CFD Toolbox           |
|  \\    /   O peration     | Version:  2412                                  |
|   \\  /    A nd           | Website:  www.openfoam.com                      |
|    \\/     M anipulation  |                                                 |
\*---------------------------------------------------------------------------*/
FoamFile
{
    version     2.0;
    format      ascii;
    arch        "LSB;label=32;scalar=64";
    class       volScalarField;
    location    "0.003";
    object      ddt0(thermo:psi,p);
}
// * * * * * * * * * * * * * * * * * * * * * * * * * * * * * * * * * * * * * //

dimensions      [1 -3 -1 0 0 0 0];

internalField   nonuniform List<scalar> 
180000
(
-3.77028e-11
3.82329e-11
-5.19591e-12
-1.18174e-11
6.92884e-11
4.36722e-11
-8.42959e-11
-2.58317e-11
1.15112e-10
-1.32086e-10
8.2226e-11
7.64808e-11
-1.01848e-10
-3.95225e-11
-6.52592e-11
-7.22085e-11
-3.18245e-11
5.70711e-11
-3.01897e-11
-7.99643e-11
3.86301e-11
2.0812e-11
-2.72529e-11
4.24406e-11
1.01116e-10
-1.693e-10
1.88139e-10
2.52673e-10
-2.56149e-11
2.39578e-10
1.908e-11
5.20327e-11
-1.53859e-10
-8.59016e-11
-1.40108e-11
-1.49898e-10
-7.23577e-11
-1.01836e-10
-8.60808e-11
-1.96612e-10
-5.73333e-11
-1.21799e-11
1.05233e-10
1.08415e-10
1.31868e-11
-3.33128e-11
1.34002e-10
3.14329e-11
9.46133e-11
5.30175e-11
6.78244e-11
1.09515e-10
3.22678e-12
-1.13854e-10
-2.21955e-10
4.91229e-11
-3.3138e-11
-2.33883e-10
-1.00671e-10
1.15431e-12
9.58827e-12
-1.151e-11
4.00232e-11
1.8387e-10
-1.85166e-11
-1.11421e-10
9.0777e-11
-7.46784e-12
-5.82193e-11
-2.52623e-10
1.63475e-12
-1.04194e-10
-2.00684e-10
2.07058e-10
1.37459e-10
1.32894e-10
8.36802e-11
1.11612e-10
1.19326e-10
-5.20208e-11
-7.92372e-11
1.09718e-11
1.14763e-11
1.13847e-11
-1.83417e-10
-2.51084e-10
5.12232e-11
5.88447e-11
-6.46876e-11
-1.00393e-10
-6.23957e-11
-7.12462e-11
2.17931e-10
2.56645e-10
-4.94906e-12
-6.22697e-11
1.25882e-12
6.97931e-11
-2.55162e-11
7.69682e-11
-1.168e-10
9.27136e-11
3.26333e-11
1.21932e-10
1.32275e-11
-9.34034e-11
4.60642e-11
7.74716e-11
-1.08901e-10
-1.24332e-11
-1.3229e-10
-1.06257e-10
-1.68071e-10
-6.53226e-11
2.02471e-12
2.51107e-11
-5.28529e-11
1.1902e-10
1.11406e-12
-2.24277e-10
-5.19679e-11
-8.99359e-11
1.70265e-10
2.22083e-10
-1.54357e-11
1.83416e-10
7.95948e-11
2.06864e-10
9.51618e-11
1.40903e-10
-8.64418e-11
-1.65034e-10
-9.07174e-11
-2.69931e-11
-1.24375e-10
-1.07773e-10
1.80142e-12
1.18915e-10
1.44324e-10
5.9036e-11
1.39315e-10
3.35058e-11
-6.21501e-11
-1.11209e-10
-1.15925e-10
-1.61942e-10
1.19529e-11
3.22018e-11
-4.27533e-11
-1.81338e-10
5.85827e-11
2.2161e-10
-9.96246e-11
-2.69781e-11
1.62274e-10
1.1171e-11
1.05638e-10
1.44325e-10
-1.40939e-10
-2.17607e-10
-5.02613e-11
1.26863e-10
7.6404e-11
7.54337e-11
1.13101e-10
-4.18141e-12
2.82568e-10
-2.80067e-11
3.06126e-11
-1.68129e-10
7.41765e-11
2.00868e-10
1.93063e-10
-1.21906e-10
-9.17345e-11
1.77716e-10
-6.91464e-11
-1.87288e-10
-7.7772e-11
-3.97745e-11
-5.0399e-12
-9.4501e-12
-1.68765e-10
4.67189e-11
-1.25239e-10
-2.37112e-10
1.47988e-10
1.94007e-10
1.33888e-10
2.08973e-10
9.70139e-11
1.91113e-10
3.1126e-11
-2.38019e-10
6.66502e-12
-3.94355e-12
-1.55141e-10
-9.84982e-11
-1.26026e-10
-1.78033e-10
-1.57844e-10
-2.23964e-10
-1.74458e-10
-6.26597e-11
-7.03632e-11
2.7987e-10
1.14864e-10
-1.12625e-10
-1.06636e-10
4.62214e-11
1.24312e-10
6.69035e-11
1.00639e-12
2.61731e-10
-6.21402e-11
5.72747e-11
6.93032e-11
-2.09125e-10
1.85112e-10
-5.3025e-11
-8.16893e-11
1.64394e-11
1.03688e-10
7.74332e-11
-7.43176e-12
1.50543e-10
-7.3275e-11
2.00045e-10
-1.43674e-11
5.35039e-11
1.35841e-10
2.18991e-10
1.55328e-10
2.42703e-10
1.82558e-10
-4.28912e-11
1.22213e-11
7.24883e-11
-2.41238e-11
7.33571e-11
5.54585e-11
1.71211e-10
-8.58432e-11
1.11223e-10
1.40279e-10
1.48938e-10
4.33469e-10
-4.8847e-12
1.62744e-10
2.61405e-10
2.47912e-10
3.64697e-10
5.91608e-10
8.55251e-10
1.48607e-09
2.27016e-09
3.72588e-09
6.04367e-09
9.32279e-09
1.46819e-08
2.30497e-08
3.62466e-08
5.71025e-08
8.98487e-08
1.41696e-07
2.22803e-07
3.51255e-07
5.53326e-07
8.7188e-07
1.37499e-06
2.16811e-06
3.42083e-06
5.39847e-06
8.52298e-06
1.3457e-05
2.12631e-05
3.35952e-05
5.31058e-05
8.39783e-05
0.000132868
0.000210129
0.000332652
0.000526819
0.000834
0.00132039
0.00209383
0.00331725
0.0052533
0.00832931
0.0132115
0.020913
0.0331186
0.0524164
0.0827749
0.13008
0.203777
0.314883
0.482469
0.709314
1.0428
-6.87689e-11
3.97624e-11
6.35453e-11
2.79721e-11
-1.36412e-10
-4.67903e-11
8.20333e-11
7.97333e-11
-1.53419e-10
1.03877e-10
-1.86521e-11
6.07689e-11
5.90141e-11
-4.29141e-11
-1.12988e-10
-8.60087e-11
-5.38504e-11
2.97928e-10
-4.70323e-12
-3.54366e-13
-8.08621e-11
1.15464e-10
5.00253e-11
1.52728e-10
5.94229e-11
3.62672e-11
-2.7005e-11
-4.01146e-11
-5.4366e-12
-2.17472e-10
1.00333e-10
-1.19093e-11
-1.26203e-11
4.83917e-11
-6.48727e-11
-1.18619e-10
3.71811e-11
-9.89567e-11
-1.76051e-10
-1.31081e-10
1.01524e-10
-2.7524e-11
6.58165e-11
3.14434e-11
9.49098e-11
5.10002e-11
1.13316e-10
-3.00608e-10
-4.3073e-12
1.2233e-10
8.24622e-11
2.39265e-10
-2.27113e-11
8.93167e-11
-6.54406e-11
1.5777e-10
1.04837e-10
-1.68966e-10
1.6288e-11
-1.3355e-10
-1.54792e-10
-3.06063e-10
-2.08503e-11
2.05013e-10
7.60208e-11
1.75055e-10
-4.94218e-11
-5.4824e-11
-2.82757e-11
1.24759e-10
1.50585e-10
-3.38938e-11
4.29069e-11
-1.7481e-10
1.7663e-11
2.02434e-10
-6.43007e-11
4.82783e-11
-6.9675e-11
1.11533e-10
1.44134e-10
-2.31967e-10
-1.0243e-10
-2.38375e-11
-2.51235e-11
1.13424e-11
-3.76587e-12
-1.07654e-10
-7.4168e-11
-1.42793e-10
-1.8869e-12
-3.44072e-11
1.23064e-10
1.40867e-11
-7.68784e-11
9.22229e-11
-5.39293e-11
-3.68288e-11
-2.13128e-10
-1.67513e-11
2.06528e-11
-1.4628e-10
-1.22025e-10
-5.70628e-11
3.17496e-11
3.25596e-11
7.50934e-11
2.4098e-10
1.76162e-10
1.54997e-10
-9.21908e-11
1.16191e-10
-1.21242e-10
-1.89826e-10
7.38815e-11
-9.58191e-11
-1.32935e-10
-2.19582e-10
-6.77115e-11
-2.90452e-11
8.71386e-11
1.20962e-10
-7.74318e-11
2.7812e-10
-5.73517e-11
-9.05928e-11
-7.08794e-11
1.66004e-10
1.16527e-11
7.64863e-11
9.11683e-12
7.61257e-13
4.66934e-11
1.31777e-10
1.79126e-10
-8.20906e-11
5.56242e-11
1.18478e-10
3.01048e-11
2.38124e-10
-1.18189e-10
-3.14543e-10
1.31622e-10
9.08647e-11
1.12269e-11
5.98395e-11
1.97484e-11
-6.15163e-11
-2.05607e-10
-1.4067e-10
2.30738e-11
-9.62745e-11
-8.00368e-11
-1.84159e-10
1.15112e-10
-1.26273e-10
-9.98325e-12
2.47018e-10
1.54829e-10
2.96399e-10
2.99513e-10
-6.30649e-11
1.37266e-10
-3.15073e-11
3.40265e-11
4.04881e-11
2.44755e-10
1.40584e-10
1.16149e-10
1.05345e-10
1.15822e-10
-1.60031e-10
-3.03008e-12
-9.04102e-11
4.4115e-11
1.12675e-10
1.39437e-10
-2.17032e-10
1.43466e-10
2.40646e-10
7.48434e-11
-4.55936e-12
1.37775e-10
5.67909e-11
2.49805e-10
9.98348e-11
1.17037e-10
-1.42643e-11
-3.82622e-11
-1.41181e-10
-1.51305e-10
-3.64174e-11
-2.00237e-10
-2.73673e-11
-2.77584e-11
-3.55384e-12
9.17316e-11
-7.88814e-11
6.51141e-11
-2.77458e-11
4.86546e-11
2.23755e-11
2.40187e-11
-1.3118e-10
6.98333e-11
-6.77757e-11
-2.52575e-10
-1.11219e-10
-1.68447e-10
-4.97302e-11
-7.17827e-11
-2.18745e-11
-1.93939e-11
4.873e-11
-5.95583e-11
-2.22763e-10
-1.20202e-10
9.07618e-11
-1.53149e-10
4.27479e-11
-7.28273e-11
-7.8232e-11
-2.32952e-10
-1.84074e-10
-2.33436e-10
-2.36858e-10
-5.02744e-11
-1.28736e-10
1.96583e-10
3.14988e-10
1.41397e-10
3.90253e-10
-3.38341e-11
-1.21307e-10
4.78857e-11
3.36939e-10
1.59424e-10
7.39172e-11
2.10528e-10
6.71792e-11
2.09236e-10
1.43216e-10
3.25003e-11
-8.10109e-11
-4.82175e-11
4.35627e-11
-1.02103e-10
-2.15343e-11
9.9615e-12
2.15492e-10
3.43908e-10
4.18396e-10
7.13117e-10
1.04143e-09
1.4758e-09
2.24358e-09
3.55256e-09
5.72027e-09
8.99162e-09
1.40586e-08
2.22278e-08
3.4953e-08
5.49218e-08
8.64074e-08
1.35812e-07
2.14136e-07
3.37122e-07
5.30761e-07
8.35526e-07
1.31611e-06
2.07339e-06
3.26802e-06
5.15126e-06
8.12387e-06
1.28108e-05
2.02153e-05
3.18999e-05
5.03515e-05
7.94894e-05
0.000125594
0.00019831
0.000313222
0.000495153
0.000782742
0.0012358
0.00195408
0.00309108
0.00488218
0.0077097
0.0121972
0.0192626
0.0303759
0.047899
0.0754635
0.118319
0.184942
0.286462
0.440684
0.658267
0.982371
1.14758e-11
-8.21106e-11
3.60539e-11
6.72315e-11
-8.92346e-11
-3.1514e-11
-4.14487e-11
-9.72263e-12
-9.06584e-11
-1.01493e-10
-1.38007e-10
3.39551e-11
1.62288e-10
-1.30123e-10
9.06351e-11
-1.39955e-11
-5.52715e-11
1.27629e-10
1.39073e-10
1.06373e-10
-3.80175e-11
8.77869e-12
2.33343e-10
5.05546e-11
-5.0652e-12
-4.61037e-11
-2.51095e-10
-5.45543e-11
-2.62603e-11
-4.77093e-11
5.35953e-11
1.23262e-10
1.11638e-11
-1.58557e-11
-3.71871e-12
5.85401e-11
5.88081e-11
-2.35918e-11
2.52886e-11
-1.1612e-10
-2.43825e-11
-1.92225e-11
-1.96423e-10
1.09966e-10
2.60897e-10
1.79064e-10
-1.2207e-10
7.96026e-11
5.65057e-11
3.37947e-11
1.20986e-10
4.69248e-11
-1.32558e-10
-3.76954e-11
1.99534e-11
3.68287e-11
7.34932e-11
2.29827e-10
-1.49939e-10
-1.99051e-10
8.76338e-11
-3.05262e-10
-2.10006e-10
-7.77071e-11
4.8747e-11
7.86225e-11
-7.90674e-11
8.53775e-11
-1.07944e-10
-1.77664e-10
-2.01734e-10
5.33525e-11
1.16491e-10
1.81028e-10
-1.58204e-10
7.23087e-11
5.58914e-11
-4.94769e-11
-1.26501e-10
-3.40577e-11
-5.64485e-11
-1.13353e-11
8.76246e-11
-8.43072e-12
-1.05287e-10
-8.11447e-11
1.74016e-10
2.19432e-10
-1.36106e-10
1.2975e-10
1.69474e-10
-9.1544e-11
5.5994e-11
-2.17705e-11
-3.42426e-11
2.2257e-11
5.3296e-12
1.30431e-10
3.9237e-11
-9.94265e-11
3.74711e-11
-9.30429e-11
-5.57788e-11
-1.18226e-11
-7.18391e-11
-6.12328e-11
1.52102e-10
1.30805e-10
-1.167e-12
-1.09075e-10
1.2375e-10
-9.7078e-13
-3.89876e-11
3.15841e-11
1.92159e-11
-6.60505e-11
-1.58212e-10
-1.38177e-10
-4.91985e-11
-3.37014e-10
-4.50403e-11
-3.31144e-11
-1.1906e-10
6.64641e-11
8.46664e-11
-2.08033e-10
3.61361e-11
-1.7845e-11
2.9985e-12
-6.55438e-11
1.10031e-10
7.80722e-11
-2.41196e-11
3.73821e-11
1.26867e-10
-1.13016e-10
-1.87707e-10
-5.79475e-11
1.6104e-10
4.91307e-11
8.83881e-11
1.74029e-10
-7.96662e-12
8.63845e-12
-5.60948e-11
-1.80989e-11
-1.68331e-10
-3.8455e-11
2.70325e-11
-2.09322e-10
-1.54333e-10
-2.64324e-11
-7.45632e-11
-2.40362e-10
6.73805e-11
6.5546e-11
9.00351e-11
1.10565e-10
3.39858e-10
2.52342e-10
2.40911e-10
-4.23284e-11
9.22875e-11
1.5221e-10
7.11234e-11
2.69138e-11
-3.7052e-11
1.49166e-10
1.51577e-10
-9.04622e-11
-1.67732e-10
-3.92629e-11
-9.43901e-11
-9.3759e-11
4.08564e-11
1.33242e-10
-6.39328e-11
-1.40101e-11
-1.51117e-11
1.6387e-10
-7.7902e-13
9.13069e-11
1.9929e-10
-5.07517e-11
2.24591e-10
1.29734e-10
3.0249e-10
7.67212e-11
-6.5804e-11
-7.17859e-11
2.68988e-11
4.83779e-11
-2.09453e-10
-1.81552e-10
-2.29375e-10
-1.71637e-10
2.181e-10
-6.83468e-11
2.06955e-10
1.4955e-10
7.57827e-11
-7.17048e-11
4.60909e-11
-1.56403e-10
-1.66865e-10
1.8131e-10
-6.96613e-11
-1.33243e-10
8.48683e-11
-2.40869e-11
-2.05523e-11
1.19869e-10
1.59761e-10
-7.07764e-11
5.0686e-12
1.22003e-10
1.15504e-10
-1.54366e-11
-5.32785e-11
9.32573e-13
-4.49728e-11
-1.88187e-10
1.31633e-10
1.07789e-10
2.6182e-10
8.47317e-11
-1.50311e-10
-1.74115e-10
-6.3235e-11
2.98308e-11
-1.63278e-10
-8.70481e-11
1.26564e-10
-5.72103e-11
1.09781e-10
-7.23156e-11
-1.14209e-10
1.18546e-10
7.89708e-11
-4.82166e-11
-3.07796e-11
-8.65007e-11
-3.90844e-11
6.81479e-11
-3.35643e-11
3.52305e-11
-1.24539e-10
1.96168e-10
1.91876e-10
-2.69377e-11
1.80776e-10
4.57495e-10
5.84531e-10
9.14385e-10
1.26311e-09
2.11243e-09
3.55863e-09
5.30075e-09
8.46784e-09
1.34742e-08
2.09185e-08
3.27605e-08
5.12163e-08
8.02589e-08
1.25917e-07
1.98032e-07
3.11303e-07
4.89222e-07
7.69482e-07
1.21025e-06
1.90384e-06
2.9957e-06
4.71359e-06
7.4203e-06
1.16787e-05
1.83914e-05
2.89662e-05
4.56202e-05
7.18414e-05
0.000113267
0.000178452
0.000281013
0.000443027
0.000698885
0.00109992
0.00173275
0.00273436
0.00430691
0.00677155
0.0106754
0.0168174
0.0264177
0.0414847
0.0651973
0.102005
0.159188
0.246647
0.381413
0.574325
0.874512
5.58285e-12
1.60836e-12
-1.20985e-11
1.21045e-10
5.90376e-11
-6.2386e-11
1.10058e-10
1.35094e-10
-5.64144e-11
2.27002e-11
-3.37631e-13
-4.24017e-11
-1.61062e-11
-3.28412e-11
-1.4011e-10
7.17942e-11
3.82786e-11
1.80038e-11
8.50808e-11
-7.51048e-11
5.22898e-11
-8.66638e-11
2.00193e-11
-7.23525e-11
7.60581e-12
5.51304e-11
5.70279e-11
1.43766e-10
1.70574e-10
2.82223e-11
-6.69392e-11
1.57483e-10
2.46234e-10
-2.19041e-10
-1.3836e-10
4.98764e-11
1.27556e-10
1.61769e-10
-1.75076e-10
-1.27898e-10
1.22636e-10
1.5486e-10
-6.1451e-11
-4.73827e-11
-2.76838e-11
-7.03401e-11
7.14233e-11
-4.28791e-12
1.30225e-10
1.68884e-10
-2.62148e-11
-1.25983e-11
-2.31766e-10
-2.23564e-10
-3.25849e-10
-3.12311e-10
1.66015e-10
1.18415e-10
1.43417e-10
1.66326e-10
-6.05207e-12
-1.15962e-11
-5.02727e-11
2.08652e-10
-1.65163e-10
-1.30604e-10
-2.45676e-10
-1.86271e-10
9.41792e-11
-1.08932e-11
-6.85905e-11
2.88149e-11
3.91437e-13
-8.96901e-11
-7.22531e-11
-1.37175e-10
-7.99759e-11
-1.2431e-11
-1.75444e-10
5.75628e-11
-3.37127e-11
1.51547e-11
-1.24839e-10
3.55663e-11
9.88342e-11
1.24583e-10
4.18326e-11
-1.46866e-10
-1.35373e-10
1.09399e-10
-1.68819e-10
1.2925e-10
8.70381e-11
2.48448e-10
9.40166e-11
1.48536e-10
2.30306e-10
7.88559e-11
-4.50589e-11
-8.0051e-11
1.46373e-10
-5.4007e-11
9.40476e-12
-1.90686e-10
-7.66266e-11
-9.77396e-11
-2.21591e-10
9.95605e-11
1.19939e-10
1.3666e-11
-2.28296e-10
1.84716e-11
1.51494e-11
4.67729e-11
2.19012e-10
9.34201e-11
1.02046e-10
1.08475e-10
1.08623e-10
5.27737e-11
1.30365e-10
6.10891e-11
-1.13133e-10
-4.56413e-11
-3.02288e-10
-1.79457e-10
-2.53817e-10
-9.5639e-11
-2.44444e-10
2.23278e-12
3.0988e-12
-6.87923e-11
-3.52468e-10
1.39479e-10
2.91027e-10
-2.27385e-11
1.72851e-10
2.88787e-10
3.25152e-10
1.27434e-10
-9.14783e-11
-5.03313e-11
-6.56586e-11
3.99425e-11
2.09405e-10
-1.2271e-10
-1.19258e-10
-1.42657e-10
-1.26248e-10
8.93676e-11
-1.01136e-10
1.36259e-10
1.24387e-10
-2.01592e-10
-1.50423e-10
1.63809e-10
5.59057e-12
8.92275e-12
-1.60864e-10
-1.32387e-10
1.99235e-10
1.89211e-10
8.69244e-12
1.65471e-10
1.07375e-10
2.90493e-10
1.31339e-10
-1.57808e-10
-1.85308e-11
-8.93946e-11
-6.99463e-11
-1.96111e-10
-1.34805e-11
3.71815e-11
-5.0148e-11
-5.32251e-11
7.0373e-11
2.23025e-10
6.53117e-11
1.78154e-10
7.80931e-11
2.11462e-10
1.78887e-10
-1.38681e-10
1.70582e-10
-3.98325e-11
-2.31686e-10
6.07585e-11
2.25769e-11
4.03139e-11
-6.06811e-11
1.09414e-10
1.15541e-10
1.98505e-11
1.34943e-11
-1.04992e-10
8.01154e-11
2.30345e-10
3.89376e-11
-5.32743e-11
-9.53877e-12
1.03471e-10
1.13122e-10
1.03191e-10
4.41241e-11
-1.58181e-10
6.56623e-11
-1.75922e-10
2.51716e-10
7.37549e-11
1.90047e-10
8.01434e-11
1.4869e-10
-1.01857e-10
-6.05231e-11
-6.34785e-11
-5.32473e-11
-1.09108e-10
-1.68135e-10
8.89275e-11
1.37553e-11
6.74256e-11
-1.2892e-10
-6.91397e-11
-1.18992e-10
-6.91187e-11
7.38516e-12
-8.27046e-12
1.44793e-11
-1.29639e-10
-1.08462e-10
-1.98172e-10
-6.27704e-11
1.77812e-10
3.92915e-12
-3.46319e-11
3.30903e-10
9.76226e-11
1.39393e-10
3.41944e-10
1.65008e-10
8.79373e-11
3.60675e-11
3.32394e-11
8.41155e-11
-5.86096e-11
1.36825e-10
1.15693e-10
-4.29512e-11
2.31763e-10
2.42959e-10
4.91655e-10
6.82319e-10
8.89793e-10
1.25494e-09
2.09275e-09
3.02143e-09
4.95801e-09
7.55048e-09
1.18467e-08
1.85897e-08
2.91341e-08
4.59414e-08
7.21341e-08
1.1324e-07
1.77432e-07
2.78088e-07
4.36494e-07
6.84918e-07
1.07529e-06
1.68783e-06
2.65031e-06
4.1614e-06
6.53713e-06
1.0265e-05
1.61265e-05
2.53408e-05
3.98157e-05
6.25295e-05
9.83297e-05
0.000154549
0.000242651
0.000381339
0.000600106
0.000941791
0.00147796
0.00232528
0.00365362
0.00572209
0.00898495
0.0141184
0.0221096
0.0345786
0.0541915
0.0846338
0.131875
0.204246
0.316918
0.480148
0.741158
1.78198e-11
7.81294e-12
3.38225e-11
5.48131e-11
-1.51714e-10
-4.80843e-11
5.0499e-12
2.31555e-10
-1.127e-10
-4.27353e-11
1.16259e-10
-5.51588e-11
-1.5243e-10
-4.31406e-12
-3.26633e-11
2.87093e-11
-1.2162e-10
-1.09125e-10
1.81827e-10
-3.84755e-11
-5.01085e-11
-9.3603e-11
3.58827e-11
2.43713e-10
1.937e-10
-9.38976e-11
6.88596e-11
-7.2693e-12
2.91259e-11
-1.50819e-10
3.50842e-11
-6.23469e-11
-1.57149e-10
2.92767e-11
5.09041e-11
9.9946e-11
1.32621e-10
-1.26881e-10
4.86604e-11
-7.19255e-12
-1.03324e-10
9.20928e-11
3.6107e-11
1.62716e-10
2.12064e-11
-1.14741e-10
1.11943e-10
7.46052e-11
-1.70248e-10
7.28207e-11
1.41361e-10
-8.26575e-11
-1.46566e-10
-1.5246e-11
2.02468e-10
-1.08255e-10
1.29494e-10
-3.21131e-11
-2.9229e-10
-2.55769e-10
1.11195e-11
-9.80955e-11
2.27771e-11
-1.34444e-10
6.03946e-11
-6.52122e-11
-1.2873e-10
8.45392e-11
1.87199e-11
-1.41851e-11
1.54254e-10
-2.89147e-11
9.02504e-11
2.43027e-10
7.61935e-12
-1.74181e-10
-7.42339e-11
2.88432e-10
1.68797e-10
2.9852e-10
3.59937e-11
9.60041e-11
-1.80607e-10
2.72569e-10
7.24393e-11
-1.6477e-10
1.93589e-10
1.76031e-10
5.54954e-11
-1.71195e-11
-6.74331e-12
9.17875e-11
3.30261e-10
-1.02647e-10
-9.68329e-11
-1.46046e-10
-4.75674e-11
1.83446e-10
-3.34449e-11
-3.02944e-10
2.02443e-11
-1.76446e-10
1.07181e-10
6.11414e-11
6.29396e-11
-1.39983e-10
1.53265e-10
-1.1374e-10
7.81615e-11
4.63357e-11
-2.7463e-11
1.63771e-11
-2.34465e-11
-1.79204e-10
2.33122e-10
-9.03858e-11
2.16983e-11
-3.98622e-12
5.62674e-11
-6.22836e-11
-9.07576e-12
2.12801e-10
1.17093e-10
3.03465e-10
1.45374e-10
-2.57671e-10
-4.271e-11
-2.48689e-11
-8.90401e-11
-2.3257e-10
-5.90218e-11
-1.01067e-10
-3.16247e-10
-4.78185e-11
2.54326e-11
-9.90657e-11
-4.99816e-12
-5.47262e-11
-1.93909e-11
-6.89587e-11
1.51917e-10
5.28056e-11
-2.58068e-11
-6.2045e-13
-9.84328e-11
-2.26684e-10
9.69828e-11
1.9716e-10
3.39136e-11
-3.91346e-12
6.66776e-11
-3.67051e-11
-4.00643e-11
-2.49211e-11
-2.71229e-11
9.82045e-11
1.01683e-10
1.03244e-11
-1.31069e-10
-1.47632e-10
-1.207e-10
-3.68544e-10
-1.20368e-10
1.97152e-11
1.69761e-11
2.44478e-10
3.5513e-10
-9.22145e-11
2.14793e-10
3.18059e-10
8.00251e-12
1.556e-10
1.42023e-10
-1.58175e-11
2.40514e-11
6.99373e-11
-6.41578e-11
3.94595e-11
1.89296e-10
3.56462e-11
4.73919e-11
-6.91269e-11
-2.56452e-10
-8.58455e-11
-7.4631e-11
-4.62784e-12
-2.33486e-11
-7.67445e-11
3.07645e-11
-4.931e-11
3.1936e-11
-7.99029e-11
-5.49784e-11
2.08977e-12
-7.52229e-11
-5.91444e-11
-1.74335e-10
-3.3673e-11
5.90041e-11
-1.04043e-10
1.07884e-10
1.47213e-10
1.31114e-10
2.25745e-11
9.88404e-11
1.01399e-10
2.65701e-11
1.02272e-11
-6.50432e-11
-4.02566e-11
3.11981e-11
1.56494e-10
1.10487e-11
1.12659e-10
-1.23964e-11
-2.68453e-10
9.55327e-11
7.22825e-11
-5.85723e-11
8.11124e-11
1.24792e-10
-3.40034e-11
-2.59386e-10
-9.85493e-12
-5.06787e-11
-1.16122e-10
1.16573e-10
1.34352e-10
3.51624e-11
2.26979e-10
5.865e-11
1.25658e-10
-4.28174e-11
4.17392e-11
-1.00491e-10
-1.367e-10
-1.50287e-10
-1.87134e-10
8.83982e-12
1.55501e-10
3.48904e-10
1.03693e-10
2.15464e-10
-1.06832e-10
-4.39961e-11
-4.02145e-11
-1.22319e-10
2.22955e-10
2.41161e-10
1.89847e-10
3.43877e-10
5.16376e-10
4.31038e-10
7.02206e-10
8.12156e-10
1.57226e-09
2.63645e-09
4.07342e-09
6.65805e-09
1.04181e-08
1.65226e-08
2.57999e-08
4.01545e-08
6.30191e-08
9.84689e-08
1.53851e-07
2.41413e-07
3.78072e-07
5.92024e-07
9.27678e-07
1.45306e-06
2.27655e-06
3.56694e-06
5.5906e-06
8.75857e-06
1.37271e-05
2.15195e-05
3.3732e-05
5.28383e-05
8.28746e-05
0.000129957
0.000203501
0.000318859
0.000500572
0.000783708
0.00122583
0.00192297
0.00301513
0.00470791
0.0073662
0.0115477
0.0180432
0.0281278
0.0439685
0.0685708
0.106726
0.165199
0.256875
0.390869
0.609031
3.34266e-11
7.88659e-11
-1.28441e-10
3.53795e-11
9.01797e-11
6.29627e-11
2.20022e-11
-4.07192e-11
-8.52119e-11
-4.94762e-11
8.03626e-11
1.33091e-10
-1.61184e-11
1.91608e-10
-1.08264e-10
-3.66133e-11
7.25339e-11
2.52955e-10
6.12024e-11
6.02555e-11
-1.25345e-10
-1.22698e-10
1.35421e-10
7.72388e-11
-1.29069e-10
1.94939e-10
-1.59638e-11
-1.15409e-11
-5.86233e-11
2.65262e-10
-8.93486e-12
-1.90549e-10
-4.66523e-11
-1.3976e-10
-3.30767e-12
-6.46249e-11
-6.69772e-11
-9.7112e-11
-5.58381e-11
-7.15325e-12
1.37116e-10
2.35525e-10
2.47045e-10
5.06078e-11
9.53929e-11
1.0135e-11
-2.00162e-10
-1.37039e-10
-2.21283e-10
-4.71602e-11
1.90806e-11
4.73176e-11
3.10793e-10
7.34691e-12
4.88576e-11
3.10984e-10
7.27596e-11
1.27007e-10
-2.64849e-10
-5.91303e-11
-1.17377e-10
-3.93221e-11
-5.43067e-11
-6.28946e-11
-2.01119e-10
-1.98324e-10
7.41752e-11
1.56076e-10
2.89461e-10
2.00255e-10
9.91377e-11
8.06295e-11
-7.78629e-11
-1.53561e-10
4.30132e-11
-4.86784e-11
-1.01578e-10
9.43773e-11
8.05492e-11
-7.76701e-11
-6.33339e-12
1.27991e-10
1.26704e-10
-7.97183e-11
2.07199e-10
1.35246e-10
-1.01824e-10
1.48296e-10
2.88773e-10
-1.87001e-11
-1.30465e-10
6.78065e-11
-7.53658e-11
3.50217e-11
1.69669e-10
1.48336e-10
4.55416e-11
5.54526e-11
1.53541e-12
-1.40183e-10
3.45261e-11
-2.1385e-10
-4.57659e-11
2.53878e-11
-1.53847e-10
-2.53041e-10
-4.97789e-11
1.4448e-10
8.28176e-11
2.19043e-10
2.62579e-10
1.65514e-10
4.54736e-11
1.3281e-10
2.13789e-10
-5.79317e-11
-1.81699e-10
-1.13421e-10
-5.23113e-11
4.3313e-11
-1.89479e-10
-1.30971e-10
-2.34676e-11
1.55518e-11
-1.59819e-11
7.30651e-12
-6.68367e-11
1.39057e-10
6.45109e-11
5.11263e-11
1.183e-10
1.12396e-10
3.01793e-11
1.19612e-10
4.86228e-11
-1.05386e-10
1.16473e-10
-1.17284e-10
-1.96842e-10
2.57468e-11
-1.22519e-10
-1.99013e-10
7.00823e-11
2.75651e-11
-1.63787e-10
1.56058e-10
1.58895e-11
-1.94451e-10
5.34702e-11
3.42559e-11
-4.37803e-11
1.98394e-10
3.14658e-11
9.14101e-12
7.98199e-13
5.33976e-11
7.88214e-11
-2.36072e-10
-1.99085e-10
7.83618e-11
4.06332e-11
2.23049e-10
1.00978e-10
-6.87099e-11
9.41327e-11
2.06518e-10
1.66345e-10
-3.44866e-11
3.03775e-10
3.20931e-10
9.80378e-11
1.91794e-10
-9.4168e-11
5.0305e-11
3.74946e-11
-2.05812e-11
-4.54113e-11
-5.87434e-11
-1.53988e-10
-1.40978e-10
1.9996e-11
-8.7407e-11
3.22992e-11
-9.12978e-11
-1.13277e-10
-1.23795e-11
4.40597e-11
4.786e-11
-3.33539e-11
-2.06397e-10
-1.80343e-10
-1.8255e-10
-5.1744e-11
-1.44806e-10
-1.52867e-10
1.37654e-10
-1.94012e-10
-1.72737e-10
-1.01432e-10
-5.72529e-11
-3.85482e-12
2.01698e-10
2.60634e-10
1.085e-10
-2.67556e-11
-2.93617e-11
-1.51255e-11
-7.90132e-11
-9.99357e-11
1.93559e-10
3.33852e-10
2.08236e-10
4.00273e-12
1.20396e-10
7.87613e-12
-1.52772e-10
-2.03093e-10
1.24835e-11
3.30663e-11
-1.47217e-10
1.63408e-11
1.52752e-11
8.50486e-13
1.52111e-10
2.21642e-11
-9.42881e-11
-2.39734e-10
1.04152e-10
7.10826e-11
-1.87079e-10
-6.87006e-11
1.2523e-11
1.16524e-10
8.94141e-11
2.53457e-10
7.94932e-11
-1.3889e-11
-8.15678e-12
1.07744e-10
-1.52779e-10
-8.8566e-11
3.21008e-11
9.70227e-11
-8.07115e-11
5.42425e-11
-3.10022e-11
-4.49686e-11
1.11343e-10
3.74732e-11
3.71627e-10
1.1897e-10
2.57331e-10
6.03411e-10
4.64295e-10
1.04481e-09
1.41837e-09
2.25547e-09
3.68347e-09
5.59922e-09
8.80745e-09
1.3957e-08
2.1796e-08
3.42866e-08
5.34133e-08
8.36945e-08
1.30851e-07
2.04401e-07
3.1964e-07
4.99355e-07
7.8083e-07
1.22077e-06
1.90866e-06
2.9837e-06
4.66697e-06
7.29578e-06
1.14089e-05
1.78463e-05
2.79133e-05
4.36217e-05
6.82578e-05
0.000106809
0.000166873
0.000260798
0.000408525
0.000638317
0.000995793
0.00155816
0.00243875
0.00379933
0.00592772
0.009274
0.0144667
0.0224982
0.0350942
0.0546681
0.0850178
0.131524
0.204762
0.312468
0.489889
-6.00849e-12
-2.83422e-11
-1.40215e-10
8.55072e-11
8.23234e-11
-3.40515e-11
6.76196e-11
-5.8029e-11
-3.65736e-11
-1.57835e-11
-4.5133e-11
-1.36767e-10
1.00092e-10
7.70062e-11
1.1886e-10
-1.54875e-11
6.25285e-12
-6.80077e-11
7.10876e-11
1.32964e-10
-3.6839e-11
9.83464e-11
5.03868e-12
-6.7775e-11
-7.47113e-11
1.5842e-10
-7.75238e-11
-8.29352e-11
1.28113e-10
-8.37821e-11
-2.02958e-10
-3.09433e-10
-3.50481e-11
-1.59961e-11
2.21746e-11
-7.96662e-11
-2.67841e-11
3.43166e-11
-2.38737e-10
-1.32253e-10
7.84036e-11
-2.83008e-11
3.62503e-11
1.89832e-10
3.2416e-11
1.80079e-10
2.23775e-10
8.28058e-11
6.50313e-11
1.15076e-10
1.85442e-11
-8.91793e-11
2.00376e-12
-7.43568e-11
1.35393e-10
-5.16011e-11
-1.49256e-13
-4.00947e-11
3.86916e-11
2.16041e-11
3.52273e-11
2.19595e-11
6.16264e-11
2.17389e-10
1.18919e-12
9.45708e-11
9.71378e-11
-2.46204e-11
1.62684e-12
-8.79914e-11
-1.28489e-10
-6.55757e-11
1.21637e-10
2.91678e-11
7.6189e-11
4.79315e-11
2.79846e-11
-3.3405e-11
-1.22871e-10
2.0953e-11
2.16986e-10
3.48734e-11
-6.0568e-11
4.88314e-12
-1.01637e-10
-1.08511e-10
-1.23238e-10
-5.5605e-11
-3.27842e-11
-1.25392e-10
1.46146e-10
8.71335e-11
-1.10611e-10
-1.43075e-10
3.55756e-11
1.13198e-11
-2.60899e-10
-4.42512e-10
-1.53895e-10
-5.34358e-11
-2.78849e-11
1.79329e-10
-1.22854e-11
-3.01751e-10
-5.19727e-11
1.83962e-11
-1.46836e-11
1.47338e-11
-4.3773e-11
-7.35957e-11
-6.90831e-11
7.39911e-11
-1.31079e-10
1.87043e-10
2.02576e-10
1.33124e-10
-2.27437e-11
1.00168e-10
-8.27033e-11
-2.4524e-10
-1.91913e-10
-1.64119e-10
-2.75022e-11
-2.5354e-10
4.16488e-11
2.22091e-10
1.36725e-10
1.91463e-10
1.83245e-10
1.73949e-10
1.27855e-10
1.05966e-10
2.24982e-10
7.58625e-11
1.59839e-10
8.95684e-11
2.07755e-10
6.91694e-11
1.18775e-10
1.50908e-10
5.19938e-11
-5.73625e-11
1.79418e-10
-5.77089e-11
1.99006e-10
-1.6807e-11
-1.76657e-10
-5.80053e-12
-5.79181e-11
-2.0389e-10
-1.38117e-11
3.26621e-10
1.99704e-10
1.13776e-10
-2.51627e-11
1.99269e-11
-1.16092e-11
-2.73534e-10
1.87438e-10
6.9002e-11
-1.03865e-10
-2.44166e-11
-1.12488e-10
1.14935e-10
4.19548e-11
-3.05257e-10
-1.29404e-10
1.56276e-10
-4.79197e-11
-2.9256e-11
5.56267e-11
4.2419e-10
5.96054e-11
1.29079e-10
-1.14418e-12
4.73802e-11
-2.43562e-11
-4.0069e-11
-1.94683e-10
-9.28141e-11
-4.95932e-11
-4.32001e-11
-1.149e-10
-1.08047e-10
-8.30029e-11
1.51452e-11
-9.55693e-14
-1.11574e-11
1.53271e-10
1.20387e-10
1.60785e-10
3.2055e-11
-2.30382e-10
-1.06934e-10
-3.70782e-11
-7.43056e-11
-3.89432e-11
1.06964e-10
1.67116e-10
1.48209e-10
2.00506e-10
6.61903e-12
-2.47494e-11
-3.37445e-11
-7.67077e-11
-1.29219e-10
-6.63224e-11
9.65787e-11
4.91442e-11
9.24061e-11
-1.3216e-10
-7.14557e-12
5.3767e-12
-1.5437e-11
1.19355e-10
1.54952e-10
1.53231e-10
-1.58259e-10
-2.77584e-11
1.67149e-10
-7.24636e-11
1.98797e-10
1.14497e-10
1.34691e-10
-9.54617e-11
1.06e-10
1.52043e-10
-4.08395e-11
-1.1133e-10
3.96519e-12
6.4979e-11
1.91919e-11
3.49111e-11
-1.0673e-10
4.24965e-11
1.00773e-10
1.54753e-10
1.27019e-10
5.64689e-11
8.08466e-11
5.48978e-11
1.15474e-11
-1.24563e-10
5.76078e-11
1.23033e-10
4.35923e-11
1.91048e-11
7.9947e-11
1.55934e-11
-2.72342e-10
7.48577e-11
2.09039e-10
3.50108e-10
6.82953e-10
7.87656e-10
1.50229e-09
1.98545e-09
3.06156e-09
4.86815e-09
7.27598e-09
1.18919e-08
1.83315e-08
2.85692e-08
4.46571e-08
6.96879e-08
1.08766e-07
1.69495e-07
2.6456e-07
4.12795e-07
6.44305e-07
1.00521e-06
1.56865e-06
2.44777e-06
3.82122e-06
5.96144e-06
9.30382e-06
1.45245e-05
2.26736e-05
3.53623e-05
5.52201e-05
8.6247e-05
0.000134492
0.000209747
0.000327937
0.000511557
0.000796416
0.00124362
0.00194357
0.00302287
0.00470614
0.00735088
0.0114528
0.0177806
0.02769
0.0430942
0.0669768
0.103561
0.161329
0.246633
0.388194
-3.7345e-11
2.53352e-11
9.60653e-12
1.78572e-11
-1.25183e-10
8.07397e-11
7.63022e-11
2.07509e-11
1.47384e-10
-7.56312e-11
1.36174e-10
1.19517e-11
1.52229e-11
-2.72771e-11
-4.48363e-11
1.61185e-10
-2.70462e-11
4.62098e-11
-6.24743e-11
3.74151e-11
1.50501e-10
7.02978e-11
8.02334e-11
-3.10586e-11
-6.09581e-11
9.74857e-11
-7.96334e-11
-1.41858e-10
-1.89687e-11
1.10862e-10
2.32014e-10
2.90882e-11
2.64727e-11
-1.86416e-10
2.73852e-11
-9.74745e-12
1.85496e-10
5.69819e-11
-5.86723e-11
1.83371e-10
2.3337e-11
-2.46948e-10
6.90224e-11
-1.74479e-10
-1.67838e-10
-8.40798e-11
1.16186e-10
2.52098e-10
-3.84016e-12
2.33733e-11
5.72195e-11
9.25651e-12
1.01745e-11
-8.25439e-11
8.09891e-11
1.11145e-11
7.1011e-11
2.21183e-10
-2.96367e-11
-7.62978e-11
-1.97834e-11
-8.80798e-12
4.12783e-11
3.98541e-11
-1.61481e-10
-5.88653e-11
-1.10497e-10
3.42772e-11
-4.79714e-11
-8.70472e-11
-1.4316e-10
-1.27956e-10
3.70028e-11
-1.94653e-10
-7.95695e-11
1.96732e-10
-2.83005e-11
4.0417e-10
2.40227e-10
3.3978e-10
2.56857e-10
2.08286e-10
3.03498e-11
-1.92887e-10
-1.0987e-10
-1.07735e-11
-1.22609e-10
-7.35164e-11
-2.24878e-10
-2.41919e-10
-5.32608e-11
2.01497e-10
2.82879e-10
1.5329e-10
1.69518e-10
-5.92587e-11
5.07254e-11
-5.91476e-11
2.11514e-11
-1.3235e-10
-1.49122e-10
7.58126e-11
-8.14062e-11
-1.44066e-10
-1.04719e-10
-3.1935e-10
-8.59163e-11
8.53139e-11
-7.55181e-11
1.90668e-10
1.29437e-10
4.72194e-11
-1.52102e-11
-4.06998e-11
6.73627e-11
-9.85032e-11
-8.46868e-11
-1.02081e-10
2.91795e-12
7.08656e-12
-1.37901e-10
1.27607e-10
5.97311e-11
1.64478e-10
4.8232e-11
-3.15855e-11
9.47709e-11
2.87281e-11
-2.42511e-10
-7.46487e-11
-2.13206e-10
-1.09899e-10
-7.23583e-11
1.37322e-10
4.02081e-11
-5.12129e-12
7.27913e-11
1.01899e-10
-3.74735e-11
7.72589e-11
5.709e-11
1.47688e-10
7.25495e-11
9.05703e-11
3.32201e-11
-9.93013e-11
-1.82345e-10
-1.03731e-10
-1.15109e-11
-8.28565e-11
-9.95538e-11
4.41909e-11
3.29239e-10
5.42403e-11
4.95814e-12
6.66835e-11
5.48271e-11
1.54248e-10
1.97011e-10
-3.42402e-11
4.37541e-11
-3.9818e-12
2.82715e-11
-1.62195e-10
-2.36377e-11
6.21096e-11
-9.55852e-11
-1.10614e-10
1.08663e-10
1.49832e-10
1.84826e-10
2.51703e-10
2.26194e-10
1.01572e-11
2.65669e-11
1.5464e-10
1.15972e-10
2.69182e-13
1.62055e-10
2.68085e-11
5.73738e-11
2.48815e-10
3.68683e-11
-5.42804e-11
5.2313e-11
-7.82605e-11
-9.58702e-12
7.313e-12
2.76424e-11
-1.09725e-10
-2.26855e-10
-2.83163e-10
6.80897e-11
7.16229e-11
5.43253e-11
2.29638e-10
-8.55661e-11
2.3447e-10
2.07556e-10
-1.36991e-10
-2.86818e-10
-9.50579e-11
-2.00815e-10
-2.89039e-10
-2.9859e-10
-1.71271e-10
-6.52506e-11
-4.45707e-11
-6.58316e-11
-1.94563e-11
3.30555e-11
4.32111e-11
3.38997e-11
9.93616e-11
1.18638e-10
5.22461e-11
7.91983e-11
9.609e-11
-4.21219e-11
1.04329e-10
6.23405e-11
6.39704e-11
2.97497e-11
9.66679e-11
3.57463e-12
-6.62492e-11
-6.8906e-11
-2.14622e-10
-1.20363e-10
4.6236e-12
-1.00578e-10
2.09272e-10
1.17426e-10
8.03926e-11
1.1645e-10
-4.50032e-11
1.20942e-10
1.56056e-10
8.12139e-11
-6.19799e-12
-2.08391e-10
-1.39795e-11
7.83655e-11
-9.74766e-12
2.74935e-11
-8.23693e-11
-1.17159e-10
8.15786e-11
-7.45258e-11
4.91054e-12
2.60396e-10
2.8761e-10
3.02719e-10
4.09668e-10
6.7096e-10
9.0911e-10
1.62566e-09
2.45837e-09
4.03992e-09
6.29016e-09
9.61784e-09
1.52039e-08
2.367e-08
3.65346e-08
5.69258e-08
8.88169e-08
1.38316e-07
2.15303e-07
3.35394e-07
5.22828e-07
8.14168e-07
1.26849e-06
1.97578e-06
3.07911e-06
4.79562e-06
7.47093e-06
1.16433e-05
1.81458e-05
2.82517e-05
4.40404e-05
6.86756e-05
0.000106922
0.000166463