/*--------------------------------*- C++ -*----------------------------------*\
| =========                 |                                                 |
| \\      /  F ield         | OpenFOAM: The Open Source CFD Toolbox           |
|  \\    /   O peration     | Version:  2412                                  |
|   \\  /    A nd           | Website:  www.openfoam.com                      |
|    \\/     M anipulation  |                                                 |
\*---------------------------------------------------------------------------*/
FoamFile
{
    version     2.0;
    format      ascii;
    arch        "LSB;label=32;scalar=64";
    class       surfaceScalarField;
    location    "0.003";
    object      phi;
}
// * * * * * * * * * * * * * * * * * * * * * * * * * * * * * * * * * * * * * //

dimensions      [1 0 -1 0 0 0 0];

oriented        oriented;

internalField   nonuniform List<scalar> 
359100
(
3.27398
4.16334e-17
3.27398
1.11022e-16
3.27398
2.77556e-17
3.27398
-1.38778e-17
3.27398
1.38778e-17
3.27398
5.55112e-17
3.27398
-1.249e-16
3.27398
-3.747e-16
3.27398
-6.245e-16
3.27398
-6.93889e-16
3.27398
-6.52256e-16
3.27398
-5.55112e-16
3.27398
-7.35523e-16
3.27398
-1.11022e-15
3.27398
-1.47105e-15
3.27398
-1.45717e-15
3.27398
-1.33227e-15
3.27398
-1.249e-15
3.27398
-1.26288e-15
3.27398
-1.40166e-15
3.27398
-1.56819e-15
3.27398
-1.55431e-15
3.27398
-1.42941e-15
3.27398
-1.27676e-15
3.27398
-1.08247e-15
3.27398
-7.77156e-16
3.27398
-6.52256e-16
3.27398
-8.18789e-16
3.27398
-1.11022e-15
3.27398
-1.3739e-15
3.27398
-1.33227e-15
3.27398
-1.17961e-15
3.27398
-1.04083e-15
3.27398
-1.04083e-15
3.27398
-1.08247e-15
3.27398
-9.71445e-16
3.27398
-8.88178e-16
3.27398
-1.01308e-15
3.27398
-1.17961e-15
3.27398
-1.16573e-15
3.27398
-1.08247e-15
3.27398
-1.02696e-15
3.27398
-8.60423e-16
3.27398
-8.32667e-16
3.27398
-1.05471e-15
3.27398
-1.38778e-15
3.27398
-1.51268e-15
3.27398
-1.4988e-15
3.27398
-1.36002e-15
3.27398
-1.31839e-15
3.27398
-1.20737e-15
3.27398
-1.05471e-15
3.27398
-1.11022e-15
3.27398
-1.27676e-15
3.27398
-1.45717e-15
3.27398
-1.56819e-15
3.27398
-1.6237e-15
3.27398
-1.65146e-15
3.27398
-1.76248e-15
3.27398
-1.88738e-15
3.27398
-1.98452e-15
3.27398
-1.88738e-15
3.27398
-1.56819e-15
3.27398
-1.15186e-15
3.27398
-9.4369e-16
3.27398
-7.91034e-16
3.27398
-7.21645e-16
3.27398
-6.80012e-16
3.27398
-9.71445e-16
3.27398
-1.41553e-15
3.27398
-1.91513e-15
3.27398
-2.06779e-15
3.27398
-1.88738e-15
3.27398
-1.72085e-15
3.27398
-1.76248e-15
3.27398
-2.02616e-15
3.27398
-2.23432e-15
3.27398
-2.26208e-15
3.27398
-2.23432e-15
3.27398
-2.27596e-15
3.27398
-2.55351e-15
3.27398
-2.69229e-15
3.27398
-2.45637e-15
3.27398
-2.20657e-15
3.27398
-2.01228e-15
3.27398
-1.8735e-15
3.27398
-1.70697e-15
3.27398
-1.31839e-15
3.27398
-1.04083e-15
3.27398
-9.71445e-16
3.27398
-1.11022e-15
3.27398
-1.23512e-15
3.27398
-1.3739e-15
3.27398
-1.55431e-15
3.27398
-1.60982e-15
3.27398
-1.69309e-15
3.27398
-1.83187e-15
3.27398
-1.92901e-15
3.27398
-2.02616e-15
3.27398
-2.17881e-15
3.27398
-2.20657e-15
3.27398
-2.30371e-15
3.27398
-2.35922e-15
3.27398
-2.42861e-15
3.27398
-2.52576e-15
3.27398
-2.44249e-15
3.27398
-2.31759e-15
3.27398
-2.15106e-15
3.27398
-1.94289e-15
3.27398
-1.70697e-15
3.27398
-1.58207e-15
3.27398
-1.6237e-15
3.27398
-1.76248e-15
3.27398
-2.04003e-15
3.27398
-2.34535e-15
3.27398
-2.60902e-15
3.27398
-2.55351e-15
3.27398
-2.02616e-15
3.27398
-1.40166e-15
3.27398
-1.08247e-15
3.27398
-1.13798e-15
3.27398
-1.17961e-15
3.27398
-1.249e-15
3.27398
-1.27676e-15
3.27398
-1.56819e-15
3.27398
-1.90126e-15
3.27398
-1.9984e-15
3.27398
-2.09555e-15
3.27398
-2.23432e-15
3.27398
-2.34535e-15
3.27398
-2.41474e-15
3.27398
-2.65066e-15
3.27398
-2.90046e-15
3.27398
-2.94209e-15
3.27398
-2.80331e-15
3.27398
-2.58127e-15
3.27398
-2.35922e-15
3.27398
-2.13718e-15
3.27398
-2.01228e-15
3.27398
-2.06779e-15
3.27398
-2.33147e-15
3.27398
-2.27596e-15
3.27398
-1.98452e-15
3.27398
-1.76248e-15
3.27398
-1.6237e-15
3.27398
-1.63758e-15
3.27398
-1.76248e-15
3.27398
-1.8735e-15
3.27398
-1.97065e-15
3.27398
-2.16493e-15
3.27398
-2.55351e-15
3.27398
-2.94209e-15
3.27398
-3.10862e-15
3.27398
-3.17801e-15
3.27398
-3.15026e-15
3.27398
-3.09475e-15
3.27398
-2.96985e-15
3.27398
-2.70617e-15
3.27398
-2.59515e-15
3.27398
-2.44249e-15
3.27398
-2.35922e-15
3.27398
-2.22045e-15
3.27398
-1.85962e-15
3.27398
-1.66533e-15
3.27398
-1.7486e-15
3.27398
-2.08167e-15
3.27398
-2.53964e-15
3.27398
-2.95597e-15
3.27398
-3.33067e-15
3.27398
-3.60822e-15
3.27398
-3.69149e-15
3.27398
-3.53884e-15
3.27398
-3.38618e-15
3.27398
-3.30291e-15
3.27398
-2.95597e-15
3.27398
-2.42861e-15
3.27398
-2.09555e-15
3.27398
-1.88738e-15
3.27398
-1.69309e-15
3.27398
-1.66533e-15
3.27398
-1.76248e-15
3.27398
-1.8735e-15
3.27398
-2.05391e-15
3.27398
-2.10942e-15
3.27398
-1.95677e-15
3.27398
-1.77636e-15
3.27398
-1.67921e-15
3.27398
-1.69309e-15
3.27398
-1.69309e-15
3.27398
-1.91513e-15
3.27398
-2.13718e-15
3.27398
-2.2482e-15
3.27398
-2.15106e-15
3.27398
-2.09555e-15
3.27398
-2.08167e-15
3.27398
-1.92901e-15
3.27398
-1.80411e-15
3.27398
-1.94289e-15
3.27398
-2.01228e-15
3.27398
-2.05391e-15
3.27398
-2.05391e-15
3.27398
-1.92901e-15
3.27398
-1.67921e-15
3.27398
-1.67921e-15
3.27398
-1.54043e-15
3.27398
-1.4988e-15
3.27398
-1.59595e-15
3.27398
-1.84575e-15
3.27398
-2.16493e-15
3.27398
-2.38698e-15
3.27398
-2.38698e-15
3.27398
-2.28983e-15
3.27398
-2.26208e-15
3.27398
-2.20657e-15
3.27398
-2.20657e-15
3.27398
-2.17881e-15
3.27398
-2.01228e-15
3.27398
-1.88738e-15
3.27398
-1.88738e-15
3.27398
-1.67921e-15
3.27398
-1.38778e-15
3.27398
-1.36002e-15
3.27398
-1.55431e-15
3.27398
-1.7486e-15
3.27398
-2.01228e-15
3.27398
-2.06779e-15
3.27398
-1.83187e-15
3.27398
-1.45717e-15
3.27398
-1.05471e-15
3.27398
-7.63278e-16
3.27398
-5.55112e-16
3.27398
-1.80411e-16
3.27398
-5.55112e-17
3.27398
-1.38778e-16
3.27398
-2.63678e-16
3.27398
-5.41234e-16
3.27398
-8.32667e-16
3.27398
-9.29812e-16
3.27398
-8.04912e-16
3.27398
-6.52256e-16
3.27398
-8.32667e-17
3.27398
9.4369e-16
3.27398
2.42861e-15
3.27398
4.81559e-15
3.27398
8.9373e-15
3.27398
1.59178e-14
3.27398
2.75197e-14
3.27398
4.65877e-14
3.27398
7.78266e-14
3.27398
1.29258e-13
3.27398
2.14204e-13
3.27398
3.54772e-13
3.27398
5.88099e-13
3.27398
9.75775e-13
3.27398
1.61988e-12
3.27398
2.69042e-12
3.27398
4.47094e-12
3.27398
7.43414e-12
3.27398
1.23682e-11
3.27398
2.0589e-11
3.27398
3.42948e-11
3.27398
5.71606e-11
3.27398
9.53354e-11
3.27398
1.59117e-10
3.27398
2.65763e-10
3.27398
4.44229e-10
3.27398
7.43132e-10
3.27398
1.24419e-09
3.27398
2.0849e-09
3.27398
3.49684e-09
3.27398
5.87055e-09
3.27398
9.86528e-09
3.27398
1.65953e-08
3.27398
2.79465e-08
3.27398
4.71143e-08
3.27398
7.95209e-08
3.27398
1.3438e-07
3.27398
2.27368e-07
3.27398
3.85205e-07
3.27398
6.53491e-07
3.27398
1.11019e-06
3.27398
1.88878e-06
3.27397
3.21826e-06
3.27397
5.49208e-06
3.27396
9.38756e-06
3.27394
1.6073e-05
3.27391
2.75675e-05
3.27387
4.7369e-05
3.27378
8.15524e-05
3.27364
0.000140698
3.2734
0.000243309
3.27298
0.000421874
3.27224
0.000733926
3.27096
0.00128192
3.2687
0.0022522
3.26471
0.00398551
3.25757
0.00713739
3.24461
0.0129513
3.22053
0.0240657
0.045364
3.17515
3.27398
6.93889e-17
3.27398
2.77556e-17
3.27398
6.93889e-17
3.27398
8.32667e-17
3.27398
2.77556e-17
3.27398
-6.93889e-17
3.27398
-9.71445e-17
3.27398
-8.32667e-17
3.27398
-1.52656e-16
3.27398
-3.05311e-16
3.27398
-3.60822e-16
3.27398
-5.82867e-16
3.27398
-7.21645e-16
3.27398
-9.02056e-16
3.27398
-9.99201e-16
3.27398
-1.09635e-15
3.27398
-1.1241e-15
3.27398
-1.1241e-15
3.27398
-1.17961e-15
3.27398
-1.19349e-15
3.27398
-1.05471e-15
3.27398
-9.99201e-16
3.27398
-9.71445e-16
3.27398
-8.88178e-16
3.27398
-6.245e-16
3.27398
-5.55112e-16
3.27398
-5.41234e-16
3.27398
-7.07767e-16
3.27398
-1.02696e-15
3.27398
-1.16573e-15
3.27398
-1.06859e-15
3.27398
-9.4369e-16
3.27398
-8.60423e-16
3.27398
-7.21645e-16
3.27398
-6.245e-16
3.27398
-5.82867e-16
3.27398
-5.55112e-16
3.27398
-4.44089e-16
3.27398
-4.996e-16
3.27398
-6.80012e-16
3.27398
-7.35523e-16
3.27398
-7.21645e-16
3.27398
-7.07767e-16
3.27398
-7.77156e-16
3.27398
-9.4369e-16
3.27398
-1.19349e-15
3.27398
-1.4988e-15
3.27398
-1.69309e-15
3.27398
-1.8735e-15
3.27398
-1.92901e-15
3.27398
-1.98452e-15
3.27398
-2.10942e-15
3.27398
-2.13718e-15
3.27398
-2.22045e-15
3.27398
-2.31759e-15
3.27398
-2.28983e-15
3.27398
-2.06779e-15
3.27398
-1.92901e-15
3.27398
-1.88738e-15
3.27398
-1.72085e-15
3.27398
-1.51268e-15
3.27398
-1.38778e-15
3.27398
-1.23512e-15
3.27398
-1.15186e-15
3.27398
-1.16573e-15
3.27398
-1.1241e-15
3.27398
-1.01308e-15
3.27398
-1.04083e-15
3.27398
-1.11022e-15
3.27398
-1.13798e-15
3.27398
-1.23512e-15
3.27398
-1.3739e-15
3.27398
-1.67921e-15
3.27398
-1.85962e-15
3.27398
-1.92901e-15
3.27398
-1.80411e-15
3.27398
-1.67921e-15
3.27398
-1.73472e-15
3.27398
-1.8735e-15
3.27398
-2.04003e-15
3.27398
-2.1233e-15
3.27398
-2.04003e-15
3.27398
-1.83187e-15
3.27398
-1.58207e-15
3.27398
-1.36002e-15
3.27398
-1.22125e-15
3.27398
-1.20737e-15
3.27398
-1.38778e-15
3.27398
-1.54043e-15
3.27398
-1.6237e-15
3.27398
-1.7486e-15
3.27398
-1.88738e-15
3.27398
-2.02616e-15
3.27398
-2.09555e-15
3.27398
-2.16493e-15
3.27398
-2.26208e-15
3.27398
-2.44249e-15
3.27398
-2.48412e-15
3.27398
-2.498e-15
3.27398
-2.40086e-15
3.27398
-2.27596e-15
3.27398
-2.06779e-15
3.27398
-2.01228e-15
3.27398
-2.06779e-15
3.27398
-2.17881e-15
3.27398
-2.26208e-15
3.27398
-2.35922e-15
3.27398
-2.40086e-15
3.27398
-2.35922e-15
3.27398
-2.26208e-15
3.27398
-2.09555e-15
3.27398
-2.08167e-15
3.27398
-1.94289e-15
3.27398
-1.92901e-15
3.27398
-1.95677e-15
3.27398
-2.08167e-15
3.27398
-2.15106e-15
3.27398
-1.91513e-15
3.27398
-1.63758e-15
3.27398
-1.41553e-15
3.27398
-1.15186e-15
3.27398
-1.05471e-15
3.27398
-1.06859e-15
3.27398
-1.31839e-15
3.27398
-1.59595e-15
3.27398
-1.81799e-15
3.27398
-1.85962e-15
3.27398
-1.90126e-15
3.27398
-1.85962e-15
3.27398
-1.88738e-15
3.27398
-1.88738e-15
3.27398
-1.97065e-15
3.27398
-1.97065e-15
3.27398
-1.88738e-15
3.27398
-2.22045e-15
3.27398
-2.7478e-15
3.27398
-2.96985e-15
3.27398
-2.81719e-15
3.27398
-2.59515e-15
3.27398
-2.44249e-15
3.27398
-2.2482e-15
3.27398
-2.31759e-15
3.27398
-2.38698e-15
3.27398
-2.33147e-15
3.27398
-2.13718e-15
3.27398
-2.08167e-15
3.27398
-1.9984e-15
3.27398
-1.98452e-15
3.27398
-1.94289e-15
3.27398
-1.94289e-15
3.27398
-1.98452e-15
3.27398
-2.02616e-15
3.27398
-2.17881e-15
3.27398
-2.3731e-15
3.27398
-2.52576e-15
3.27398
-2.59515e-15
3.27398
-2.7478e-15
3.27398
-2.83107e-15
3.27398
-2.80331e-15
3.27398
-2.84495e-15
3.27398
-2.8727e-15
3.27398
-2.8727e-15
3.27398
-2.91434e-15
3.27398
-2.85882e-15
3.27398
-2.84495e-15
3.27398
-2.84495e-15
3.27398
-2.72005e-15
3.27398
-2.63678e-15
3.27398
-2.44249e-15
3.27398
-2.34535e-15
3.27398
-2.27596e-15
3.27398
-2.27596e-15
3.27398
-2.33147e-15
3.27398
-2.28983e-15
3.27398
-2.13718e-15
3.27398
-2.02616e-15
3.27398
-1.81799e-15
3.27398
-1.84575e-15
3.27398
-2.08167e-15
3.27398
-2.16493e-15
3.27398
-2.17881e-15
3.27398
-2.22045e-15
3.27398
-2.3731e-15
3.27398
-2.66454e-15
3.27398
-2.78944e-15
3.27398
-2.84495e-15
3.27398
-2.98372e-15
3.27398
-2.9976e-15
3.27398
-2.96985e-15
3.27398
-2.69229e-15
3.27398
-2.45637e-15
3.27398
-2.26208e-15
3.27398
-2.16493e-15
3.27398
-1.98452e-15
3.27398
-1.47105e-15
3.27398
-9.29812e-16
3.27398
-7.63278e-16
3.27398
-8.04912e-16
3.27398
-9.4369e-16
3.27398
-1.1241e-15
3.27398
-1.22125e-15
3.27398
-1.01308e-15
3.27398
-8.32667e-16
3.27398
-7.35523e-16
3.27398
-8.32667e-16
3.27398
-1.04083e-15
3.27398
-1.45717e-15
3.27398
-1.88738e-15
3.27398
-2.22045e-15
3.27398
-2.47025e-15
3.27398
-2.40086e-15
3.27398
-2.3731e-15
3.27398
-2.55351e-15
3.27398
-2.73392e-15
3.27398
-2.70617e-15
3.27398
-2.60902e-15
3.27398
-2.63678e-15
3.27398
-2.66454e-15
3.27398
-2.65066e-15
3.27398
-2.59515e-15
3.27398
-2.52576e-15
3.27398
-2.40086e-15
3.27398
-2.30371e-15
3.27398
-2.35922e-15
3.27398
-2.40086e-15
3.27398
-2.47025e-15
3.27398
-2.38698e-15
3.27398
-1.98452e-15
3.27398
-1.55431e-15
3.27398
-1.1241e-15
3.27398
-6.80012e-16
3.27398
-3.60822e-16
3.27398
-2.77556e-17
3.27398
1.38778e-16
3.27398
1.38778e-16
3.27398
1.249e-16
3.27398
2.08167e-16
3.27398
1.80411e-16
3.27398
3.33067e-16
3.27398
9.29812e-16
3.27398
2.02616e-15
3.27398
3.70537e-15
3.27398
6.23113e-15
3.27398
1.04361e-14
3.27398
1.76387e-14
3.27398
2.99344e-14
3.27398
5.03209e-14
3.27398
8.3919e-14
3.27398
1.39111e-13
3.27398
2.30135e-13
3.27398
3.80654e-13
3.27398
6.29843e-13
3.27398
1.04224e-12
3.27398
1.72491e-12
3.27398
2.85515e-12
3.27398
4.7272e-12
3.27398
7.82835e-12
3.27398
1.29671e-11
3.27398
2.1486e-11
3.27398
3.5614e-11
3.27398
5.90534e-11
3.27398
9.79564e-11
3.27398
1.62552e-10
3.27398
2.69851e-10
3.27398
4.48163e-10
3.27398
7.44613e-10
3.27398
1.23769e-09
3.27398
2.05818e-09
3.27398
3.42412e-09
3.27398
5.69915e-09
3.27398
9.49009e-09
3.27398
1.581e-08
3.27398
2.63511e-08
3.27398
4.39409e-08
3.27398
7.33074e-08
3.27398
1.22359e-07
3.27398
2.04329e-07
3.27398
3.41377e-07
3.27398
5.70619e-07
3.27398
9.54254e-07
3.27398
1.59656e-06
3.27398
2.67245e-06
3.27398
4.47539e-06
3.27397
7.49799e-06
3.27397
1.25675e-05
3.27397
2.10736e-05
3.27396
3.53518e-05
3.27395
5.93291e-05
3.27393
9.96129e-05
3.2739
0.00016733
3.27386
0.000281242
3.27381
0.000473048
3.27375
0.000796468
3.27368
0.00134302
3.27366
0.00226961
3.2738
0.00384876
3.27437
0.00655787
3.27605
0.0112581
3.28064
0.0194674
0.0340891
3.2919
3.27398
-1.38778e-16
3.27398
-1.80411e-16
3.27398
-2.498e-16
3.27398
-2.63678e-16
3.27398
-2.63678e-16
3.27398
-1.80411e-16
3.27398
-1.38778e-17
3.27398
1.36995e-33
3.27398
-1.94289e-16
3.27398
-3.33067e-16
3.27398
-4.30211e-16
3.27398
-4.16334e-16
3.27398
-3.19189e-16
3.27398
-2.77556e-16
3.27398
-3.747e-16
3.27398
-4.85723e-16
3.27398
-6.245e-16
3.27398
-8.18789e-16
3.27398
-8.88178e-16
3.27398
-9.15934e-16
3.27398
-9.99201e-16
3.27398
-8.88178e-16
3.27398
-8.04912e-16
3.27398
-6.80012e-16
3.27398
-6.93889e-16
3.27398
-7.21645e-16
3.27398
-7.91034e-16
3.27398
-8.74301e-16
3.27398
-8.18789e-16
3.27398
-7.63278e-16
3.27398
-8.32667e-16
3.27398
-8.60423e-16
3.27398
-8.60423e-16
3.27398
-9.4369e-16
3.27398
-9.02056e-16
3.27398
-9.02056e-16
3.27398
-9.99201e-16
3.27398
-1.16573e-15
3.27398
-1.23512e-15
3.27398
-1.09635e-15
3.27398
-9.4369e-16
3.27398
-8.74301e-16
3.27398
-9.15934e-16
3.27398
-9.71445e-16
3.27398
-1.05471e-15
3.27398
-1.26288e-15
3.27398
-1.55431e-15
3.27398
-1.73472e-15
3.27398
-1.7486e-15
3.27398
-1.66533e-15
3.27398
-1.54043e-15
3.27398
-1.42941e-15
3.27398
-1.3739e-15
3.27398
-1.249e-15
3.27398
-1.1241e-15
3.27398
-1.04083e-15
3.27398
-1.04083e-15
3.27398
-1.1241e-15
3.27398
-1.19349e-15
3.27398
-1.09635e-15
3.27398
-9.99201e-16
3.27398
-1.01308e-15
3.27398
-1.08247e-15
3.27398
-1.13798e-15
3.27398
-1.27676e-15
3.27398
-1.44329e-15
3.27398
-1.54043e-15
3.27398
-1.47105e-15
3.27398
-1.31839e-15
3.27398
-1.40166e-15
3.27398
-1.45717e-15
3.27398
-1.65146e-15
3.27398
-1.85962e-15
3.27398
-2.01228e-15
3.27398
-1.9984e-15
3.27398
-1.76248e-15
3.27398
-1.34615e-15
3.27398
-1.13798e-15
3.27398
-1.17961e-15
3.27398
-1.27676e-15
3.27398
-1.42941e-15
3.27398
-1.55431e-15
3.27398
-1.6237e-15
3.27398
-1.58207e-15
3.27398
-1.4988e-15
3.27398
-1.42941e-15
3.27398
-1.4988e-15
3.27398
-1.6237e-15
3.27398
-1.80411e-15
3.27398
-1.97065e-15
3.27398
-1.94289e-15
3.27398
-1.8735e-15
3.27398
-1.79023e-15
3.27398
-1.81799e-15
3.27398
-1.97065e-15
3.27398
-2.15106e-15
3.27398
-2.2482e-15
3.27398
-2.28983e-15
3.27398
-2.20657e-15
3.27398
-2.1233e-15
3.27398
-2.08167e-15
3.27398
-2.17881e-15
3.27398
-2.13718e-15
3.27398
-1.95677e-15
3.27398
-1.88738e-15
3.27398
-1.97065e-15
3.27398
-1.9984e-15
3.27398
-1.95677e-15
3.27398
-1.88738e-15
3.27398
-1.77636e-15
3.27398
-1.8735e-15
3.27398
-1.92901e-15
3.27398
-2.09555e-15
3.27398
-2.06779e-15
3.27398
-2.04003e-15
3.27398
-2.01228e-15
3.27398
-2.1233e-15
3.27398
-2.42861e-15
3.27398
-2.56739e-15
3.27398
-2.498e-15
3.27398
-2.44249e-15
3.27398
-2.41474e-15
3.27398
-2.47025e-15
3.27398
-2.38698e-15
3.27398
-2.33147e-15
3.27398
-2.34535e-15
3.27398
-2.40086e-15
3.27398
-2.30371e-15
3.27398
-2.1233e-15
3.27398
-1.79023e-15
3.27398
-1.56819e-15
3.27398
-1.16573e-15
3.27398
-8.04912e-16
3.27398
-8.60423e-16
3.27398
-1.26288e-15
3.27398
-1.81799e-15
3.27398
-2.2482e-15
3.27398
-2.6229e-15
3.27398
-2.88658e-15
3.27398
-2.92821e-15
3.27398
-2.83107e-15
3.27398
-2.78944e-15
3.27398
-2.91434e-15
3.27398
-2.98372e-15
3.27398
-3.01148e-15
3.27398
-2.84495e-15
3.27398
-2.69229e-15
3.27398
-2.6229e-15
3.27398
-2.498e-15
3.27398
-2.22045e-15
3.27398
-2.01228e-15
3.27398
-1.76248e-15
3.27398
-1.55431e-15
3.27398
-1.47105e-15
3.27398
-1.45717e-15
3.27398
-1.52656e-15
3.27398
-1.60982e-15
3.27398
-1.80411e-15
3.27398
-2.09555e-15
3.27398
-2.33147e-15
3.27398
-2.38698e-15
3.27398
-2.47025e-15
3.27398
-2.77556e-15
3.27398
-3.01148e-15
3.27398
-3.02536e-15
3.27398
-2.98372e-15
3.27398
-2.84495e-15
3.27398
-2.56739e-15
3.27398
-2.35922e-15
3.27398
-2.23432e-15
3.27398
-2.40086e-15
3.27398
-2.55351e-15
3.27398
-2.77556e-15
3.27398
-3.20577e-15
3.27398
-3.52496e-15
3.27398
-3.3723e-15
3.27398
-3.13638e-15
3.27398
-2.96985e-15
3.27398
-2.73392e-15
3.27398
-2.38698e-15
3.27398
-2.09555e-15
3.27398
-1.9984e-15
3.27398
-1.9984e-15
3.27398
-1.97065e-15
3.27398
-2.08167e-15
3.27398
-2.30371e-15
3.27398
-2.34535e-15
3.27398
-2.23432e-15
3.27398
-2.1233e-15
3.27398
-1.92901e-15
3.27398
-1.52656e-15
3.27398
-1.17961e-15
3.27398
-9.29812e-16
3.27398
-8.60423e-16
3.27398
-8.88178e-16
3.27398
-1.02696e-15
3.27398
-1.06859e-15
3.27398
-1.13798e-15
3.27398
-1.36002e-15
3.27398
-1.47105e-15
3.27398
-1.26288e-15
3.27398
-1.16573e-15
3.27398
-1.23512e-15
3.27398
-1.3739e-15
3.27398
-1.44329e-15
3.27398
-1.47105e-15
3.27398
-1.36002e-15
3.27398
-1.34615e-15
3.27398
-1.44329e-15
3.27398
-1.56819e-15
3.27398
-1.88738e-15
3.27398
-2.09555e-15
3.27398
-2.17881e-15
3.27398
-2.30371e-15
3.27398
-2.55351e-15
3.27398
-2.73392e-15
3.27398
-2.81719e-15
3.27398
-2.91434e-15
3.27398
-3.01148e-15
3.27398
-2.98372e-15
3.27398
-2.83107e-15
3.27398
-2.67841e-15
3.27398
-2.66454e-15
3.27398
-2.72005e-15
3.27398
-2.8727e-15
3.27398
-2.92821e-15
3.27398
-2.92821e-15
3.27398
-2.9976e-15
3.27398
-3.03924e-15
3.27398
-2.88658e-15
3.27398
-2.65066e-15
3.27398
-2.53964e-15
3.27398
-2.40086e-15
3.27398
-2.08167e-15
3.27398
-1.6237e-15
3.27398
-1.11022e-15
3.27398
-7.07767e-16
3.27398
-2.77556e-16
3.27398
4.16334e-16
3.27398
1.52656e-15
3.27398
2.85882e-15
3.27398
5.07927e-15
3.27398
8.79852e-15
3.27398
1.46966e-14
3.27398
2.41751e-14
3.27398
3.95933e-14
3.27398
6.49897e-14
3.27398
1.06845e-13
3.27398
1.75998e-13
3.27398
2.90268e-13
3.27398
4.78673e-13
3.27398
7.89133e-13
3.27398
1.30082e-12
3.27398
2.14424e-12
3.27398
3.53435e-12
3.27398
5.82583e-12
3.27398
9.60361e-12
3.27398
1.58331e-11
3.27398
2.61072e-11
3.27398
4.30549e-11
3.27398
7.10155e-11
3.27398
1.17153e-10
3.27398
1.93296e-10
3.27398
3.18979e-10
3.27398
5.26465e-10
3.27398
8.69044e-10
3.27398
1.43476e-09
3.27398
2.36906e-09
3.27398
3.91228e-09
3.27398
6.46156e-09
3.27398
1.06732e-08
3.27398
1.76318e-08
3.27398
2.91297e-08
3.27398
4.8129e-08
3.27398
7.9525e-08
3.27398
1.31406e-07
3.27398
2.17139e-07
3.27398
3.58802e-07
3.27398
5.92867e-07
3.27398
9.79562e-07
3.27398
1.61832e-06
3.27398
2.67326e-06
3.27398
4.4151e-06
3.27398
7.29031e-06
3.27398
1.20347e-05
3.27398
1.98604e-05
3.27398
3.27627e-05
3.27399
5.40239e-05
3.274
8.90403e-05
3.27402
0.000146678
3.27406
0.000241495
3.27413
0.000397402
3.27428
0.000653667
3.27454
0.00107493
3.27504
0.00176772
3.27598
0.00290911
3.27774
0.00479347
3.28106
0.00792299
3.28739
0.0131283
0.0219288
3.29954
3.27398
2.77556e-17
3.27398
-1.38778e-17
3.27398
1.38778e-17
3.27398
4.16334e-17
3.27398
5.55112e-17
3.27398
1.66533e-16
3.27398
2.498e-16
3.27398
2.91434e-16
3.27398
3.19189e-16
3.27398
2.63678e-16
3.27398
1.94289e-16
3.27398
2.35922e-16
3.27398
3.33067e-16
3.27398
5.96745e-16
3.27398
7.35523e-16
3.27398
7.49401e-16
3.27398
6.66134e-16
3.27398
5.68989e-16
3.27398
3.88578e-16
3.27398
2.22045e-16
3.27398
1.80411e-16
3.27398
8.32667e-17
3.27398
1.66533e-16
3.27398
1.249e-16
3.27398
-8.32667e-17
3.27398
-2.91434e-16
3.27398
-4.30211e-16
3.27398
-5.13478e-16
3.27398
-6.245e-16
3.27398
-7.07767e-16
3.27398
-8.04912e-16
3.27398
-8.88178e-16
3.27398
-9.29812e-16
3.27398
-8.46545e-16
3.27398
-8.46545e-16
3.27398
-9.15934e-16
3.27398
-9.85323e-16
3.27398
-1.17961e-15
3.27398
-1.38778e-15
3.27398
-1.63758e-15
3.27398
-1.77636e-15
3.27398
-1.83187e-15
3.27398
-1.83187e-15
3.27398
-1.81799e-15
3.27398
-1.80411e-15
3.27398
-1.8735e-15
3.27398
-1.84575e-15
3.27398
-1.70697e-15
3.27398
-1.47105e-15
3.27398
-1.1241e-15
3.27398
-9.57567e-16
3.27398
-9.71445e-16
3.27398
-9.85323e-16
3.27398
-1.04083e-15
3.27398
-1.02696e-15
3.27398
-1.17961e-15
3.27398
-1.38778e-15
3.27398
-1.48492e-15
3.27398
-1.55431e-15
3.27398
-1.60982e-15
3.27398
-1.58207e-15
3.27398
-1.52656e-15
3.27398
-1.47105e-15
3.27398
-1.51268e-15
3.27398
-1.51268e-15
3.27398
-1.48492e-15
3.27398
-1.3739e-15
3.27398
-1.3739e-15
3.27398
-1.45717e-15
3.27398
-1.54043e-15
3.27398
-1.70697e-15
3.27398
-1.73472e-15
3.27398
-1.58207e-15
3.27398
-1.48492e-15
3.27398
-1.55431e-15
3.27398
-1.69309e-15
3.27398
-1.77636e-15
3.27398
-1.69309e-15
3.27398
-1.66533e-15
3.27398
-1.6237e-15
3.27398
-1.52656e-15
3.27398
-1.47105e-15
3.27398
-1.51268e-15
3.27398
-1.56819e-15
3.27398
-1.58207e-15
3.27398
-1.3739e-15
3.27398
-1.09635e-15
3.27398
-9.71445e-16
3.27398
-9.02056e-16
3.27398
-7.63278e-16
3.27398
-7.07767e-16
3.27398
-8.18789e-16
3.27398
-9.99201e-16
3.27398
-1.249e-15
3.27398
-1.58207e-15
3.27398
-1.97065e-15
3.27398
-2.19269e-15
3.27398
-2.33147e-15
3.27398
-2.33147e-15
3.27398
-2.23432e-15
3.27398
-2.13718e-15
3.27398
-1.9984e-15
3.27398
-1.8735e-15
3.27398
-1.90126e-15
3.27398
-1.83187e-15
3.27398
-1.73472e-15
3.27398
-1.77636e-15
3.27398
-1.95677e-15
3.27398
-1.97065e-15
3.27398
-1.94289e-15
3.27398
-1.90126e-15
3.27398
-1.95677e-15
3.27398
-1.91513e-15
3.27398
-1.84575e-15
3.27398
-1.65146e-15
3.27398
-1.54043e-15
3.27398
-1.58207e-15
3.27398
-1.69309e-15
3.27398
-1.83187e-15
3.27398
-1.95677e-15
3.27398
-2.04003e-15
3.27398
-2.02616e-15
3.27398
-1.97065e-15
3.27398
-1.95677e-15
3.27398
-1.91513e-15
3.27398
-1.94289e-15
3.27398
-1.95677e-15
3.27398
-2.04003e-15
3.27398
-2.13718e-15
3.27398
-1.98452e-15
3.27398
-1.7486e-15
3.27398
-1.73472e-15
3.27398
-1.94289e-15
3.27398
-2.17881e-15
3.27398
-2.26208e-15
3.27398
-2.38698e-15
3.27398
-2.65066e-15
3.27398
-2.90046e-15
3.27398
-3.01148e-15
3.27398
-3.02536e-15
3.27398
-3.03924e-15
3.27398
-3.1225e-15
3.27398
-3.16414e-15
3.27398
-3.31679e-15
3.27398
-3.46945e-15
3.27398
-3.53884e-15
3.27398
-3.51108e-15
3.27398
-3.56659e-15
3.27398
-3.48332e-15
3.27398
-3.23352e-15
3.27398
-2.83107e-15
3.27398
-2.48412e-15
3.27398
-2.10942e-15
3.27398
-1.84575e-15
3.27398
-1.76248e-15
3.27398
-1.67921e-15
3.27398
-1.65146e-15
3.27398
-1.72085e-15
3.27398
-1.94289e-15
3.27398
-2.20657e-15
3.27398
-2.53964e-15
3.27398
-2.67841e-15
3.27398
-2.69229e-15
3.27398
-2.90046e-15
3.27398
-3.05311e-15
3.27398
-3.01148e-15
3.27398
-3.08087e-15
3.27398
-3.26128e-15
3.27398
-3.35842e-15
3.27398
-3.51108e-15
3.27398
-3.59435e-15
3.27398
-3.56659e-15
3.27398
-3.46945e-15
3.27398
-3.33067e-15
3.27398
-3.16414e-15
3.27398
-3.17801e-15
3.27398
-3.1225e-15
3.27398
-2.78944e-15
3.27398
-2.40086e-15
3.27398
-2.17881e-15
3.27398
-1.94289e-15
3.27398
-1.70697e-15
3.27398
-1.45717e-15
3.27398
-1.29063e-15
3.27398
-1.33227e-15
3.27398
-1.30451e-15
3.27398
-1.33227e-15
3.27398
-1.42941e-15
3.27398
-1.3739e-15
3.27398
-1.48492e-15
3.27398
-1.6237e-15
3.27398
-1.69309e-15
3.27398
-1.63758e-15
3.27398
-1.54043e-15
3.27398
-1.56819e-15
3.27398
-1.76248e-15
3.27398
-1.81799e-15
3.27398
-1.77636e-15
3.27398
-1.77636e-15
3.27398
-1.72085e-15
3.27398
-1.65146e-15
3.27398
-1.67921e-15
3.27398
-1.92901e-15
3.27398
-2.28983e-15
3.27398
-2.42861e-15
3.27398
-2.28983e-15
3.27398
-2.04003e-15
3.27398
-1.91513e-15
3.27398
-1.8735e-15
3.27398
-1.85962e-15
3.27398
-1.88738e-15
3.27398
-1.92901e-15
3.27398
-1.88738e-15
3.27398
-1.95677e-15
3.27398
-2.13718e-15
3.27398
-2.23432e-15
3.27398
-2.17881e-15
3.27398
-2.16493e-15
3.27398
-2.17881e-15
3.27398
-2.30371e-15
3.27398
-2.60902e-15
3.27398
-2.73392e-15
3.27398
-2.60902e-15
3.27398
-2.47025e-15
3.27398
-2.40086e-15
3.27398
-2.3731e-15
3.27398
-2.33147e-15
3.27398
-2.34535e-15
3.27398
-2.31759e-15
3.27398
-2.31759e-15
3.27398
-2.3731e-15
3.27398
-2.40086e-15
3.27398
-2.41474e-15
3.27398
-2.44249e-15
3.27398
-2.3731e-15
3.27398
-2.23432e-15
3.27398
-1.80411e-15
3.27398
-1.11022e-15
3.27398
-2.91434e-16
3.27398
5.82867e-16
3.27398
1.98452e-15
3.27398
4.3715e-15
3.27398
8.28504e-15
3.27398
1.47243e-14
3.27398
2.50355e-14
3.27398
4.17999e-14
3.27398
6.91947e-14
3.27398
1.14256e-13
3.27398
1.881e-13
3.27398
3.09003e-13
3.27398
5.074e-13
3.27398
8.3282e-13
3.27398
1.36666e-12
3.27398
2.24221e-12
3.27398
3.67845e-12
3.27398
6.03415e-12
3.27398
9.89815e-12
3.27398
1.62362e-11
3.27398
2.66321e-11
3.27398
4.36838e-11
3.27398
7.16514e-11
3.27398
1.17522e-10
3.27398
1.92751e-10
3.27398
3.16123e-10
3.27398
5.18433e-10
3.27398
8.5016e-10
3.27398
1.39404e-09
3.27398
2.28564e-09
3.27398
3.74709e-09
3.27398
6.1422e-09
3.27398
1.00668e-08
3.27398
1.64963e-08
3.27398
2.70271e-08
3.27398
4.42711e-08
3.27398
7.25e-08
3.27398
1.18697e-07
3.27398
1.94273e-07
3.27398
3.17864e-07
3.27398
5.1989e-07
3.27398
8.49975e-07
3.27398
1.38902e-06
3.27398
2.26879e-06
3.27398
3.70381e-06
3.27398
6.04289e-06
3.27398
9.85283e-06
3.27399
1.60536e-05
3.274
2.61368e-05
3.27401
4.25182e-05
3.27403
6.91057e-05
3.27406
0.000112214
3.27412
0.000182036
3.27422
0.00029501
3.2744
0.000477625
3.2747
0.000772605
3.27522
0.00124881
3.2761
0.00201786
3.27763
0.00326017
3.28027
0.00527403
3.28486
0.00853679
0.0138958
3.29287
3.27398
8.32667e-17
3.27398
1.80411e-16
3.27398
2.91434e-16
3.27398
4.02456e-16
3.27398
4.02456e-16
3.27398
3.05311e-16
3.27398
1.80411e-16
3.27398
5.55112e-17
3.27398
1.11022e-16
3.27398
2.63678e-16
3.27398
4.30211e-16
3.27398
4.85723e-16
3.27398
4.44089e-16
3.27398
4.30211e-16
3.27398
4.57967e-16
3.27398
4.16334e-16
3.27398
2.77556e-16
3.27398
1.66533e-16
3.27398
2.77556e-16
3.27398
4.02456e-16
3.27398
3.747e-16
3.27398
4.02456e-16
3.27398
4.02456e-16
3.27398
4.57967e-16
3.27398
4.30211e-16
3.27398
2.498e-16
3.27398
-1.38778e-17
3.27398
-1.66533e-16
3.27398
-1.80411e-16
3.27398
-1.94289e-16
3.27398
-3.46945e-16
3.27398
-4.996e-16
3.27398
-7.21645e-16
3.27398
-8.18789e-16
3.27398
-7.63278e-16
3.27398
-4.996e-16
3.27398
-3.33067e-16
3.27398
-3.33067e-16
3.27398
-4.02456e-16
3.27398
-4.85723e-16
3.27398
-6.66134e-16
3.27398
-1.04083e-15
3.27398
-1.36002e-15
3.27398
-1.54043e-15
3.27398
-1.6237e-15
3.27398
-1.70697e-15
3.27398
-1.80411e-15
3.27398
-1.83187e-15
3.27398
-1.76248e-15
3.27398
-1.66533e-15
3.27398
-1.48492e-15
3.27398
-1.38778e-15
3.27398
-1.40166e-15
3.27398
-1.45717e-15
3.27398
-1.47105e-15
3.27398
-1.3739e-15
3.27398
-1.31839e-15
3.27398
-1.13798e-15
3.27398
-8.46545e-16
3.27398
-8.74301e-16
3.27398
-1.15186e-15
3.27398
-1.33227e-15
3.27398
-1.55431e-15
3.27398
-1.69309e-15
3.27398
-1.69309e-15
3.27398
-1.54043e-15
3.27398
-1.42941e-15
3.27398
-1.26288e-15
3.27398
-1.04083e-15
3.27398
-9.85323e-16
3.27398
-9.71445e-16
3.27398
-9.4369e-16
3.27398
-8.60423e-16
3.27398
-8.18789e-16
3.27398
-8.74301e-16
3.27398
-1.04083e-15
3.27398
-1.15186e-15
3.27398
-1.13798e-15
3.27398
-9.99201e-16
3.27398
-8.74301e-16
3.27398
-7.77156e-16
3.27398
-8.88178e-16
3.27398
-1.01308e-15
3.27398
-1.17961e-15
3.27398
-1.26288e-15
3.27398
-1.38778e-15
3.27398
-1.38778e-15
3.27398
-1.22125e-15
3.27398
-1.19349e-15
3.27398
-1.45717e-15
3.27398
-1.7486e-15
3.27398
-1.94289e-15
3.27398
-2.05391e-15
3.27398
-1.97065e-15
3.27398
-2.01228e-15
3.27398
-2.15106e-15
3.27398
-2.30371e-15
3.27398
-2.20657e-15
3.27398
-2.15106e-15
3.27398
-2.1233e-15
3.27398
-1.9984e-15
3.27398
-1.92901e-15
3.27398
-1.97065e-15
3.27398
-1.92901e-15
3.27398
-1.85962e-15
3.27398
-1.76248e-15
3.27398
-1.73472e-15
3.27398
-1.80411e-15
3.27398
-1.98452e-15
3.27398
-2.05391e-15
3.27398
-2.02616e-15
3.27398
-1.8735e-15
3.27398
-1.72085e-15
3.27398
-1.48492e-15
3.27398
-1.36002e-15
3.27398
-1.33227e-15
3.27398
-1.23512e-15
3.27398
-1.27676e-15
3.27398
-1.3739e-15
3.27398
-1.47105e-15
3.27398
-1.40166e-15
3.27398
-1.13798e-15
3.27398
-9.29812e-16
3.27398
-9.99201e-16
3.27398
-1.20737e-15
3.27398
-1.48492e-15
3.27398
-1.85962e-15
3.27398
-2.04003e-15
3.27398
-2.22045e-15
3.27398
-2.44249e-15
3.27398
-2.66454e-15
3.27398
-2.95597e-15
3.27398
-3.23352e-15
3.27398
-3.34455e-15
3.27398
-3.27516e-15
3.27398
-3.20577e-15
3.27398
-3.21965e-15
3.27398
-3.03924e-15
3.27398
-2.69229e-15
3.27398
-2.63678e-15
3.27398
-2.67841e-15
3.27398
-2.60902e-15
3.27398
-2.498e-15
3.27398
-2.59515e-15
3.27398
-2.90046e-15
3.27398
-3.27516e-15
3.27398
-3.66374e-15
3.27398
-3.46945e-15
3.27398
-3.10862e-15
3.27398
-2.78944e-15
3.27398
-2.3731e-15
3.27398
-2.04003e-15
3.27398
-2.13718e-15
3.27398
-2.31759e-15
3.27398
-2.35922e-15
3.27398
-2.30371e-15
3.27398
-2.15106e-15
3.27398
-2.10942e-15
3.27398
-2.26208e-15
3.27398
-2.52576e-15
3.27398
-2.91434e-15
3.27398
-3.35842e-15
3.27398
-3.71925e-15
3.27398
-3.80251e-15
3.27398
-3.69149e-15
3.27398
-3.48332e-15
3.27398
-3.17801e-15
3.27398
-2.83107e-15
3.27398
-2.72005e-15
3.27398
-2.41474e-15
3.27398
-2.02616e-15
3.27398
-1.59595e-15
3.27398
-1.29063e-15
3.27398
-1.06859e-15
3.27398
-1.17961e-15
3.27398
-1.36002e-15
3.27398
-1.55431e-15
3.27398
-1.81799e-15
3.27398
-1.8735e-15
3.27398
-1.80411e-15
3.27398
-1.70697e-15
3.27398
-1.59595e-15
3.27398
-1.59595e-15
3.27398
-1.77636e-15
3.27398
-1.81799e-15
3.27398
-1.6237e-15
3.27398
-1.56819e-15
3.27398
-1.65146e-15
3.27398
-1.88738e-15
3.27398
-2.06779e-15
3.27398
-2.10942e-15
3.27398
-2.17881e-15
3.27398
-2.31759e-15
3.27398
-2.2482e-15
3.27398
-2.22045e-15
3.27398
-2.30371e-15
3.27398
-2.51188e-15
3.27398
-2.53964e-15
3.27398
-2.35922e-15
3.27398
-2.28983e-15
3.27398
-2.16493e-15
3.27398
-2.06779e-15
3.27398
-2.09555e-15
3.27398
-2.1233e-15
3.27398
-2.15106e-15
3.27398
-2.09555e-15
3.27398
-2.19269e-15
3.27398
-2.33147e-15
3.27398
-2.45637e-15
3.27398