/*--------------------------------*- C++ -*----------------------------------*\
| =========                 |                                                 |
| \\      /  F ield         | OpenFOAM: The Open Source CFD Toolbox           |
|  \\    /   O peration     | Version:  2412                                  |
|   \\  /    A nd           | Website:  www.openfoam.com                      |
|    \\/     M anipulation  |                                                 |
\*---------------------------------------------------------------------------*/
FoamFile
{
    version     2.0;
    format      ascii;
    arch        "LSB;label=32;scalar=64";
    class       surfaceScalarField;
    location    "0.003";
    object      phi_0;
}
// * * * * * * * * * * * * * * * * * * * * * * * * * * * * * * * * * * * * * //

dimensions      [1 0 -1 0 0 0 0];

oriented        oriented;

internalField   nonuniform List<scalar> 
359100
(
3.27398
4.16334e-17
3.27398
6.93889e-17
3.27398
2.77556e-17
3.27398
1.38778e-17
3.27398
4.16334e-17
3.27398
1.38778e-17
3.27398
-2.35922e-16
3.27398
-4.57967e-16
3.27398
-5.96745e-16
3.27398
-5.96745e-16
3.27398
-5.27356e-16
3.27398
-5.55112e-16
3.27398
-8.60423e-16
3.27398
-1.249e-15
3.27398
-1.45717e-15
3.27398
-1.34615e-15
3.27398
-1.249e-15
3.27398
-1.27676e-15
3.27398
-1.36002e-15
3.27398
-1.42941e-15
3.27398
-1.4988e-15
3.27398
-1.45717e-15
3.27398
-1.31839e-15
3.27398
-1.16573e-15
3.27398
-9.4369e-16
3.27398
-7.63278e-16
3.27398
-8.04912e-16
3.27398
-1.11022e-15
3.27398
-1.31839e-15
3.27398
-1.34615e-15
3.27398
-1.17961e-15
3.27398
-1.08247e-15
3.27398
-9.71445e-16
3.27398
-9.4369e-16
3.27398
-9.02056e-16
3.27398
-7.91034e-16
3.27398
-8.18789e-16
3.27398
-9.99201e-16
3.27398
-1.1241e-15
3.27398
-1.11022e-15
3.27398
-1.01308e-15
3.27398
-9.15934e-16
3.27398
-8.46545e-16
3.27398
-9.99201e-16
3.27398
-1.23512e-15
3.27398
-1.41553e-15
3.27398
-1.42941e-15
3.27398
-1.38778e-15
3.27398
-1.29063e-15
3.27398
-1.23512e-15
3.27398
-1.1241e-15
3.27398
-1.1241e-15
3.27398
-1.29063e-15
3.27398
-1.47105e-15
3.27398
-1.63758e-15
3.27398
-1.67921e-15
3.27398
-1.67921e-15
3.27398
-1.76248e-15
3.27398
-1.85962e-15
3.27398
-1.92901e-15
3.27398
-1.85962e-15
3.27398
-1.60982e-15
3.27398
-1.249e-15
3.27398
-9.71445e-16
3.27398
-7.77156e-16
3.27398
-6.93889e-16
3.27398
-6.52256e-16
3.27398
-7.91034e-16
3.27398
-1.249e-15
3.27398
-1.76248e-15
3.27398
-2.09555e-15
3.27398
-2.01228e-15
3.27398
-1.7486e-15
3.27398
-1.70697e-15
3.27398
-1.91513e-15
3.27398
-2.17881e-15
3.27398
-2.23432e-15
3.27398
-2.22045e-15
3.27398
-2.26208e-15
3.27398
-2.44249e-15
3.27398
-2.69229e-15
3.27398
-2.60902e-15
3.27398
-2.31759e-15
3.27398
-2.1233e-15
3.27398
-1.9984e-15
3.27398
-1.80411e-15
3.27398
-1.51268e-15
3.27398
-1.13798e-15
3.27398
-9.99201e-16
3.27398
-1.04083e-15
3.27398
-1.16573e-15
3.27398
-1.22125e-15
3.27398
-1.36002e-15
3.27398
-1.52656e-15
3.27398
-1.65146e-15
3.27398
-1.80411e-15
3.27398
-1.88738e-15
3.27398
-1.92901e-15
3.27398
-2.1233e-15
3.27398
-2.2482e-15
3.27398
-2.23432e-15
3.27398
-2.34535e-15
3.27398
-2.41474e-15
3.27398
-2.47025e-15
3.27398
-2.47025e-15
3.27398
-2.3731e-15
3.27398
-2.31759e-15
3.27398
-2.13718e-15
3.27398
-1.92901e-15
3.27398
-1.7486e-15
3.27398
-1.72085e-15
3.27398
-1.83187e-15
3.27398
-2.04003e-15
3.27398
-2.33147e-15
3.27398
-2.56739e-15
3.27398
-2.63678e-15
3.27398
-2.2482e-15
3.27398
-1.6237e-15
3.27398
-1.20737e-15
3.27398
-1.13798e-15
3.27398
-1.23512e-15
3.27398
-1.249e-15
3.27398
-1.29063e-15
3.27398
-1.38778e-15
3.27398
-1.70697e-15
3.27398
-1.92901e-15
3.27398
-1.9984e-15
3.27398
-2.13718e-15
3.27398
-2.28983e-15
3.27398
-2.35922e-15
3.27398
-2.47025e-15
3.27398
-2.7478e-15
3.27398
-2.92821e-15
3.27398
-2.83107e-15
3.27398
-2.65066e-15
3.27398
-2.41474e-15
3.27398
-2.17881e-15
3.27398
-2.05391e-15
3.27398
-2.09555e-15
3.27398
-2.20657e-15
3.27398
-2.31759e-15
3.27398
-2.08167e-15
3.27398
-1.81799e-15
3.27398
-1.72085e-15
3.27398
-1.67921e-15
3.27398
-1.72085e-15
3.27398
-1.88738e-15
3.27398
-1.97065e-15
3.27398
-2.13718e-15
3.27398
-2.42861e-15
3.27398
-2.81719e-15
3.27398
-3.01148e-15
3.27398
-3.09475e-15
3.27398
-3.10862e-15
3.27398
-3.05311e-15
3.27398
-3.02536e-15
3.27398
-2.85882e-15
3.27398
-2.60902e-15
3.27398
-2.52576e-15
3.27398
-2.42861e-15
3.27398
-2.26208e-15
3.27398
-2.01228e-15
3.27398
-1.66533e-15
3.27398
-1.67921e-15
3.27398
-1.95677e-15
3.27398
-2.42861e-15
3.27398
-2.88658e-15
3.27398
-3.2474e-15
3.27398
-3.55271e-15
3.27398
-3.67761e-15
3.27398
-3.55271e-15
3.27398
-3.3723e-15
3.27398
-3.23352e-15
3.27398
-3.03924e-15
3.27398
-2.60902e-15
3.27398
-2.16493e-15
3.27398
-1.97065e-15
3.27398
-1.80411e-15
3.27398
-1.66533e-15
3.27398
-1.72085e-15
3.27398
-1.85962e-15
3.27398
-1.98452e-15
3.27398
-2.17881e-15
3.27398
-2.10942e-15
3.27398
-1.81799e-15
3.27398
-1.69309e-15
3.27398
-1.65146e-15
3.27398
-1.69309e-15
3.27398
-1.77636e-15
3.27398
-1.98452e-15
3.27398
-2.15106e-15
3.27398
-2.17881e-15
3.27398
-2.06779e-15
3.27398
-2.02616e-15
3.27398
-1.95677e-15
3.27398
-1.84575e-15
3.27398
-1.91513e-15
3.27398
-2.13718e-15
3.27398
-2.19269e-15
3.27398
-2.17881e-15
3.27398
-2.06779e-15
3.27398
-1.85962e-15
3.27398
-1.67921e-15
3.27398
-1.67921e-15
3.27398
-1.56819e-15
3.27398
-1.59595e-15
3.27398
-1.81799e-15
3.27398
-2.15106e-15
3.27398
-2.44249e-15
3.27398
-2.44249e-15
3.27398
-2.34535e-15
3.27398
-2.2482e-15
3.27398
-2.17881e-15
3.27398
-2.13718e-15
3.27398
-2.13718e-15
3.27398
-2.08167e-15
3.27398
-1.92901e-15
3.27398
-1.90126e-15
3.27398
-1.84575e-15
3.27398
-1.55431e-15
3.27398
-1.34615e-15
3.27398
-1.42941e-15
3.27398
-1.66533e-15
3.27398
-1.85962e-15
3.27398
-1.9984e-15
3.27398
-1.85962e-15
3.27398
-1.41553e-15
3.27398
-1.08247e-15
3.27398
-8.04912e-16
3.27398
-5.68989e-16
3.27398
-3.19189e-16
3.27398
-6.93889e-17
3.27398
-8.32667e-17
3.27398
-2.35922e-16
3.27398
-4.30211e-16
3.27398
-8.04912e-16
3.27398
-1.06859e-15
3.27398
-1.09635e-15
3.27398
-9.57567e-16
3.27398
-6.80012e-16
3.27398
-2.77556e-17
3.27398
9.29812e-16
3.27398
2.41474e-15
3.27398
4.8711e-15
3.27398
9.14546e-15
3.27398
1.6237e-14
3.27398
2.78527e-14
3.27398
4.68653e-14
3.27398
7.79793e-14
3.27398
1.29285e-13
3.27398
2.14023e-13
3.27398
3.54439e-13
3.27398
5.87752e-13
3.27398
9.75414e-13
3.27398
1.61937e-12
3.27398
2.68979e-12
3.27398
4.47022e-12
3.27398
7.43325e-12
3.27398
1.2367e-11
3.27398
2.05873e-11
3.27398
3.42923e-11
3.27398
5.71566e-11
3.27398
9.53289e-11
3.27398
1.59106e-10
3.27398
2.65747e-10
3.27398
4.44203e-10
3.27398
7.4309e-10
3.27398
1.24412e-09
3.27398
2.08479e-09
3.27398
3.49667e-09
3.27398
5.87027e-09
3.27398
9.86483e-09
3.27398
1.65946e-08
3.27398
2.79453e-08
3.27398
4.71124e-08
3.27398
7.95179e-08
3.27398
1.34375e-07
3.27398
2.2736e-07
3.27398
3.85192e-07
3.27398
6.53471e-07
3.27398
1.11015e-06
3.27398
1.88873e-06
3.27397
3.21818e-06
3.27397
5.49194e-06
3.27396
9.38733e-06
3.27394
1.60726e-05
3.27391
2.75669e-05
3.27387
4.7368e-05
3.27378
8.15507e-05
3.27364
0.000140695
3.2734
0.000243305
3.27298
0.000421866
3.27224
0.000733913
3.27096
0.0012819
3.26871
0.00225216
3.26472
0.00398545
3.25758
0.0071373
3.24463
0.0129511
3.22056
0.0240654
0.0453636
3.17519
3.27398
6.93889e-17
3.27398
2.77556e-17
3.27398
4.16334e-17
3.27398
8.32667e-17
3.27398
1.38778e-17
3.27398
-4.16334e-17
3.27398
-4.16334e-17
3.27398
-9.71445e-17
3.27398
-1.80411e-16
3.27398
-2.63678e-16
3.27398
-3.19189e-16
3.27398
-5.68989e-16
3.27398
-7.63278e-16
3.27398
-9.57567e-16
3.27398
-1.02696e-15
3.27398
-1.08247e-15
3.27398
-1.09635e-15
3.27398
-1.08247e-15
3.27398
-1.15186e-15
3.27398
-1.13798e-15
3.27398
-9.99201e-16
3.27398
-9.29812e-16
3.27398
-8.74301e-16
3.27398
-7.35523e-16
3.27398
-4.996e-16
3.27398
-4.71845e-16
3.27398
-6.10623e-16
3.27398
-8.32667e-16
3.27398
-1.1241e-15
3.27398
-1.15186e-15
3.27398
-1.01308e-15
3.27398
-9.02056e-16
3.27398
-7.91034e-16
3.27398
-6.66134e-16
3.27398
-5.82867e-16
3.27398
-5.27356e-16
3.27398
-4.85723e-16
3.27398
-4.57967e-16
3.27398
-5.68989e-16
3.27398
-6.80012e-16
3.27398
-7.21645e-16
3.27398
-7.07767e-16
3.27398
-7.35523e-16
3.27398
-9.02056e-16
3.27398
-1.17961e-15
3.27398
-1.45717e-15
3.27398
-1.69309e-15
3.27398
-1.80411e-15
3.27398
-1.90126e-15
3.27398
-1.90126e-15
3.27398
-1.97065e-15
3.27398
-2.05391e-15
3.27398
-2.10942e-15
3.27398
-2.23432e-15
3.27398
-2.27596e-15
3.27398
-2.17881e-15
3.27398
-2.01228e-15
3.27398
-1.92901e-15
3.27398
-1.81799e-15
3.27398
-1.65146e-15
3.27398
-1.51268e-15
3.27398
-1.30451e-15
3.27398
-1.15186e-15
3.27398
-1.15186e-15
3.27398
-1.13798e-15
3.27398
-1.05471e-15
3.27398
-9.99201e-16
3.27398
-1.06859e-15
3.27398
-1.19349e-15
3.27398
-1.20737e-15
3.27398
-1.33227e-15
3.27398
-1.4988e-15
3.27398
-1.76248e-15
3.27398
-1.83187e-15
3.27398
-1.80411e-15
3.27398
-1.59595e-15
3.27398
-1.56819e-15
3.27398
-1.73472e-15
3.27398
-1.92901e-15
3.27398
-2.10942e-15
3.27398
-2.10942e-15
3.27398
-1.88738e-15
3.27398
-1.65146e-15
3.27398
-1.40166e-15
3.27398
-1.27676e-15
3.27398
-1.23512e-15
3.27398
-1.29063e-15
3.27398
-1.48492e-15
3.27398
-1.6237e-15
3.27398
-1.72085e-15
3.27398
-1.81799e-15
3.27398
-1.95677e-15
3.27398
-2.08167e-15
3.27398
-2.08167e-15
3.27398
-2.15106e-15
3.27398
-2.30371e-15
3.27398
-2.498e-15
3.27398
-2.51188e-15
3.27398
-2.44249e-15
3.27398
-2.28983e-15
3.27398
-2.15106e-15
3.27398
-1.9984e-15
3.27398
-1.95677e-15
3.27398
-2.09555e-15
3.27398
-2.28983e-15
3.27398
-2.3731e-15
3.27398
-2.42861e-15
3.27398
-2.41474e-15
3.27398
-2.33147e-15
3.27398
-2.19269e-15
3.27398
-2.1233e-15
3.27398
-2.13718e-15
3.27398
-1.9984e-15
3.27398
-2.06779e-15
3.27398
-2.15106e-15
3.27398
-2.20657e-15
3.27398
-2.09555e-15
3.27398
-1.70697e-15
3.27398
-1.42941e-15
3.27398
-1.30451e-15
3.27398
-1.09635e-15
3.27398
-1.04083e-15
3.27398
-1.20737e-15
3.27398
-1.52656e-15
3.27398
-1.77636e-15
3.27398
-1.85962e-15
3.27398
-1.81799e-15
3.27398
-1.81799e-15
3.27398
-1.79023e-15
3.27398
-1.88738e-15
3.27398
-1.91513e-15
3.27398
-1.92901e-15
3.27398
-1.88738e-15
3.27398
-2.06779e-15
3.27398
-2.53964e-15
3.27398
-2.92821e-15
3.27398
-2.88658e-15
3.27398
-2.65066e-15
3.27398
-2.52576e-15
3.27398
-2.44249e-15
3.27398
-2.3731e-15
3.27398
-2.47025e-15
3.27398
-2.47025e-15
3.27398
-2.27596e-15
3.27398
-2.10942e-15
3.27398
-2.08167e-15
3.27398
-2.04003e-15
3.27398
-2.01228e-15
3.27398
-1.95677e-15
3.27398
-1.98452e-15
3.27398
-2.09555e-15
3.27398
-2.17881e-15
3.27398
-2.3731e-15
3.27398
-2.53964e-15
3.27398
-2.66454e-15
3.27398
-2.7478e-15
3.27398
-2.85882e-15
3.27398
-2.88658e-15
3.27398
-2.8727e-15
3.27398
-2.91434e-15
3.27398
-2.92821e-15
3.27398
-2.95597e-15
3.27398
-2.91434e-15
3.27398
-2.81719e-15
3.27398
-2.83107e-15
3.27398
-2.7478e-15
3.27398
-2.53964e-15
3.27398
-2.45637e-15
3.27398
-2.34535e-15
3.27398
-2.26208e-15
3.27398
-2.2482e-15
3.27398
-2.35922e-15
3.27398
-2.45637e-15
3.27398
-2.33147e-15
3.27398
-2.10942e-15
3.27398
-1.94289e-15
3.27398
-1.84575e-15
3.27398
-1.95677e-15
3.27398
-2.15106e-15
3.27398
-2.17881e-15
3.27398
-2.2482e-15
3.27398
-2.31759e-15
3.27398
-2.53964e-15
3.27398
-2.7478e-15
3.27398
-2.80331e-15
3.27398
-2.88658e-15
3.27398
-2.95597e-15
3.27398
-2.90046e-15
3.27398
-2.80331e-15
3.27398
-2.498e-15
3.27398
-2.30371e-15
3.27398
-2.13718e-15
3.27398
-2.01228e-15
3.27398
-1.69309e-15
3.27398
-1.09635e-15
3.27398
-7.63278e-16
3.27398
-8.46545e-16
3.27398
-9.99201e-16
3.27398
-1.19349e-15
3.27398
-1.30451e-15
3.27398
-1.249e-15
3.27398
-1.01308e-15
3.27398
-9.02056e-16
3.27398
-9.15934e-16
3.27398
-1.09635e-15
3.27398
-1.44329e-15
3.27398
-1.88738e-15
3.27398
-2.23432e-15
3.27398
-2.44249e-15
3.27398
-2.53964e-15
3.27398
-2.40086e-15
3.27398
-2.48412e-15
3.27398
-2.69229e-15
3.27398
-2.78944e-15
3.27398
-2.66454e-15
3.27398
-2.58127e-15
3.27398
-2.6229e-15
3.27398
-2.60902e-15
3.27398
-2.56739e-15
3.27398
-2.45637e-15
3.27398
-2.40086e-15
3.27398
-2.35922e-15
3.27398
-2.3731e-15
3.27398
-2.45637e-15
3.27398
-2.47025e-15
3.27398
-2.42861e-15
3.27398
-2.1233e-15
3.27398
-1.65146e-15
3.27398
-1.20737e-15
3.27398
-7.63278e-16
3.27398
-3.747e-16
3.27398
-8.32667e-17
3.27398
1.52656e-16
3.27398
2.22045e-16
3.27398
1.52656e-16
3.27398
8.32667e-17
3.27398
6.93889e-17
3.27398
8.32667e-17
3.27398
3.88578e-16
3.27398
1.06859e-15
3.27398
2.10942e-15
3.27398
3.6221e-15
3.27398
5.9952e-15
3.27398
1.02696e-14
3.27398
1.76387e-14
3.27398
3.00454e-14
3.27398
5.0418e-14
3.27398
8.39051e-14
3.27398
1.39e-13
3.27398
2.29955e-13
3.27398
3.80404e-13
3.27398
6.29538e-13
3.27398
1.04196e-12
3.27398
1.72468e-12
3.27398
2.85491e-12
3.27398
4.72682e-12
3.27398
7.8276e-12
3.27398
1.29659e-11
3.27398
2.14842e-11
3.27398
3.56111e-11
3.27398
5.90488e-11
3.27398
9.79491e-11
3.27398
1.6254e-10
3.27398
2.69832e-10
3.27398
4.48133e-10
3.27398
7.44565e-10
3.27398
1.23761e-09
3.27398
2.05806e-09
3.27398
3.42392e-09
3.27398
5.69883e-09
3.27398
9.48958e-09
3.27398
1.58092e-08
3.27398
2.63497e-08
3.27398
4.39389e-08
3.27398
7.33041e-08
3.27398
1.22353e-07
3.27398
2.0432e-07
3.27398
3.41363e-07
3.27398
5.70596e-07
3.27398
9.54218e-07
3.27398
1.59651e-06
3.27398
2.67236e-06
3.27398
4.47524e-06
3.27397
7.49775e-06
3.27397
1.25671e-05
3.27397
2.1073e-05
3.27396
3.53507e-05
3.27395
5.93274e-05
3.27393
9.96102e-05
3.2739
0.000167326
3.27386
0.000281235
3.27381
0.000473037
3.27375
0.000796449
3.27369
0.00134299
3.27367
0.00226956
3.27381
0.00384868
3.27438
0.00655774
3.27607
0.0112579
3.28067
0.0194671
0.0340885
3.29194
3.27398
-1.38778e-16
3.27398
-1.94289e-16
3.27398
-2.498e-16
3.27398
-2.77556e-16
3.27398
-2.08167e-16
3.27398
-1.11022e-16
3.27398
2.77556e-17
3.27398
-1.38778e-17
3.27398
-2.35922e-16
3.27398
-3.33067e-16
3.27398
-4.02456e-16
3.27398
-3.60822e-16
3.27398
-2.63678e-16
3.27398
-2.91434e-16
3.27398
-4.16334e-16
3.27398
-5.27356e-16
3.27398
-6.93889e-16
3.27398
-8.46545e-16
3.27398
-9.29812e-16
3.27398
-9.57567e-16
3.27398
-9.29812e-16
3.27398
-7.91034e-16
3.27398
-7.07767e-16
3.27398
-6.38378e-16
3.27398
-6.93889e-16
3.27398
-7.35523e-16
3.27398
-8.18789e-16
3.27398
-8.88178e-16
3.27398
-8.04912e-16
3.27398
-7.63278e-16
3.27398
-7.91034e-16
3.27398
-7.91034e-16
3.27398
-7.91034e-16
3.27398
-8.18789e-16
3.27398
-8.74301e-16
3.27398
-9.29812e-16
3.27398
-1.06859e-15
3.27398
-1.20737e-15
3.27398
-1.20737e-15
3.27398
-1.01308e-15
3.27398
-9.15934e-16
3.27398
-9.29812e-16
3.27398
-9.99201e-16
3.27398
-1.01308e-15
3.27398
-1.15186e-15
3.27398
-1.44329e-15
3.27398
-1.67921e-15
3.27398
-1.7486e-15
3.27398
-1.66533e-15
3.27398
-1.55431e-15
3.27398
-1.42941e-15
3.27398
-1.33227e-15
3.27398
-1.249e-15
3.27398
-1.1241e-15
3.27398
-1.05471e-15
3.27398
-1.05471e-15
3.27398
-1.15186e-15
3.27398
-1.23512e-15
3.27398
-1.20737e-15
3.27398
-1.09635e-15
3.27398
-1.08247e-15
3.27398
-1.1241e-15
3.27398
-1.16573e-15
3.27398
-1.249e-15
3.27398
-1.36002e-15
3.27398
-1.45717e-15
3.27398
-1.51268e-15
3.27398
-1.45717e-15
3.27398
-1.33227e-15
3.27398
-1.40166e-15
3.27398
-1.47105e-15
3.27398
-1.73472e-15
3.27398
-1.91513e-15
3.27398
-1.94289e-15
3.27398
-1.73472e-15
3.27398
-1.38778e-15
3.27398
-1.13798e-15
3.27398
-1.13798e-15
3.27398
-1.27676e-15
3.27398
-1.34615e-15
3.27398
-1.51268e-15
3.27398
-1.63758e-15
3.27398
-1.66533e-15
3.27398
-1.55431e-15
3.27398
-1.45717e-15
3.27398
-1.47105e-15
3.27398
-1.60982e-15
3.27398
-1.73472e-15
3.27398
-1.81799e-15
3.27398
-1.84575e-15
3.27398
-1.80411e-15
3.27398
-1.80411e-15
3.27398
-1.77636e-15
3.27398
-1.90126e-15
3.27398
-2.10942e-15
3.27398
-2.30371e-15
3.27398
-2.31759e-15
3.27398
-2.30371e-15
3.27398
-2.17881e-15
3.27398
-2.1233e-15
3.27398
-2.13718e-15
3.27398
-2.15106e-15
3.27398
-2.02616e-15
3.27398
-1.88738e-15
3.27398
-1.84575e-15
3.27398
-1.97065e-15
3.27398
-1.92901e-15
3.27398
-1.8735e-15
3.27398
-1.80411e-15
3.27398
-1.77636e-15
3.27398
-1.90126e-15
3.27398
-1.98452e-15
3.27398
-2.09555e-15
3.27398
-2.02616e-15
3.27398
-2.05391e-15
3.27398
-2.10942e-15
3.27398
-2.3731e-15
3.27398
-2.65066e-15
3.27398
-2.63678e-15
3.27398
-2.51188e-15
3.27398
-2.48412e-15
3.27398
-2.48412e-15
3.27398
-2.498e-15
3.27398
-2.3731e-15
3.27398
-2.30371e-15
3.27398
-2.31759e-15
3.27398
-2.31759e-15
3.27398
-2.1233e-15
3.27398
-1.80411e-15
3.27398
-1.40166e-15
3.27398
-1.15186e-15
3.27398
-7.91034e-16
3.27398
-6.80012e-16
3.27398
-1.11022e-15
3.27398
-1.76248e-15
3.27398
-2.26208e-15
3.27398
-2.55351e-15
3.27398
-2.81719e-15
3.27398
-2.92821e-15
3.27398
-2.85882e-15
3.27398
-2.80331e-15
3.27398
-2.88658e-15
3.27398
-3.01148e-15
3.27398
-2.92821e-15
3.27398
-2.8727e-15
3.27398
-2.70617e-15
3.27398
-2.66454e-15
3.27398
-2.59515e-15
3.27398
-2.3731e-15
3.27398
-2.09555e-15
3.27398
-1.90126e-15
3.27398
-1.70697e-15
3.27398
-1.59595e-15
3.27398
-1.54043e-15
3.27398
-1.52656e-15
3.27398
-1.59595e-15
3.27398
-1.70697e-15
3.27398
-1.90126e-15
3.27398
-2.17881e-15
3.27398
-2.3731e-15
3.27398
-2.40086e-15
3.27398
-2.59515e-15
3.27398
-2.92821e-15
3.27398
-3.08087e-15
3.27398
-3.03924e-15
3.27398
-2.90046e-15
3.27398
-2.72005e-15
3.27398
-2.44249e-15
3.27398
-2.28983e-15
3.27398
-2.35922e-15
3.27398
-2.58127e-15
3.27398
-2.78944e-15
3.27398
-3.05311e-15
3.27398
-3.38618e-15
3.27398
-3.52496e-15
3.27398
-3.28904e-15
3.27398
-3.06699e-15
3.27398
-2.88658e-15
3.27398
-2.55351e-15
3.27398
-2.16493e-15
3.27398
-1.95677e-15
3.27398
-1.95677e-15
3.27398
-1.98452e-15
3.27398
-2.02616e-15
3.27398
-2.19269e-15
3.27398
-2.34535e-15
3.27398
-2.27596e-15
3.27398
-2.13718e-15
3.27398
-1.94289e-15
3.27398
-1.63758e-15
3.27398
-1.23512e-15
3.27398
-1.06859e-15
3.27398
-9.99201e-16
3.27398
-9.99201e-16
3.27398
-1.08247e-15
3.27398
-1.23512e-15
3.27398
-1.26288e-15
3.27398
-1.31839e-15
3.27398
-1.42941e-15
3.27398
-1.3739e-15
3.27398
-1.20737e-15
3.27398
-1.29063e-15
3.27398
-1.45717e-15
3.27398
-1.55431e-15
3.27398
-1.54043e-15
3.27398
-1.48492e-15
3.27398
-1.42941e-15
3.27398
-1.47105e-15
3.27398
-1.60982e-15
3.27398
-1.84575e-15
3.27398
-2.17881e-15
3.27398
-2.33147e-15
3.27398
-2.35922e-15
3.27398
-2.52576e-15
3.27398
-2.72005e-15
3.27398
-2.83107e-15
3.27398
-2.88658e-15
3.27398
-2.98372e-15
3.27398
-2.9976e-15
3.27398
-2.91434e-15
3.27398
-2.69229e-15
3.27398
-2.53964e-15
3.27398
-2.60902e-15
3.27398
-2.7478e-15
3.27398
-2.92821e-15
3.27398
-2.92821e-15
3.27398
-2.94209e-15
3.27398
-3.03924e-15
3.27398
-2.92821e-15
3.27398
-2.66454e-15
3.27398
-2.47025e-15
3.27398
-2.35922e-15
3.27398
-2.13718e-15
3.27398
-1.76248e-15
3.27398
-1.27676e-15
3.27398
-7.77156e-16
3.27398
-4.71845e-16
3.27398
-9.71445e-17
3.27398
6.245e-16
3.27398
1.60982e-15
3.27398
2.94209e-15
3.27398
5.20417e-15
3.27398
8.88178e-15
3.27398
1.46688e-14
3.27398
2.40225e-14
3.27398
3.93574e-14
3.27398
6.46982e-14
3.27398
1.06568e-13
3.27398
1.75748e-13
3.27398
2.90032e-13
3.27398
4.78478e-13
3.27398
7.89008e-13
3.27398
1.30068e-12
3.27398
2.14405e-12
3.27398
3.53409e-12
3.27398
5.82535e-12
3.27398
9.60276e-12
3.27398
1.58317e-11
3.27398
2.6105e-11
3.27398
4.30512e-11
3.27398
7.10094e-11
3.27398
1.17143e-10
3.27398
1.9328e-10
3.27398
3.18954e-10
3.27398
5.26424e-10
3.27398
8.6898e-10
3.27398
1.43466e-09
3.27398
2.36889e-09
3.27398
3.91202e-09
3.27398
6.46115e-09
3.27398
1.06725e-08
3.27398
1.76307e-08
3.27398
2.9128e-08
3.27398
4.81264e-08
3.27398
7.95207e-08
3.27398
1.314e-07
3.27398
2.17128e-07
3.27398
3.58784e-07
3.27398
5.92839e-07
3.27398
9.79518e-07
3.27398
1.61825e-06
3.27398
2.67314e-06
3.27398
4.41492e-06
3.27398
7.29002e-06
3.27398
1.20342e-05
3.27398
1.98596e-05
3.27398
3.27614e-05
3.27399
5.4022e-05
3.274
8.90372e-05
3.27402
0.000146673
3.27406
0.000241487
3.27414
0.000397389
3.27428
0.000653646
3.27455
0.00107489
3.27505
0.00176766
3.27599
0.00290902
3.27775
0.00479333
3.28108
0.00792276
3.28742
0.0131279
0.0219282
3.29957
3.27398
1.38778e-17
3.27398
-1.38778e-17
3.27398
4.16334e-17
3.27398
6.93889e-17
3.27398
6.93889e-17
3.27398
1.52656e-16
3.27398
2.35922e-16
3.27398
2.77556e-16
3.27398
2.22045e-16
3.27398
1.94289e-16
3.27398
2.08167e-16
3.27398
3.05311e-16
3.27398
4.71845e-16
3.27398
6.66134e-16
3.27398
6.93889e-16
3.27398
6.66134e-16
3.27398
5.68989e-16
3.27398
4.44089e-16
3.27398
3.05311e-16
3.27398
2.22045e-16
3.27398
2.22045e-16
3.27398
1.66533e-16
3.27398
2.22045e-16
3.27398
6.93889e-17
3.27398
-1.94289e-16
3.27398
-3.88578e-16
3.27398
-4.71845e-16
3.27398
-5.27356e-16
3.27398
-5.96745e-16
3.27398
-7.21645e-16
3.27398
-8.04912e-16
3.27398
-8.46545e-16
3.27398
-9.15934e-16
3.27398
-8.32667e-16
3.27398
-8.04912e-16
3.27398
-9.15934e-16
3.27398
-1.08247e-15
3.27398
-1.30451e-15
3.27398
-1.45717e-15
3.27398
-1.60982e-15
3.27398
-1.69309e-15
3.27398
-1.7486e-15
3.27398
-1.76248e-15
3.27398
-1.70697e-15
3.27398
-1.7486e-15
3.27398
-1.76248e-15
3.27398
-1.67921e-15
3.27398
-1.47105e-15
3.27398
-1.22125e-15
3.27398
-9.71445e-16
3.27398
-9.99201e-16
3.27398
-1.13798e-15
3.27398
-1.17961e-15
3.27398
-1.20737e-15
3.27398
-1.17961e-15
3.27398
-1.34615e-15
3.27398
-1.48492e-15
3.27398
-1.4988e-15
3.27398
-1.58207e-15
3.27398
-1.63758e-15
3.27398
-1.6237e-15
3.27398
-1.54043e-15
3.27398
-1.4988e-15
3.27398
-1.56819e-15
3.27398
-1.59595e-15
3.27398
-1.55431e-15
3.27398
-1.41553e-15
3.27398
-1.3739e-15
3.27398
-1.48492e-15
3.27398
-1.58207e-15
3.27398
-1.70697e-15
3.27398
-1.60982e-15
3.27398
-1.48492e-15
3.27398
-1.52656e-15
3.27398
-1.63758e-15
3.27398
-1.7486e-15
3.27398
-1.73472e-15
3.27398
-1.65146e-15
3.27398
-1.59595e-15
3.27398
-1.52656e-15
3.27398
-1.42941e-15
3.27398
-1.44329e-15
3.27398
-1.51268e-15
3.27398
-1.52656e-15
3.27398
-1.40166e-15
3.27398
-1.1241e-15
3.27398
-9.71445e-16
3.27398
-9.85323e-16
3.27398
-8.88178e-16
3.27398
-7.77156e-16
3.27398
-8.04912e-16
3.27398
-9.57567e-16
3.27398
-1.13798e-15
3.27398
-1.42941e-15
3.27398
-1.84575e-15
3.27398
-2.10942e-15
3.27398
-2.20657e-15
3.27398
-2.26208e-15
3.27398
-2.22045e-15
3.27398
-2.10942e-15
3.27398
-2.02616e-15
3.27398
-1.97065e-15
3.27398
-1.88738e-15
3.27398
-1.8735e-15
3.27398
-1.73472e-15
3.27398
-1.67921e-15
3.27398
-1.81799e-15
3.27398
-1.97065e-15
3.27398
-1.91513e-15
3.27398
-1.92901e-15
3.27398
-1.97065e-15
3.27398
-1.98452e-15
3.27398
-1.8735e-15
3.27398
-1.77636e-15
3.27398
-1.66533e-15
3.27398
-1.60982e-15
3.27398
-1.67921e-15
3.27398
-1.85962e-15
3.27398
-1.95677e-15
3.27398
-2.01228e-15
3.27398
-2.05391e-15
3.27398
-2.05391e-15
3.27398
-1.9984e-15
3.27398
-1.98452e-15
3.27398
-1.95677e-15
3.27398
-1.9984e-15
3.27398
-2.04003e-15
3.27398
-2.1233e-15
3.27398
-2.06779e-15
3.27398
-1.85962e-15
3.27398
-1.7486e-15
3.27398
-1.8735e-15
3.27398
-2.16493e-15
3.27398
-2.33147e-15
3.27398
-2.40086e-15
3.27398
-2.60902e-15
3.27398
-2.84495e-15
3.27398
-2.94209e-15
3.27398
-2.9976e-15
3.27398
-3.05311e-15
3.27398
-3.05311e-15
3.27398
-3.09475e-15
3.27398
-3.19189e-15
3.27398
-3.42781e-15
3.27398
-3.53884e-15
3.27398
-3.53884e-15
3.27398
-3.51108e-15
3.27398
-3.52496e-15
3.27398
-3.30291e-15
3.27398
-2.94209e-15
3.27398
-2.55351e-15
3.27398
-2.27596e-15
3.27398
-1.9984e-15
3.27398
-1.80411e-15
3.27398
-1.70697e-15
3.27398
-1.59595e-15
3.27398
-1.6237e-15
3.27398
-1.76248e-15
3.27398
-2.01228e-15
3.27398
-2.2482e-15
3.27398
-2.498e-15
3.27398
-2.6229e-15
3.27398
-2.72005e-15
3.27398
-2.90046e-15
3.27398
-2.95597e-15
3.27398
-3.02536e-15
3.27398
-3.19189e-15
3.27398
-3.40006e-15
3.27398
-3.48332e-15
3.27398
-3.6221e-15
3.27398
-3.60822e-15
3.27398
-3.52496e-15
3.27398
-3.42781e-15
3.27398
-3.28904e-15
3.27398
-3.16414e-15
3.27398
-3.1225e-15
3.27398
-2.98372e-15
3.27398
-2.60902e-15
3.27398
-2.27596e-15
3.27398
-2.04003e-15
3.27398
-1.80411e-15
3.27398
-1.56819e-15
3.27398
-1.34615e-15
3.27398
-1.31839e-15
3.27398
-1.3739e-15
3.27398
-1.36002e-15
3.27398
-1.40166e-15
3.27398
-1.44329e-15
3.27398
-1.45717e-15
3.27398
-1.54043e-15
3.27398
-1.66533e-15
3.27398
-1.70697e-15
3.27398
-1.59595e-15
3.27398
-1.60982e-15
3.27398
-1.76248e-15
3.27398
-1.90126e-15
3.27398
-1.81799e-15
3.27398
-1.73472e-15
3.27398
-1.7486e-15
3.27398
-1.66533e-15
3.27398
-1.63758e-15
3.27398
-1.84575e-15
3.27398
-2.22045e-15
3.27398
-2.45637e-15
3.27398
-2.41474e-15
3.27398
-2.20657e-15
3.27398
-1.98452e-15
3.27398
-1.92901e-15
3.27398
-1.91513e-15
3.27398
-1.92901e-15
3.27398
-1.95677e-15
3.27398
-1.8735e-15
3.27398
-1.92901e-15
3.27398
-2.10942e-15
3.27398
-2.27596e-15
3.27398
-2.28983e-15
3.27398
-2.20657e-15
3.27398
-2.16493e-15
3.27398
-2.17881e-15
3.27398
-2.38698e-15
3.27398
-2.6229e-15
3.27398
-2.58127e-15
3.27398
-2.38698e-15
3.27398
-2.30371e-15
3.27398
-2.26208e-15
3.27398
-2.26208e-15
3.27398
-2.31759e-15
3.27398
-2.38698e-15
3.27398
-2.35922e-15
3.27398
-2.3731e-15
3.27398
-2.44249e-15
3.27398
-2.498e-15
3.27398
-2.45637e-15
3.27398
-2.40086e-15
3.27398
-2.26208e-15
3.27398
-2.02616e-15
3.27398
-1.51268e-15
3.27398
-8.60423e-16
3.27398
-2.35922e-16
3.27398
5.27356e-16
3.27398
1.92901e-15
3.27398
4.41314e-15
3.27398
8.42382e-15
3.27398
1.47798e-14
3.27398
2.49939e-14
3.27398
4.17305e-14
3.27398
6.9153e-14
3.27398
1.14159e-13
3.27398
1.87905e-13
3.27398
3.0885e-13
3.27398
5.07247e-13
3.27398
8.32667e-13
3.27398
1.36652e-12
3.27398
2.24201e-12
3.27398
3.67807e-12
3.27398
6.03352e-12
3.27398
9.89717e-12
3.27398
1.62346e-11
3.27398
2.66295e-11
3.27398
4.36795e-11
3.27398
7.16444e-11
3.27398
1.1751e-10
3.27398
1.92733e-10
3.27398
3.16094e-10
3.27398
5.18388e-10
3.27398
8.50089e-10
3.27398
1.39393e-09
3.27398
2.28546e-09
3.27398
3.7468e-09
3.27398
6.14175e-09
3.27398
1.00661e-08
3.27398
1.64951e-08
3.27398
2.70253e-08
3.27398
4.42682e-08
3.27398
7.24953e-08
3.27398
1.1869e-07
3.27398
1.94261e-07
3.27398
3.17845e-07
3.27398
5.1986e-07
3.27398
8.49928e-07
3.27398
1.38894e-06
3.27398
2.26867e-06
3.27398
3.70361e-06
3.27398
6.04259e-06
3.27398
9.85235e-06
3.27399
1.60528e-05
3.274
2.61355e-05
3.27401
4.25162e-05
3.27403
6.91026e-05
3.27406
0.000112209
3.27412
0.000182028
3.27422
0.000294997
3.2744
0.000477605
3.2747
0.000772573
3.27522
0.00124876
3.27611
0.00201778
3.27764
0.00326004
3.28029
0.00527382
3.28488
0.00853647
0.0138953
3.2929
3.27398
9.71445e-17
3.27398
2.08167e-16
3.27398
3.05311e-16
3.27398
3.747e-16
3.27398
3.33067e-16
3.27398
2.35922e-16
3.27398
1.249e-16
3.27398
6.93889e-17
3.27398
1.80411e-16
3.27398
3.05311e-16
3.27398
4.30211e-16
3.27398
4.44089e-16
3.27398
4.16334e-16
3.27398
4.57967e-16
3.27398
4.85723e-16
3.27398
3.60822e-16
3.27398
2.22045e-16
3.27398
2.35922e-16
3.27398
3.88578e-16
3.27398
4.44089e-16
3.27398
4.02456e-16
3.27398
4.57967e-16
3.27398
4.44089e-16
3.27398
4.30211e-16
3.27398
3.60822e-16
3.27398
2.08167e-16
3.27398
2.77556e-17
3.27398
-6.93889e-17
3.27398
-6.93889e-17
3.27398
-1.38778e-16
3.27398
-3.19189e-16
3.27398
-4.85723e-16
3.27398
-7.07767e-16
3.27398
-6.93889e-16
3.27398
-4.996e-16
3.27398
-3.05311e-16
3.27398
-2.77556e-16
3.27398
-3.19189e-16
3.27398
-4.71845e-16
3.27398
-6.66134e-16
3.27398
-9.29812e-16
3.27398
-1.23512e-15
3.27398
-1.45717e-15
3.27398
-1.6237e-15
3.27398
-1.67921e-15
3.27398
-1.69309e-15
3.27398
-1.69309e-15
3.27398
-1.65146e-15
3.27398
-1.54043e-15
3.27398
-1.45717e-15
3.27398
-1.3739e-15
3.27398
-1.3739e-15
3.27398
-1.42941e-15
3.27398
-1.4988e-15
3.27398
-1.4988e-15
3.27398
-1.42941e-15
3.27398
-1.22125e-15
3.27398
-9.29812e-16
3.27398
-8.32667e-16
3.27398
-1.02696e-15
3.27398
-1.27676e-15
3.27398
-1.48492e-15
3.27398
-1.69309e-15
3.27398
-1.66533e-15
3.27398
-1.56819e-15
3.27398
-1.40166e-15
3.27398
-1.31839e-15
3.27398
-1.17961e-15
3.27398
-1.04083e-15
3.27398
-1.11022e-15
3.27398
-1.11022e-15
3.27398
-9.85323e-16
3.27398
-9.02056e-16
3.27398
-9.4369e-16
3.27398
-1.06859e-15
3.27398
-1.20737e-15
3.27398
-1.19349e-15
3.27398
-1.04083e-15
3.27398
-8.74301e-16
3.27398
-7.77156e-16
3.27398
-8.32667e-16
3.27398
-1.02696e-15
3.27398
-1.13798e-15
3.27398
-1.23512e-15
3.27398
-1.27676e-15
3.27398
-1.3739e-15
3.27398
-1.29063e-15
3.27398
-1.20737e-15
3.27398
-1.34615e-15
3.27398
-1.65146e-15
3.27398
-1.88738e-15
3.27398
-2.01228e-15
3.27398
-2.05391e-15
3.27398
-2.01228e-15
3.27398
-2.06779e-15
3.27398
-2.15106e-15
3.27398
-2.1233e-15
3.27398
-1.9984e-15
3.27398
-1.9984e-15
3.27398
-1.9984e-15
3.27398
-1.90126e-15
3.27398
-1.88738e-15
3.27398
-1.88738e-15
3.27398
-1.83187e-15
3.27398
-1.77636e-15
3.27398
-1.70697e-15
3.27398
-1.76248e-15
3.27398
-1.94289e-15
3.27398
-2.09555e-15
3.27398
-2.08167e-15
3.27398
-1.95677e-15
3.27398
-1.77636e-15
3.27398
-1.59595e-15
3.27398
-1.40166e-15
3.27398
-1.33227e-15
3.27398
-1.34615e-15
3.27398
-1.33227e-15
3.27398
-1.30451e-15
3.27398
-1.36002e-15
3.27398
-1.34615e-15
3.27398
-1.11022e-15
3.27398
-9.29812e-16
3.27398
-9.57567e-16
3.27398
-1.17961e-15
3.27398
-1.48492e-15
3.27398
-1.81799e-15
3.27398
-2.09555e-15
3.27398
-2.23432e-15
3.27398
-2.498e-15
3.27398
-2.72005e-15
3.27398
-2.96985e-15
3.27398
-3.23352e-15
3.27398
-3.41394e-15
3.27398
-3.27516e-15
3.27398
-3.15026e-15
3.27398
-3.16414e-15
3.27398
-3.1225e-15
3.27398
-2.80331e-15
3.27398
-2.51188e-15
3.27398
-2.52576e-15
3.27398
-2.55351e-15
3.27398
-2.45637e-15
3.27398
-2.45637e-15
3.27398
-2.73392e-15
3.27398
-3.09475e-15
3.27398
-3.46945e-15
3.27398
-3.59435e-15
3.27398
-3.21965e-15
3.27398
-2.84495e-15
3.27398
-2.45637e-15
3.27398
-2.13718e-15
3.27398
-2.01228e-15
3.27398
-2.16493e-15
3.27398
-2.2482e-15
3.27398
-2.19269e-15
3.27398
-2.08167e-15
3.27398
-1.9984e-15
3.27398
-2.15106e-15
3.27398
-2.44249e-15
3.27398
-2.80331e-15
3.27398
-3.21965e-15
3.27398
-3.53884e-15
3.27398
-3.747e-15
3.27398
-3.66374e-15
3.27398
-3.42781e-15
3.27398
-3.17801e-15
3.27398
-2.8727e-15
3.27398
-2.6229e-15
3.27398
-2.51188e-15
3.27398
-2.10942e-15
3.27398
-1.70697e-15
3.27398
-1.36002e-15
3.27398
-1.15186e-15
3.27398
-1.06859e-15
3.27398
-1.36002e-15
3.27398
-1.55431e-15
3.27398
-1.67921e-15
3.27398
-1.83187e-15
3.27398
-1.79023e-15
3.27398
-1.73472e-15
3.27398
-1.66533e-15
3.27398
-1.59595e-15
3.27398
-1.7486e-15
3.27398
-1.92901e-15
3.27398
-1.83187e-15
3.27398
-1.63758e-15
3.27398
-1.72085e-15
3.27398
-1.84575e-15
3.27398
-2.05391e-15
3.27398
-2.23432e-15
3.27398
-2.28983e-15
3.27398
-2.27596e-15
3.27398
-2.27596e-15
3.27398
-2.23432e-15
3.27398
-2.31759e-15
3.27398
-2.42861e-15
3.27398
-2.56739e-15
3.27398
-2.498e-15
3.27398
-2.38698e-15
3.27398
-2.30371e-15
3.27398
-2.15106e-15
3.27398
-2.05391e-15
3.27398
-2.06779e-15
3.27398
-2.08167e-15
3.27398
-2.09555e-15
3.27398
-2.05391e-15
3.27398
-2.23432e-15
3.27398
-2.38698e-15
3.27398
-2.47025e-15