/*--------------------------------*- C++ -*----------------------------------*\
| =========                 |                                                 |
| \\      /  F ield         | OpenFOAM: The Open Source CFD Toolbox           |
|  \\    /   O peration     | Version:  2412                                  |
|   \\  /    A nd           | Website:  www.openfoam.com                      |
|    \\/     M anipulation  |                                                 |
\*---------------------------------------------------------------------------*/
FoamFile
{
    version     2.0;
    format      ascii;
    arch        "LSB;label=32;scalar=64";
    class       volVectorField;
    location    "0.003";
    object      U;
}
// * * * * * * * * * * * * * * * * * * * * * * * * * * * * * * * * * * * * * //

dimensions      [0 1 -1 0 0 0 0];

internalField   nonuniform List<vector> 
180000
(
(664 1.75539e-14 0)
(664 3.10802e-14 0)
(664 6.20471e-15 0)
(664 -1.79792e-14 0)
(664 -2.16215e-14 0)
(664 -1.72593e-14 0)
(664 -8.63966e-14 0)
(664 -2.15456e-13 0)
(664 -3.19736e-13 0)
(664 -3.44192e-13 0)
(664 -3.03071e-13 0)
(664 -2.51248e-13 0)
(664 -2.88452e-13 0)
(664 -4.41169e-13 0)
(664 -6.27506e-13 0)
(664 -6.91909e-13 0)
(664 -6.7875e-13 0)
(664 -6.51357e-13 0)
(664 -6.8396e-13 0)
(664 -7.55659e-13 0)
(664 -8.31075e-13 0)
(664 -8.48839e-13 0)
(664 -8.10628e-13 0)
(664 -7.6238e-13 0)
(664 -7.03235e-13 0)
(664 -6.33388e-13 0)
(664 -6.03024e-13 0)
(664 -6.72486e-13 0)
(664 -7.96636e-13 0)
(664 -8.46918e-13 0)
(664 -7.6921e-13 0)
(664 -6.57393e-13 0)
(664 -5.8869e-13 0)
(664 -5.64852e-13 0)
(664 -5.3938e-13 0)
(664 -4.77265e-13 0)
(664 -4.40984e-13 0)
(664 -5.08618e-13 0)
(664 -6.16926e-13 0)
(664 -6.43212e-13 0)
(664 -6.15671e-13 0)
(664 -5.92499e-13 0)
(664 -5.2177e-13 0)
(664 -5.13917e-13 0)
(664 -6.07628e-13 0)
(664 -7.00289e-13 0)
(664 -6.78477e-13 0)
(664 -5.8017e-13 0)
(664 -4.98326e-13 0)
(664 -4.73947e-13 0)
(664 -3.99416e-13 0)
(664 -2.87653e-13 0)
(664 -2.9212e-13 0)
(664 -3.52419e-13 0)
(664 -4.02962e-13 0)
(664 -4.66265e-13 0)
(664 -5.25299e-13 0)
(664 -5.82947e-13 0)
(664 -6.54491e-13 0)
(664 -7.33017e-13 0)
(664 -8.0385e-13 0)
(664 -7.9535e-13 0)
(664 -6.82976e-13 0)
(664 -5.06878e-13 0)
(664 -3.46656e-13 0)
(664 -2.22166e-13 0)
(664 -1.96e-13 0)
(664 -2.33248e-13 0)
(664 -3.82453e-13 0)
(664 -6.3142e-13 0)
(664 -9.15978e-13 0)
(664 -1.04359e-12 0)
(664 -9.691e-13 0)
(664 -8.59269e-13 0)
(664 -8.99298e-13 0)
(664 -1.06315e-12 0)
(664 -1.19591e-12 0)
(664 -1.20022e-12 0)
(664 -1.1397e-12 0)
(664 -1.12423e-12 0)
(664 -1.24034e-12 0)
(664 -1.3887e-12 0)
(664 -1.39739e-12 0)
(664 -1.3465e-12 0)
(664 -1.27624e-12 0)
(664 -1.22821e-12 0)
(664 -1.12182e-12 0)
(664 -8.85748e-13 0)
(664 -6.66545e-13 0)
(664 -5.75431e-13 0)
(664 -5.71493e-13 0)
(664 -5.59425e-13 0)
(664 -5.33588e-13 0)
(664 -5.37595e-13 0)
(664 -5.7829e-13 0)
(664 -6.79134e-13 0)
(664 -7.78575e-13 0)
(664 -7.96443e-13 0)
(664 -8.22779e-13 0)
(664 -9.17888e-13 0)
(664 -1.02327e-12 0)
(664 -1.11962e-12 0)
(664 -1.21776e-12 0)
(664 -1.28652e-12 0)
(664 -1.30316e-12 0)
(664 -1.22442e-12 0)
(664 -1.11642e-12 0)
(664 -1.0341e-12 0)
(664 -9.38221e-13 0)
(664 -8.47126e-13 0)
(664 -8.30166e-13 0)
(664 -8.66803e-13 0)
(664 -9.56122e-13 0)
(664 -1.11231e-12 0)
(664 -1.24894e-12 0)
(664 -1.35931e-12 0)
(664 -1.34809e-12 0)
(664 -1.14792e-12 0)
(664 -9.17953e-13 0)
(664 -8.05612e-13 0)
(664 -8.33357e-13 0)
(664 -9.11759e-13 0)
(664 -9.48734e-13 0)
(664 -8.6822e-13 0)
(664 -8.65034e-13 0)
(664 -9.69162e-13 0)
(664 -1.03499e-12 0)
(664 -1.10825e-12 0)
(664 -1.2059e-12 0)
(664 -1.22299e-12 0)
(664 -1.13932e-12 0)
(664 -1.12244e-12 0)
(664 -1.20001e-12 0)
(664 -1.23996e-12 0)
(664 -1.11282e-12 0)
(664 -8.74827e-13 0)
(664 -6.896e-13 0)
(664 -6.10062e-13 0)
(664 -6.07556e-13 0)
(664 -6.89538e-13 0)
(664 -8.01176e-13 0)
(664 -7.76174e-13 0)
(664 -6.26689e-13 0)
(664 -5.15959e-13 0)
(664 -4.96891e-13 0)
(664 -4.77509e-13 0)
(664 -4.94535e-13 0)
(664 -5.52146e-13 0)
(664 -6.35416e-13 0)
(664 -7.67873e-13 0)
(664 -9.9725e-13 0)
(664 -1.18144e-12 0)
(664 -1.22461e-12 0)
(664 -1.18562e-12 0)
(664 -1.09514e-12 0)
(664 -9.86911e-13 0)
(664 -8.98259e-13 0)
(664 -7.86005e-13 0)
(664 -7.47091e-13 0)
(664 -7.52634e-13 0)
(664 -7.52511e-13 0)
(664 -6.71135e-13 0)
(664 -4.76614e-13 0)
(664 -3.90751e-13 0)
(664 -4.91352e-13 0)
(664 -7.22375e-13 0)
(664 -1.03696e-12 0)
(664 -1.37176e-12 0)
(664 -1.65675e-12 0)
(664 -1.89203e-12 0)
(664 -2.01576e-12 0)
(664 -1.98512e-12 0)
(664 -1.90214e-12 0)
(664 -1.83002e-12 0)
(664 -1.68363e-12 0)
(664 -1.4569e-12 0)
(664 -1.30508e-12 0)
(664 -1.23891e-12 0)
(664 -1.11184e-12 0)
(664 -9.95696e-13 0)
(664 -9.7576e-13 0)
(664 -1.01171e-12 0)
(664 -1.09316e-12 0)
(664 -1.13816e-12 0)
(664 -1.07058e-12 0)
(664 -9.30494e-13 0)
(664 -8.09421e-13 0)
(664 -7.68316e-13 0)
(664 -7.99526e-13 0)
(664 -9.46867e-13 0)
(664 -1.07555e-12 0)
(664 -1.1134e-12 0)
(664 -1.10577e-12 0)
(664 -1.14426e-12 0)
(664 -1.25769e-12 0)
(664 -1.37527e-12 0)
(664 -1.43866e-12 0)
(664 -1.52486e-12 0)
(664 -1.53109e-12 0)
(664 -1.47107e-12 0)
(664 -1.41076e-12 0)
(664 -1.34052e-12 0)
(664 -1.26332e-12 0)
(664 -1.24382e-12 0)
(664 -1.14255e-12 0)
(664 -1.01496e-12 0)
(664 -9.29742e-13 0)
(664 -9.46687e-13 0)
(664 -1.10049e-12 0)
(664 -1.2619e-12 0)
(664 -1.34003e-12 0)
(664 -1.33987e-12 0)
(664 -1.23623e-12 0)
(664 -1.07076e-12 0)
(664 -9.44118e-13 0)
(664 -8.76364e-13 0)
(664 -7.60397e-13 0)
(664 -6.83101e-13 0)
(664 -6.42078e-13 0)
(664 -4.97662e-13 0)
(664 -2.74046e-13 0)
(664 -1.15986e-13 0)
(664 -8.66555e-14 0)
(664 -1.23613e-13 0)
(664 -2.33856e-13 0)
(664 -3.22068e-13 0)
(664 -2.80188e-13 0)
(664 -1.7638e-13 0)
(664 -1.1031e-13 0)
(664 -1.38118e-13 0)
(664 -1.64793e-13 0)
(664 -1.07211e-13 0)
(664 -1.53168e-13 0)
(664 -3.40095e-13 0)
(664 -5.32715e-13 0)
(664 -6.92757e-13 0)
(664 -8.30526e-13 0)
(664 -8.96279e-13 0)
(664 -8.84234e-13 0)
(664 -8.47406e-13 0)
(664 -6.48731e-13 0)
(664 -2.51642e-13 0)
(664 3.23812e-13 0)
(664 1.15721e-12 0)
(664 2.40359e-12 0)
(664 4.33885e-12 0)
(664 7.44696e-12 0)
(664 1.25105e-11 0)
(664 2.07852e-11 0)
(664 3.44159e-11 0)
(664 5.69415e-11 0)
(664 9.41619e-11 0)
(664 1.55965e-10 0)
(664 2.58787e-10 0)
(664 4.29828e-10 0)
(664 7.14451e-10 0)
(664 1.18845e-09 0)
(664 1.97835e-09 0)
(664 3.29544e-09 0)
(664 5.49295e-09 0)
(664 9.16203e-09 0)
(664 1.52926e-08 0)
(664 2.55443e-08 0)
(664 4.27018e-08 0)
(664 7.14424e-08 0)
(664 1.1963e-07 0)
(664 2.00501e-07 0)
(664 3.3636e-07 0)
(664 5.64832e-07 0)
(664 9.49475e-07 0)
(664 1.59778e-06 0)
(664 2.69178e-06 0)
(664 4.54018e-06 0)
(664 7.66727e-06 0)
(664 1.29648e-05 0)
(663.999 2.19516e-05 0)
(663.999 3.72196e-05 0)
(663.999 6.31981e-05 0)
(663.998 0.00010747 0)
(663.996 0.000183039 0)
(663.994 0.000312248 0)
(663.99 0.000533553 0)
(663.983 0.000913276 0)
(663.972 0.00156601 0)
(663.954 0.00269016 0)
(663.924 0.0046299 0)
(663.875 0.00798357 0)
(663.794 0.0137934 0)
(663.66 0.023879 0)
(663.439 0.0414228 0)
(663.074 0.0720064 0)
(662.469 0.125431 0)
(661.467 0.218979 0)
(659.804 0.383099 0)
(657.046 0.671895 0)
(652.468 1.18072 0)
(644.883 2.08141 0)
(632.344 3.67213 0)
(611.944 6.50675 0)
(579.919 11.4578 0)
(664 2.62551e-14 0)
(664 3.93195e-14 0)
(664 4.31022e-14 0)
(664 6.01011e-14 0)
(664 7.31781e-14 0)
(664 5.789e-14 0)
(664 -8.86702e-15 0)
(664 -1.19846e-13 0)
(664 -1.95542e-13 0)
(664 -2.55862e-13 0)
(664 -2.655e-13 0)
(664 -2.91133e-13 0)
(664 -3.98232e-13 0)
(664 -5.79187e-13 0)
(664 -7.14365e-13 0)
(664 -7.20782e-13 0)
(664 -6.66019e-13 0)
(664 -6.04194e-13 0)
(664 -5.94737e-13 0)
(664 -6.26795e-13 0)
(664 -6.14314e-13 0)
(664 -5.82305e-13 0)
(664 -5.40594e-13 0)
(664 -4.88278e-13 0)
(664 -3.49032e-13 0)
(664 -2.00039e-13 0)
(664 -1.4202e-13 0)
(664 -2.32831e-13 0)
(664 -4.42132e-13 0)
(664 -6.12061e-13 0)
(664 -6.03125e-13 0)
(664 -5.30191e-13 0)
(664 -4.57271e-13 0)
(664 -4.21398e-13 0)
(664 -4.17156e-13 0)
(664 -3.69419e-13 0)
(664 -3.24117e-13 0)
(664 -3.31469e-13 0)
(664 -3.901e-13 0)
(664 -4.70943e-13 0)
(664 -4.84083e-13 0)
(664 -4.51741e-13 0)
(664 -3.79057e-13 0)
(664 -3.85391e-13 0)
(664 -5.08837e-13 0)
(664 -6.77581e-13 0)
(664 -8.07453e-13 0)
(664 -8.81875e-13 0)
(664 -9.07154e-13 0)
(664 -9.10957e-13 0)
(664 -9.1745e-13 0)
(664 -9.62155e-13 0)
(664 -1.01966e-12 0)
(664 -1.14239e-12 0)
(664 -1.25362e-12 0)
(664 -1.28906e-12 0)
(664 -1.2194e-12 0)
(664 -1.15931e-12 0)
(664 -1.17566e-12 0)
(664 -1.19073e-12 0)
(664 -1.15686e-12 0)
(664 -1.06187e-12 0)
(664 -8.72004e-13 0)
(664 -6.99322e-13 0)
(664 -6.31854e-13 0)
(664 -5.92403e-13 0)
(664 -5.02665e-13 0)
(664 -4.51589e-13 0)
(664 -5.44141e-13 0)
(664 -7.19389e-13 0)
(664 -9.02871e-13 0)
(664 -9.97557e-13 0)
(664 -9.67883e-13 0)
(664 -9.2951e-13 0)
(664 -9.37419e-13 0)
(664 -1.02683e-12 0)
(664 -1.11213e-12 0)
(664 -1.18097e-12 0)
(664 -1.24832e-12 0)
(664 -1.31952e-12 0)
(664 -1.424e-12 0)
(664 -1.38483e-12 0)
(664 -1.18908e-12 0)
(664 -9.8063e-13 0)
(664 -8.43971e-13 0)
(664 -7.46036e-13 0)
(664 -6.61234e-13 0)
(664 -5.6108e-13 0)
(664 -5.09458e-13 0)
(664 -5.06526e-13 0)
(664 -5.82947e-13 0)
(664 -6.86489e-13 0)
(664 -8.19101e-13 0)
(664 -9.28503e-13 0)
(664 -9.91292e-13 0)
(664 -1.03327e-12 0)
(664 -1.1124e-12 0)
(664 -1.18039e-12 0)
(664 -1.22378e-12 0)
(664 -1.24358e-12 0)
(664 -1.19965e-12 0)
(664 -1.13082e-12 0)
(664 -1.11252e-12 0)
(664 -1.1643e-12 0)
(664 -1.25264e-12 0)
(664 -1.27432e-12 0)
(664 -1.26663e-12 0)
(664 -1.23651e-12 0)
(664 -1.15669e-12 0)
(664 -1.03927e-12 0)
(664 -9.38118e-13 0)
(664 -9.10948e-13 0)
(664 -9.18161e-13 0)
(664 -9.87037e-13 0)
(664 -1.12609e-12 0)
(664 -1.2603e-12 0)
(664 -1.24086e-12 0)
(664 -9.6143e-13 0)
(664 -5.92936e-13 0)
(664 -3.88572e-13 0)
(664 -3.33768e-13 0)
(664 -3.127e-13 0)
(664 -3.33492e-13 0)
(664 -4.63744e-13 0)
(664 -6.66463e-13 0)
(664 -8.50834e-13 0)
(664 -9.18869e-13 0)
(664 -9.51079e-13 0)
(664 -1.0323e-12 0)
(664 -1.16767e-12 0)
(664 -1.33028e-12 0)
(664 -1.53856e-12 0)
(664 -1.71237e-12 0)
(664 -1.73983e-12 0)
(664 -1.7561e-12 0)
(664 -1.82297e-12 0)
(664 -1.7628e-12 0)
(664 -1.59023e-12 0)
(664 -1.46631e-12 0)
(664 -1.43923e-12 0)
(664 -1.47914e-12 0)
(664 -1.47557e-12 0)
(664 -1.37515e-12 0)
(664 -1.26011e-12 0)
(664 -1.17922e-12 0)
(664 -1.20081e-12 0)
(664 -1.25334e-12 0)
(664 -1.28966e-12 0)
(664 -1.32031e-12 0)
(664 -1.40566e-12 0)
(664 -1.54511e-12 0)
(664 -1.70186e-12 0)
(664 -1.81896e-12 0)
(664 -1.93044e-12 0)
(664 -2.01709e-12 0)
(664 -2.07589e-12 0)
(664 -2.0994e-12 0)
(664 -2.02817e-12 0)
(664 -1.90486e-12 0)
(664 -1.77292e-12 0)
(664 -1.6812e-12 0)
(664 -1.57527e-12 0)
(664 -1.44303e-12 0)
(664 -1.31504e-12 0)
(664 -1.2969e-12 0)
(664 -1.4031e-12 0)
(664 -1.54023e-12 0)
(664 -1.6681e-12 0)
(664 -1.75419e-12 0)
(664 -1.79824e-12 0)
(664 -1.75498e-12 0)
(664 -1.62684e-12 0)
(664 -1.55389e-12 0)
(664 -1.4548e-12 0)
(664 -1.24282e-12 0)
(664 -9.9342e-13 0)
(664 -7.98233e-13 0)
(664 -6.95384e-13 0)
(664 -7.09214e-13 0)
(664 -7.81747e-13 0)
(664 -8.65807e-13 0)
(664 -9.41739e-13 0)
(664 -1.0037e-12 0)
(664 -1.08048e-12 0)
(664 -1.03444e-12 0)
(664 -9.53346e-13 0)
(664 -9.68231e-13 0)
(664 -9.93255e-13 0)
(664 -1.0003e-12 0)
(664 -9.89628e-13 0)
(664 -1.05199e-12 0)
(664 -1.12355e-12 0)
(664 -1.11443e-12 0)
(664 -1.01689e-12 0)
(664 -8.1301e-13 0)
(664 -5.42276e-13 0)
(664 -4.06057e-13 0)
(664 -4.49863e-13 0)
(664 -5.7218e-13 0)
(664 -6.72761e-13 0)
(664 -7.29251e-13 0)
(664 -6.28937e-13 0)
(664 -4.52952e-13 0)
(664 -3.74941e-13 0)
(664 -3.79344e-13 0)
(664 -4.60112e-13 0)
(664 -6.51282e-13 0)
(664 -8.88949e-13 0)
(664 -1.07798e-12 0)
(664 -1.17153e-12 0)
(664 -1.0756e-12 0)
(664 -9.72192e-13 0)
(664 -1.02326e-12 0)
(664 -1.16923e-12 0)
(664 -1.25501e-12 0)
(664 -1.29489e-12 0)
(664 -1.31958e-12 0)
(664 -1.30823e-12 0)
(664 -1.3238e-12 0)
(664 -1.29843e-12 0)
(664 -1.26059e-12 0)
(664 -1.31378e-12 0)
(664 -1.41304e-12 0)
(664 -1.54884e-12 0)
(664 -1.64274e-12 0)
(664 -1.63776e-12 0)
(664 -1.488e-12 0)
(664 -1.18457e-12 0)
(664 -8.65375e-13 0)
(664 -5.66335e-13 0)
(664 -3.03685e-13 0)
(664 -6.00246e-14 0)
(664 1.29066e-13 0)
(664 2.25044e-13 0)
(664 2.22498e-13 0)
(664 1.21562e-13 0)
(664 -1.60452e-14 0)
(664 -1.07484e-13 0)
(664 -6.85031e-14 0)
(664 8.21598e-14 0)
(664 4.6509e-13 0)
(664 1.09448e-12 0)
(664 2.02477e-12 0)
(664 3.64364e-12 0)
(664 6.53475e-12 0)
(664 1.16091e-11 0)
(664 2.01236e-11 0)
(664 3.41035e-11 0)
(664 5.69837e-11 0)
(664 9.4621e-11 0)
(664 1.56736e-10 0)
(664 2.59557e-10 0)
(664 4.2999e-10 0)
(664 7.12744e-10 0)
(664 1.18183e-09 0)
(664 1.96027e-09 0)
(664 3.25271e-09 0)
(664 5.39949e-09 0)
(664 8.96714e-09 0)
(664 1.4899e-08 0)
(664 2.47672e-08 0)
(664 4.11925e-08 0)
(664 6.85473e-08 0)
(664 1.14131e-07 0)
(664 1.90137e-07 0)
(664 3.1695e-07 0)
(664 5.28669e-07 0)
(664 8.82379e-07 0)
(664 1.47372e-06 0)
(664 2.46304e-06 0)
(664 4.11943e-06 0)
(664 6.8948e-06 0)
(664 1.15487e-05 0)
(664 1.93592e-05 0)
(664 3.24781e-05 0)
(664 5.45326e-05 0)
(663.999 9.16421e-05 0)
(663.999 0.000154142 0)
(663.998 0.000259502 0)
(663.997 0.000437292 0)
(663.995 0.000737604 0)
(663.991 0.0012454 0)
(663.986 0.00210492 0)
(663.976 0.0035614 0)
(663.962 0.00603218 0)
(663.937 0.0102284 0)
(663.898 0.0173631 0)
(663.834 0.0295087 0)
(663.73 0.050209 0)
(663.561 0.0855322 0)
(663.286 0.145883 0)
(662.839 0.249114 0)
(662.116 0.425919 0)
(660.945 0.729028 0)
(659.055 1.24935 0)
(656.015 2.1426 0)
(651.147 3.67783 0)
(643.444 6.30577 0)
(631.375 10.8007 0)
(613.808 18.3125 0)
(664 -1.75943e-14 0)
(664 -3.9433e-14 0)
(664 -5.26789e-14 0)
(664 -6.56908e-14 0)
(664 -8.88427e-14 0)
(664 -1.03157e-13 0)
(664 -4.70702e-14 0)
(664 8.09007e-15 0)
(664 -6.42934e-14 0)
(664 -1.43992e-13 0)
(664 -1.97443e-13 0)
(664 -2.7658e-13 0)
(664 -3.19794e-13 0)
(664 -3.68096e-13 0)
(664 -4.26336e-13 0)
(664 -4.76065e-13 0)
(664 -5.48004e-13 0)
(664 -6.37212e-13 0)
(664 -6.63207e-13 0)
(664 -6.59073e-13 0)
(664 -6.43677e-13 0)
(664 -6.01681e-13 0)
(664 -5.59771e-13 0)
(664 -4.99249e-13 0)
(664 -4.09559e-13 0)
(664 -3.71811e-13 0)
(664 -3.88582e-13 0)
(664 -4.41659e-13 0)
(664 -4.6555e-13 0)
(664 -4.73335e-13 0)
(664 -4.66016e-13 0)
(664 -4.58396e-13 0)
(664 -4.63285e-13 0)
(664 -4.38563e-13 0)
(664 -3.88702e-13 0)
(664 -3.67058e-13 0)
(664 -3.47808e-13 0)
(664 -2.9179e-13 0)
(664 -2.5854e-13 0)
(664 -2.34222e-13 0)
(664 -2.13165e-13 0)
(664 -2.32326e-13 0)
(664 -2.9821e-13 0)
(664 -3.39753e-13 0)
(664 -4.12119e-13 0)
(664 -5.636e-13 0)
(664 -7.63406e-13 0)
(664 -9.00543e-13 0)
(664 -9.76234e-13 0)
(664 -1.0072e-12 0)
(664 -1.0078e-12 0)
(664 -9.99231e-13 0)
(664 -9.72735e-13 0)
(664 -9.24553e-13 0)
(664 -9.14203e-13 0)
(664 -8.93792e-13 0)
(664 -7.91094e-13 0)
(664 -7.30224e-13 0)
(664 -6.72512e-13 0)
(664 -5.32494e-13 0)
(664 -3.96194e-13 0)
(664 -3.73018e-13 0)
(664 -4.04403e-13 0)
(664 -4.57596e-13 0)
(664 -5.30467e-13 0)
(664 -5.87205e-13 0)
(664 -6.19052e-13 0)
(664 -6.21966e-13 0)
(664 -5.92978e-13 0)
(664 -5.50291e-13 0)
(664 -4.91862e-13 0)
(664 -5.63261e-13 0)
(664 -8.02407e-13 0)
(664 -9.77936e-13 0)
(664 -9.9163e-13 0)
(664 -7.87378e-13 0)
(664 -5.17517e-13 0)
(664 -4.27726e-13 0)
(664 -4.84291e-13 0)
(664 -5.70634e-13 0)
(664 -6.47395e-13 0)
(664 -6.78463e-13 0)
(664 -6.61235e-13 0)
(664 -6.01237e-13 0)
(664 -5.18707e-13 0)
(664 -4.93934e-13 0)
(664 -5.91009e-13 0)
(664 -7.92777e-13 0)
(664 -9.87126e-13 0)
(664 -1.13023e-12 0)
(664 -1.20974e-12 0)
(664 -1.23378e-12 0)
(664 -1.2519e-12 0)
(664 -1.25614e-12 0)
(664 -1.2429e-12 0)
(664 -1.24999e-12 0)
(664 -1.26642e-12 0)
(664 -1.28407e-12 0)
(664 -1.27857e-12 0)
(664 -1.20245e-12 0)
(664 -1.1326e-12 0)
(664 -1.10311e-12 0)
(664 -1.05106e-12 0)
(664 -9.82525e-13 0)
(664 -9.98644e-13 0)
(664 -1.1176e-12 0)
(664 -1.21569e-12 0)
(664 -1.23287e-12 0)
(664 -1.22363e-12 0)
(664 -1.21461e-12 0)
(664 -1.18706e-12 0)
(664 -1.16609e-12 0)
(664 -1.13238e-12 0)
(664 -1.05921e-12 0)
(664 -9.89173e-13 0)
(664 -9.68986e-13 0)
(664 -1.00952e-12 0)
(664 -1.07668e-12 0)
(664 -1.08108e-12 0)
(664 -1.00268e-12 0)
(664 -8.78435e-13 0)
(664 -7.67836e-13 0)
(664 -7.52031e-13 0)
(664 -8.29118e-13 0)
(664 -9.57473e-13 0)
(664 -1.04713e-12 0)
(664 -1.07193e-12 0)
(664 -1.0283e-12 0)
(664 -8.98397e-13 0)
(664 -7.47841e-13 0)
(664 -6.5219e-13 0)
(664 -5.18802e-13 0)
(664 -3.03521e-13 0)
(664 -2.29137e-13 0)
(664 -4.96476e-13 0)
(664 -9.03402e-13 0)
(664 -1.17389e-12 0)
(664 -1.24446e-12 0)
(664 -1.20355e-12 0)
(664 -1.09481e-12 0)
(664 -9.7742e-13 0)
(664 -9.87667e-13 0)
(664 -1.12206e-12 0)
(664 -1.16956e-12 0)
(664 -1.07024e-12 0)
(664 -9.63985e-13 0)
(664 -8.91151e-13 0)
(664 -8.42963e-13 0)
(664 -7.57112e-13 0)
(664 -6.23418e-13 0)
(664 -5.12502e-13 0)
(664 -4.40719e-13 0)
(664 -4.58551e-13 0)
(664 -5.49094e-13 0)
(664 -6.19079e-13 0)
(664 -6.72867e-13 0)
(664 -7.55953e-13 0)
(664 -8.9083e-13 0)
(664 -1.02921e-12 0)
(664 -1.19011e-12 0)
(664 -1.27964e-12 0)
(664 -1.39442e-12 0)
(664 -1.57306e-12 0)
(664 -1.63026e-12 0)
(664 -1.58923e-12 0)
(664 -1.46253e-12 0)
(664 -1.22711e-12 0)
(664 -9.35096e-13 0)
(664 -6.80111e-13 0)
(664 -5.34131e-13 0)
(664 -5.33585e-13 0)
(664 -6.46987e-13 0)
(664 -8.2012e-13 0)
(664 -1.00628e-12 0)
(664 -1.16084e-12 0)
(664 -1.20156e-12 0)
(664 -1.17026e-12 0)
(664 -1.21508e-12 0)
(664 -1.31023e-12 0)
(664 -1.32246e-12 0)
(664 -1.29966e-12 0)
(664 -1.33561e-12 0)
(664 -1.43767e-12 0)
(664 -1.59416e-12 0)
(664 -1.73853e-12 0)
(664 -1.89908e-12 0)
(664 -1.99091e-12 0)
(664 -1.96586e-12 0)
(664 -1.89616e-12 0)
(664 -1.72594e-12 0)
(664 -1.43001e-12 0)
(664 -1.15616e-12 0)
(664 -9.90303e-13 0)
(664 -8.56474e-13 0)
(664 -6.45428e-13 0)
(664 -4.30872e-13 0)
(664 -3.37882e-13 0)
(664 -3.53439e-13 0)
(664 -4.26537e-13 0)
(664 -5.32509e-13 0)
(664 -5.53865e-13 0)
(664 -5.08016e-13 0)
(664 -4.93101e-13 0)
(664 -5.15194e-13 0)
(664 -5.78609e-13 0)
(664 -7.10065e-13 0)
(664 -8.98123e-13 0)
(664 -1.09737e-12 0)
(664 -1.23154e-12 0)
(664 -1.35156e-12 0)
(664 -1.43286e-12 0)
(664 -1.50616e-12 0)
(664 -1.56599e-12 0)
(664 -1.57046e-12 0)
(664 -1.51521e-12 0)
(664 -1.40673e-12 0)
(664 -1.34489e-12 0)
(664 -1.35297e-12 0)
(664 -1.34354e-12 0)
(664 -1.29417e-12 0)
(664 -1.21407e-12 0)
(664 -1.10665e-12 0)
(664 -1.04169e-12 0)
(664 -1.01835e-12 0)
(664 -1.01784e-12 0)
(664 -1.02769e-12 0)
(664 -1.01242e-12 0)
(664 -9.4654e-13 0)
(664 -8.56049e-13 0)
(664 -7.02398e-13 0)
(664 -5.09117e-13 0)
(664 -3.71303e-13 0)
(664 -2.53287e-13 0)
(664 -1.29506e-13 0)
(664 -2.76969e-14 0)
(664 7.50885e-14 0)
(664 1.85905e-13 0)
(664 2.73168e-13 0)
(664 4.80173e-13 0)
(664 9.61511e-13 0)
(664 1.64999e-12 0)
(664 2.67188e-12 0)
(664 4.28347e-12 0)
(664 6.86794e-12 0)
(664 1.12003e-11 0)
(664 1.84003e-11 0)
(664 3.03217e-11 0)
(664 5.00069e-11 0)
(664 8.24739e-11 0)
(664 1.36155e-10 0)
(664 2.24907e-10 0)
(664 3.71619e-10 0)
(664 6.1404e-10 0)
(664 1.01452e-09 0)
(664 1.67621e-09 0)
(664 2.76976e-09 0)
(664 4.57712e-09 0)
(664 7.56501e-09 0)
(664 1.25061e-08 0)
(664 2.06795e-08 0)
(664 3.42034e-08 0)
(664 5.65866e-08 0)
(664 9.36433e-08 0)
(664 1.5501e-07 0)
(664 2.56663e-07 0)
(664 4.25096e-07 0)
(664 7.04261e-07 0)
(664 1.16708e-06 0)
(664 1.93459e-06 0)
(664 3.20772e-06 0)
(664 5.32012e-06 0)
(664 8.82596e-06 0)
(664 1.46459e-05 0)
(664 2.43097e-05 0)
(664 4.03597e-05 0)
(664 6.7022e-05 0)
(663.999 0.000111322 0)
(663.999 0.000184941 0)
(663.998 0.000307301 0)
(663.997 0.000510698 0)
(663.996 0.000848836 0)
(663.993 0.00141101 0)
(663.989 0.00234566 0)
(663.982 0.00389957 0)
(663.971 0.00648279 0)
(663.953 0.0107766 0)
(663.924 0.017912 0)
(663.877 0.0297664 0)
(663.802 0.0494527 0)
(663.681 0.0821287 0)
(663.486 0.13633 0)
(663.175 0.226163 0)
(662.677 0.374894 0)
(661.882 0.62081 0)
(660.615 1.02666 0)
(658.606 1.69491 0)
(655.432 2.79096 0)
(650.474 4.58 0)
(642.764 7.46965 0)
(631.546 12.0788 0)
(664 -3.4512e-14 0)
(664 -7.38871e-14 0)
(664 -1.07233e-13 0)
(664 -1.40958e-13 0)
(664 -1.45328e-13 0)
(664 -8.35214e-14 0)
(664 3.41353e-16 0)
(664 4.68128e-14 0)
(664 2.05413e-14 0)
(664 -3.61383e-14 0)
(664 -8.99786e-14 0)
(664 -7.85122e-14 0)
(664 1.19484e-14 0)
(664 1.40541e-13 0)
(664 1.70167e-13 0)
(664 1.28341e-13 0)
(664 8.52213e-14 0)
(664 1.97796e-14 0)
(664 -8.09956e-14 0)
(664 -1.65771e-13 0)
(664 -2.20014e-13 0)
(664 -2.10034e-13 0)
(664 -1.61556e-13 0)
(664 -1.47641e-13 0)
(664 -2.43152e-13 0)
(664 -3.37629e-13 0)
(664 -4.22576e-13 0)
(664 -4.72265e-13 0)
(664 -4.76336e-13 0)
(664 -4.36886e-13 0)
(664 -4.46843e-13 0)
(664 -4.27479e-13 0)
(664 -4.05183e-13 0)
(664 -3.91783e-13 0)
(664 -4.22055e-13 0)
(664 -5.37106e-13 0)
(664 -6.595e-13 0)
(664 -8.36795e-13 0)
(664 -9.7961e-13 0)
(664 -9.90242e-13 0)
(664 -9.34232e-13 0)
(664 -8.59307e-13 0)
(664 -8.0939e-13 0)
(664 -7.8661e-13 0)
(664 -7.66779e-13 0)
(664 -8.06169e-13 0)
(664 -8.6306e-13 0)
(664 -8.7676e-13 0)
(664 -8.20132e-13 0)
(664 -6.92166e-13 0)
(664 -5.84295e-13 0)
(664 -5.10192e-13 0)
(664 -4.49315e-13 0)
(664 -3.67173e-13 0)
(664 -2.71408e-13 0)
(664 -2.59473e-13 0)
(664 -3.8506e-13 0)
(664 -5.52524e-13 0)
(664 -6.84635e-13 0)
(664 -7.17777e-13 0)
(664 -7.24815e-13 0)
(664 -7.2756e-13 0)
(664 -7.3302e-13 0)
(664 -7.41613e-13 0)
(664 -7.70938e-13 0)
(664 -7.93716e-13 0)
(664 -7.97595e-13 0)
(664 -7.81358e-13 0)
(664 -7.78034e-13 0)
(664 -8.27376e-13 0)
(664 -9.17426e-13 0)
(664 -9.8299e-13 0)
(664 -9.89722e-13 0)
(664 -1.00374e-12 0)
(664 -1.03752e-12 0)
(664 -1.02019e-12 0)
(664 -9.52545e-13 0)
(664 -8.68746e-13 0)
(664 -8.85154e-13 0)
(664 -9.14767e-13 0)
(664 -9.12232e-13 0)
(664 -9.3097e-13 0)
(664 -9.96362e-13 0)
(664 -1.04571e-12 0)
(664 -1.04544e-12 0)
(664 -9.65856e-13 0)
(664 -8.74201e-13 0)
(664 -8.43302e-13 0)
(664 -8.32304e-13 0)
(664 -7.48081e-13 0)
(664 -6.36364e-13 0)
(664 -5.94068e-13 0)
(664 -5.83158e-13 0)
(664 -6.39124e-13 0)
(664 -8.02536e-13 0)
(664 -1.05194e-12 0)
(664 -1.19122e-12 0)
(664 -1.21226e-12 0)
(664 -1.16146e-12 0)
(664 -1.08704e-12 0)
(664 -1.05746e-12 0)
(664 -1.04547e-12 0)
(664 -9.94063e-13 0)
(664 -9.35356e-13 0)
(664 -8.57053e-13 0)
(664 -7.60405e-13 0)
(664 -7.20814e-13 0)
(664 -7.29281e-13 0)
(664 -6.7325e-13 0)
(664 -6.13573e-13 0)
(664 -6.82594e-13 0)
(664 -7.98201e-13 0)
(664 -9.07971e-13 0)
(664 -9.83906e-13 0)
(664 -9.89525e-13 0)
(664 -9.98011e-13 0)
(664 -1.07608e-12 0)
(664 -1.26417e-12 0)
(664 -1.46214e-12 0)
(664 -1.53492e-12 0)
(664 -1.57623e-12 0)
(664 -1.67173e-12 0)
(664 -1.74448e-12 0)
(664 -1.65568e-12 0)
(664 -1.45905e-12 0)
(664 -1.35372e-12 0)
(664 -1.30242e-12 0)
(664 -1.2959e-12 0)
(664 -1.24458e-12 0)
(664 -1.0629e-12 0)
(664 -8.13792e-13 0)
(664 -5.87777e-13 0)
(664 -4.96023e-13 0)
(664 -5.99474e-13 0)
(664 -7.77765e-13 0)
(664 -9.82251e-13 0)
(664 -1.19423e-12 0)
(664 -1.46848e-12 0)
(664 -1.74958e-12 0)
(664 -1.8926e-12 0)
(664 -1.87958e-12 0)
(664 -1.86883e-12 0)
(664 -1.8968e-12 0)
(664 -1.91601e-12 0)
(664 -1.94203e-12 0)
(664 -1.87248e-12 0)
(664 -1.75535e-12 0)
(664 -1.75023e-12 0)
(664 -1.75122e-12 0)
(664 -1.68528e-12 0)
(664 -1.59154e-12 0)
(664 -1.42383e-12 0)
(664 -1.20386e-12 0)
(664 -1.0078e-12 0)
(664 -9.0395e-13 0)
(664 -8.70006e-13 0)
(664 -8.86771e-13 0)
(664 -9.59727e-13 0)
(664 -1.07407e-12 0)
(664 -1.1784e-12 0)
(664 -1.21819e-12 0)
(664 -1.19765e-12 0)
(664 -1.25223e-12 0)
(664 -1.44108e-12 0)
(664 -1.58968e-12 0)
(664 -1.66317e-12 0)
(664 -1.71867e-12 0)
(664 -1.78384e-12 0)
(664 -1.8084e-12 0)
(664 -1.86343e-12 0)
(664 -1.96986e-12 0)
(664 -2.03258e-12 0)
(664 -2.07925e-12 0)
(664 -2.17184e-12 0)
(664 -2.20878e-12 0)
(664 -2.12459e-12 0)
(664 -1.98878e-12 0)
(664 -1.77233e-12 0)
(664 -1.4814e-12 0)
(664 -1.16214e-12 0)
(664 -8.66197e-13 0)
(664 -6.63978e-13 0)
(664 -5.20497e-13 0)
(664 -3.71248e-13 0)
(664 -3.45333e-13 0)
(664 -4.09438e-13 0)
(664 -4.43697e-13 0)
(664 -4.222e-13 0)
(664 -3.81045e-13 0)
(664 -3.32738e-13 0)
(664 -2.41041e-13 0)
(664 -1.88131e-13 0)
(664 -1.80202e-13 0)
(664 -2.53309e-13 0)
(664 -4.46004e-13 0)
(664 -7.32916e-13 0)
(664 -8.81445e-13 0)
(664 -9.21496e-13 0)
(664 -9.62689e-13 0)
(664 -9.11166e-13 0)
(664 -7.34527e-13 0)
(664 -6.53293e-13 0)
(664 -7.4578e-13 0)
(664 -8.69903e-13 0)
(664 -8.91957e-13 0)
(664 -7.44789e-13 0)
(664 -4.86599e-13 0)
(664 -2.78916e-13 0)
(664 -2.18795e-13 0)
(664 -2.4805e-13 0)
(664 -4.31445e-13 0)
(664 -6.06943e-13 0)
(664 -7.11712e-13 0)
(664 -8.6899e-13 0)
(664 -1.14161e-12 0)
(664 -1.38831e-12 0)
(664 -1.51756e-12 0)
(664 -1.63649e-12 0)
(664 -1.73379e-12 0)
(664 -1.78394e-12 0)
(664 -1.77825e-12 0)
(664 -1.69222e-12 0)
(664 -1.63271e-12 0)
(664 -1.66205e-12 0)
(664 -1.8138e-12 0)
(664 -1.91978e-12 0)
(664 -1.97019e-12 0)
(664 -2.0856e-12 0)
(664 -2.15159e-12 0)
(664 -2.13311e-12 0)
(664 -2.09883e-12 0)
(664 -2.0951e-12 0)
(664 -2.04494e-12 0)
(664 -1.89388e-12 0)
(664 -1.62753e-12 0)
(664 -1.27742e-12 0)
(664 -8.73833e-13 0)
(664 -4.63007e-13 0)
(664 -1.64035e-14 0)
(664 5.34817e-13 0)
(664 1.28652e-12 0)
(664 2.52775e-12 0)
(664 4.60656e-12 0)
(664 7.94101e-12 0)
(664 1.31387e-11 0)
(664 2.15011e-11 0)
(664 3.51887e-11 0)
(664 5.77393e-11 0)
(664 9.49309e-11 0)
(664 1.56201e-10 0)
(664 2.57031e-10 0)
(664 4.22797e-10 0)
(664 6.95344e-10 0)
(664 1.14346e-09 0)
(664 1.88028e-09 0)
(664 3.09186e-09 0)
(664 5.08433e-09 0)
(664 8.36136e-09 0)
(664 1.37515e-08 0)
(664 2.2618e-08 0)
(664 3.72038e-08 0)
(664 6.11995e-08 0)
(664 1.00678e-07 0)
(664 1.65632e-07 0)
(664 2.72505e-07 0)
(664 4.48354e-07 0)
(664 7.37698e-07 0)
(664 1.21379e-06 0)
(664 1.99713e-06 0)
(664 3.28599e-06 0)
(664 5.40648e-06 0)
(664 8.89494e-06 0)
(664 1.46334e-05 0)
(664 2.40719e-05 0)
(664 3.95941e-05 0)
(664 6.51168e-05 0)
(664 0.000107075 0)
(663.999 0.000176036 0)
(663.999 0.000289346 0)
(663.998 0.000475469 0)
(663.997 0.000781083 0)
(663.995 0.0012827 0)
(663.992 0.00210562 0)
(663.987 0.00345496 0)
(663.979 0.00566614 0)
(663.966 0.00928715 0)
(663.946 0.0152124 0)
(663.914 0.0248997 0)
(663.862 0.0407225 0)
(663.78 0.0665379 0)
(663.649 0.108603 0)
(663.441 0.177049 0)
(663.111 0.288228 0)
(662.588 0.468469 0)
(661.763 0.759926 0)
(660.463 1.2299 0)
(658.421 1.98428 0)
(655.241 3.18971 0)
(650.287 5.09569 0)
(643.016 8.08547 0)
(664 3.45098e-14 0)
(664 6.42649e-14 0)
(664 1.16443e-13 0)
(664 1.96829e-13 0)
(664 2.45541e-13 0)
(664 2.26068e-13 0)
(664 1.80294e-13 0)
(664 1.34311e-13 0)
(664 1.29682e-13 0)
(664 1.25037e-13 0)
(664 1.43987e-13 0)
(664 1.74302e-13 0)
(664 2.13059e-13 0)
(664 2.92899e-13 0)
(664 3.79916e-13 0)
(664 3.89619e-13 0)
(664 3.45525e-13 0)
(664 2.88008e-13 0)
(664 2.56728e-13 0)
(664 2.43273e-13 0)
(664 2.49133e-13 0)
(664 2.24953e-13 0)
(664 2.25741e-13 0)
(664 2.27648e-13 0)
(664 1.70427e-13 0)
(664 5.41627e-14 0)
(664 -4.77375e-14 0)
(664 -1.06625e-13 0)
(664 -1.5832e-13 0)
(664 -2.3792e-13 0)
(664 -3.57228e-13 0)
(664 -4.69473e-13 0)
(664 -5.69095e-13 0)
(664 -5.75168e-13 0)
(664 -5.03658e-13 0)
(664 -3.62977e-13 0)
(664 -2.83658e-13 0)
(664 -3.24125e-13 0)
(664 -4.01604e-13 0)
(664 -5.06403e-13 0)
(664 -6.27975e-13 0)
(664 -7.53793e-13 0)
(664 -8.818e-13 0)
(664 -9.35138e-13 0)
(664 -9.4595e-13 0)
(664 -9.68677e-13 0)
(664 -9.50722e-13 0)
(664 -8.59354e-13 0)
(664 -7.21164e-13 0)
(664 -5.74405e-13 0)
(664 -4.93209e-13 0)
(664 -5.63061e-13 0)
(664 -6.82375e-13 0)
(664 -8.13763e-13 0)
(664 -8.90871e-13 0)
(664 -9.17131e-13 0)
(664 -9.18341e-13 0)
(664 -8.40891e-13 0)
(664 -7.56553e-13 0)
(664 -7.97343e-13 0)
(664 -8.39289e-13 0)
(664 -8.22182e-13 0)
(664 -7.88119e-13 0)
(664 -8.11792e-13 0)
(664 -8.35322e-13 0)
(664 -8.46331e-13 0)
(664 -8.18422e-13 0)
(664 -7.64057e-13 0)
(664 -7.04913e-13 0)
(664 -7.20328e-13 0)
(664 -7.77971e-13 0)
(664 -7.51782e-13 0)
(664 -6.13461e-13 0)
(664 -4.95101e-13 0)
(664 -5.06108e-13 0)
(664 -6.3311e-13 0)
(664 -7.63252e-13 0)
(664 -7.76622e-13 0)
(664 -7.03884e-13 0)
(664 -6.15562e-13 0)
(664 -5.43738e-13 0)
(664 -5.1264e-13 0)
(664 -5.02964e-13 0)
(664 -5.2231e-13 0)
(664 -5.17825e-13 0)
(664 -4.53471e-13 0)
(664 -3.30834e-13 0)
(664 -2.11951e-13 0)
(664 -1.62155e-13 0)
(664 -1.84579e-13 0)
(664 -2.74552e-13 0)
(664 -3.92812e-13 0)
(664 -5.08724e-13 0)
(664 -6.04864e-13 0)
(664 -7.38175e-13 0)
(664 -8.96457e-13 0)
(664 -1.0237e-12 0)
(664 -1.08278e-12 0)
(664 -1.13373e-12 0)
(664 -1.14084e-12 0)
(664 -1.09387e-12 0)
(664 -1.05662e-12 0)
(664 -1.09868e-12 0)
(664 -1.14925e-12 0)
(664 -1.15995e-12 0)
(664 -1.13273e-12 0)
(664 -1.13934e-12 0)
(664 -1.23402e-12 0)
(664 -1.32533e-12 0)
(664 -1.31549e-12 0)
(664 -1.25077e-12 0)
(664 -1.16561e-12 0)
(664 -1.0596e-12 0)
(664 -9.05283e-13 0)
(664 -7.64671e-13 0)
(664 -6.77176e-13 0)
(664 -6.08114e-13 0)
(664 -5.47387e-13 0)
(664 -5.11423e-13 0)
(664 -5.59513e-13 0)
(664 -5.82027e-13 0)
(664 -4.53353e-13 0)
(664 -3.16666e-13 0)
(664 -3.5018e-13 0)
(664 -4.62689e-13 0)
(664 -5.81519e-13 0)
(664 -7.00858e-13 0)
(664 -7.877e-13 0)
(664 -8.92969e-13 0)
(664 -9.50029e-13 0)
(664 -1.01696e-12 0)
(664 -1.18507e-12 0)
(664 -1.45335e-12 0)
(664 -1.6254e-12 0)
(664 -1.56676e-12 0)
(664 -1.51754e-12 0)
(664 -1.53676e-12 0)
(664 -1.45115e-12 0)
(664 -1.24786e-12 0)
(664 -1.14712e-12 0)
(664 -1.21181e-12 0)
(664 -1.26715e-12 0)
(664 -1.27453e-12 0)
(664 -1.39915e-12 0)
(664 -1.61184e-12 0)
(664 -1.81581e-12 0)
(664 -1.95891e-12 0)
(664 -1.95069e-12 0)
(664 -1.79386e-12 0)
(664 -1.55415e-12 0)
(664 -1.22801e-12 0)
(664 -1.00429e-12 0)
(664 -9.25817e-13 0)
(664 -9.34993e-13 0)
(664 -9.50301e-13 0)
(664 -9.09987e-13 0)
(664 -8.17708e-13 0)
(664 -7.94016e-13 0)
(664 -8.63013e-13 0)
(664 -9.9913e-13 0)
(664 -1.21213e-12 0)
(664 -1.39197e-12 0)
(664 -1.48298e-12 0)
(664 -1.49128e-12 0)
(664 -1.44792e-12 0)
(664 -1.40182e-12 0)
(664 -1.42827e-12 0)
(664 -1.53669e-12 0)
(664 -1.63599e-12 0)
(664 -1.69003e-12 0)
(664 -1.65961e-12 0)
(664 -1.54482e-12 0)
(664 -1.40473e-12 0)
(664 -1.25043e-12 0)
(664 -1.15876e-12 0)
(664 -1.19891e-12 0)
(664 -1.23099e-12 0)
(664 -1.18773e-12 0)
(664 -1.11445e-12 0)
(664 -1.12643e-12 0)
(664 -1.13128e-12 0)
(664 -1.09344e-12 0)
(664 -1.02538e-12 0)
(664 -1.038e-12 0)
(664 -1.06473e-12 0)
(664 -9.54707e-13 0)
(664 -8.8639e-13 0)
(664 -9.26425e-13 0)
(664 -9.78793e-13 0)
(664 -1.09677e-12 0)
(664 -1.25361e-12 0)
(664 -1.34552e-12 0)
(664 -1.29346e-12 0)
(664 -1.1332e-12 0)
(664 -9.95601e-13 0)
(664 -9.11728e-13 0)
(664 -8.80511e-13 0)
(664 -8.07312e-13 0)