/*--------------------------------*- C++ -*----------------------------------*\
| =========                 |                                                 |
| \\      /  F ield         | OpenFOAM: The Open Source CFD Toolbox           |
|  \\    /   O peration     | Version:  2412                                  |
|   \\  /    A nd           | Website:  www.openfoam.com                      |
|    \\/     M anipulation  |                                                 |
\*---------------------------------------------------------------------------*/
FoamFile
{
    version     2.0;
    format      ascii;
    arch        "LSB;label=32;scalar=64";
    class       volVectorField;
    location    "0.003";
    object      U_0;
}
// * * * * * * * * * * * * * * * * * * * * * * * * * * * * * * * * * * * * * //

dimensions      [0 1 -1 0 0 0 0];

internalField   nonuniform List<vector> 
180000
(
(664 1.52194e-14 0)
(664 1.2365e-14 0)
(664 -3.69227e-15 0)
(664 -5.80531e-15 0)
(664 -1.51305e-14 0)
(664 -4.41106e-14 0)
(664 -1.558e-13 0)
(664 -2.60896e-13 0)
(664 -2.98117e-13 0)
(664 -2.74107e-13 0)
(664 -2.20323e-13 0)
(664 -2.25917e-13 0)
(664 -3.49327e-13 0)
(664 -5.18263e-13 0)
(664 -6.53377e-13 0)
(664 -6.68504e-13 0)
(664 -6.53256e-13 0)
(664 -6.69466e-13 0)
(664 -7.353e-13 0)
(664 -7.65356e-13 0)
(664 -8.02315e-13 0)
(664 -7.89991e-13 0)
(664 -7.50897e-13 0)
(664 -7.08556e-13 0)
(664 -6.50866e-13 0)
(664 -6.19199e-13 0)
(664 -6.75153e-13 0)
(664 -8.04951e-13 0)
(664 -8.63557e-13 0)
(664 -7.9317e-13 0)
(664 -6.75709e-13 0)
(664 -5.99052e-13 0)
(664 -5.50786e-13 0)
(664 -5.01569e-13 0)
(664 -4.34735e-13 0)
(664 -3.87837e-13 0)
(664 -4.29853e-13 0)
(664 -5.34709e-13 0)
(664 -6.06888e-13 0)
(664 -6.13943e-13 0)
(664 -5.84407e-13 0)
(664 -5.48625e-13 0)
(664 -5.14236e-13 0)
(664 -5.94638e-13 0)
(664 -6.73726e-13 0)
(664 -6.67307e-13 0)
(664 -5.75058e-13 0)
(664 -5.04688e-13 0)
(664 -4.74922e-13 0)
(664 -4.44649e-13 0)
(664 -3.34345e-13 0)
(664 -3.10638e-13 0)
(664 -3.85789e-13 0)
(664 -4.28696e-13 0)
(664 -4.89946e-13 0)
(664 -5.45181e-13 0)
(664 -5.9343e-13 0)
(664 -6.56248e-13 0)
(664 -7.18462e-13 0)
(664 -7.83135e-13 0)
(664 -7.86891e-13 0)
(664 -7.04961e-13 0)
(664 -5.48841e-13 0)
(664 -3.82183e-13 0)
(664 -2.40703e-13 0)
(664 -1.75486e-13 0)
(664 -2.11535e-13 0)
(664 -3.10575e-13 0)
(664 -5.47165e-13 0)
(664 -8.23911e-13 0)
(664 -1.02854e-12 0)
(664 -1.00484e-12 0)
(664 -8.76723e-13 0)
(664 -8.68465e-13 0)
(664 -1.0288e-12 0)
(664 -1.17564e-12 0)
(664 -1.21124e-12 0)
(664 -1.16055e-12 0)
(664 -1.14376e-12 0)
(664 -1.21345e-12 0)
(664 -1.36809e-12 0)
(664 -1.43584e-12 0)
(664 -1.38026e-12 0)
(664 -1.3224e-12 0)
(664 -1.27065e-12 0)
(664 -1.17328e-12 0)
(664 -9.66133e-13 0)
(664 -7.31286e-13 0)
(664 -6.05144e-13 0)
(664 -5.72407e-13 0)
(664 -5.55316e-13 0)
(664 -5.03977e-13 0)
(664 -4.82617e-13 0)
(664 -5.25331e-13 0)
(664 -6.33217e-13 0)
(664 -7.51722e-13 0)
(664 -7.93694e-13 0)
(664 -7.88197e-13 0)
(664 -8.73443e-13 0)
(664 -9.91524e-13 0)
(664 -1.08035e-12 0)
(664 -1.17633e-12 0)
(664 -1.26283e-12 0)
(664 -1.2933e-12 0)
(664 -1.24462e-12 0)
(664 -1.15061e-12 0)
(664 -1.09043e-12 0)
(664 -1.01407e-12 0)
(664 -9.28777e-13 0)
(664 -8.89579e-13 0)
(664 -9.11682e-13 0)
(664 -9.82727e-13 0)
(664 -1.10306e-12 0)
(664 -1.24071e-12 0)
(664 -1.34427e-12 0)
(664 -1.37732e-12 0)
(664 -1.22711e-12 0)
(664 -9.87741e-13 0)
(664 -8.48656e-13 0)
(664 -8.39771e-13 0)
(664 -9.19737e-13 0)
(664 -9.65658e-13 0)
(664 -8.98964e-13 0)
(664 -8.17095e-13 0)
(664 -8.92208e-13 0)
(664 -9.84475e-13 0)
(664 -1.05065e-12 0)
(664 -1.16107e-12 0)
(664 -1.21802e-12 0)
(664 -1.15092e-12 0)
(664 -1.08226e-12 0)
(664 -1.1514e-12 0)
(664 -1.23292e-12 0)
(664 -1.15007e-12 0)
(664 -9.28878e-13 0)
(664 -7.20714e-13 0)
(664 -6.21667e-13 0)
(664 -6.17834e-13 0)
(664 -6.83754e-13 0)
(664 -7.67261e-13 0)
(664 -7.84923e-13 0)
(664 -6.56052e-13 0)
(664 -5.32334e-13 0)
(664 -5.01436e-13 0)
(664 -5.06576e-13 0)
(664 -4.80001e-13 0)
(664 -5.30818e-13 0)
(664 -6.07775e-13 0)
(664 -7.26206e-13 0)
(664 -9.22447e-13 0)
(664 -1.12795e-12 0)
(664 -1.18731e-12 0)
(664 -1.15606e-12 0)
(664 -1.08083e-12 0)
(664 -9.76086e-13 0)
(664 -9.0331e-13 0)
(664 -8.33277e-13 0)
(664 -7.58725e-13 0)
(664 -7.66789e-13 0)
(664 -7.66656e-13 0)
(664 -7.03138e-13 0)
(664 -5.35758e-13 0)
(664 -3.85797e-13 0)
(664 -4.46176e-13 0)
(664 -6.56611e-13 0)
(664 -9.67676e-13 0)
(664 -1.30982e-12 0)
(664 -1.60725e-12 0)
(664 -1.84703e-12 0)
(664 -2.00219e-12 0)
(664 -2.00173e-12 0)
(664 -1.91643e-12 0)
(664 -1.83481e-12 0)
(664 -1.7162e-12 0)
(664 -1.50699e-12 0)
(664 -1.32555e-12 0)
(664 -1.25917e-12 0)
(664 -1.17159e-12 0)
(664 -1.03016e-12 0)
(664 -9.84487e-13 0)
(664 -1.01411e-12 0)
(664 -1.07629e-12 0)
(664 -1.1522e-12 0)
(664 -1.12578e-12 0)
(664 -9.82556e-13 0)
(664 -8.44394e-13 0)
(664 -7.65785e-13 0)
(664 -7.99329e-13 0)
(664 -8.92801e-13 0)
(664 -1.03157e-12 0)
(664 -1.0899e-12 0)
(664 -1.10263e-12 0)
(664 -1.12895e-12 0)
(664 -1.21626e-12 0)
(664 -1.34293e-12 0)
(664 -1.43007e-12 0)
(664 -1.50793e-12 0)
(664 -1.57332e-12 0)
(664 -1.52803e-12 0)
(664 -1.45717e-12 0)
(664 -1.38621e-12 0)
(664 -1.30376e-12 0)
(664 -1.24505e-12 0)
(664 -1.18078e-12 0)
(664 -1.03713e-12 0)
(664 -9.42126e-13 0)
(664 -9.11289e-13 0)
(664 -1.05205e-12 0)
(664 -1.24673e-12 0)
(664 -1.33653e-12 0)
(664 -1.34364e-12 0)
(664 -1.2626e-12 0)
(664 -1.08982e-12 0)
(664 -9.38492e-13 0)
(664 -8.67019e-13 0)
(664 -7.92509e-13 0)
(664 -6.87165e-13 0)
(664 -6.63685e-13 0)
(664 -5.69293e-13 0)
(664 -3.55945e-13 0)
(664 -1.47534e-13 0)
(664 -5.62357e-14 0)
(664 -7.82152e-14 0)
(664 -1.51756e-13 0)
(664 -2.65496e-13 0)
(664 -2.68453e-13 0)
(664 -1.5117e-13 0)
(664 -8.3505e-14 0)
(664 -9.88557e-14 0)
(664 -1.40525e-13 0)
(664 -1.21079e-13 0)
(664 -1.30789e-13 0)
(664 -2.9471e-13 0)
(664 -5.05516e-13 0)
(664 -6.6311e-13 0)
(664 -8.11582e-13 0)
(664 -9.29416e-13 0)
(664 -9.66438e-13 0)
(664 -9.44109e-13 0)
(664 -8.39046e-13 0)
(664 -5.43101e-13 0)
(664 -1.22345e-13 0)
(664 4.77574e-13 0)
(664 1.30238e-12 0)
(664 2.54323e-12 0)
(664 4.47339e-12 0)
(664 7.56539e-12 0)
(664 1.2593e-11 0)
(664 2.08431e-11 0)
(664 3.44496e-11 0)
(664 5.68707e-11 0)
(664 9.40068e-11 0)
(664 1.55795e-10 0)
(664 2.5859e-10 0)
(664 4.29572e-10 0)
(664 7.14152e-10 0)
(664 1.18814e-09 0)
(664 1.97801e-09 0)
(664 3.29503e-09 0)
(664 5.49244e-09 0)
(664 9.16129e-09 0)
(664 1.52915e-08 0)
(664 2.55425e-08 0)
(664 4.2699e-08 0)
(664 7.14381e-08 0)
(664 1.19623e-07 0)
(664 2.0049e-07 0)
(664 3.36342e-07 0)
(664 5.64803e-07 0)
(664 9.49429e-07 0)
(664 1.5977e-06 0)
(664 2.69166e-06 0)
(664 4.53999e-06 0)
(664 7.66696e-06 0)
(664 1.29643e-05 0)
(663.999 2.19508e-05 0)
(663.999 3.72183e-05 0)
(663.999 6.3196e-05 0)
(663.998 0.000107466 0)
(663.996 0.000183033 0)
(663.994 0.000312239 0)
(663.99 0.000533539 0)
(663.983 0.000913252 0)
(663.972 0.00156597 0)
(663.954 0.00269009 0)
(663.924 0.00462979 0)
(663.875 0.0079834 0)
(663.794 0.0137931 0)
(663.66 0.0238785 0)
(663.439 0.0414221 0)
(663.074 0.0720052 0)
(662.469 0.125429 0)
(661.467 0.218976 0)
(659.805 0.383094 0)
(657.047 0.671885 0)
(652.468 1.1807 0)
(644.884 2.08138 0)
(632.345 3.67209 0)
(611.945 6.50668 0)
(579.921 11.4577 0)
(664 2.3666e-14 0)
(664 3.46307e-14 0)
(664 4.70632e-14 0)
(664 7.29187e-14 0)
(664 7.5209e-14 0)
(664 4.57237e-14 0)
(664 -5.53687e-14 0)
(664 -1.52753e-13 0)
(664 -1.92698e-13 0)
(664 -2.13328e-13 0)
(664 -2.15793e-13 0)
(664 -2.97341e-13 0)
(664 -4.6361e-13 0)
(664 -6.35957e-13 0)
(664 -6.92945e-13 0)
(664 -6.568e-13 0)
(664 -6.10837e-13 0)
(664 -5.97382e-13 0)
(664 -6.12534e-13 0)
(664 -6.06889e-13 0)
(664 -5.81167e-13 0)
(664 -5.42615e-13 0)
(664 -4.9546e-13 0)
(664 -4.10381e-13 0)
(664 -2.53045e-13 0)
(664 -1.6101e-13 0)
(664 -2.01198e-13 0)
(664 -3.74761e-13 0)
(664 -5.78604e-13 0)
(664 -6.28628e-13 0)
(664 -5.47915e-13 0)
(664 -4.88587e-13 0)
(664 -4.16256e-13 0)
(664 -4.00264e-13 0)
(664 -3.64112e-13 0)
(664 -2.93324e-13 0)
(664 -2.88507e-13 0)
(664 -3.3981e-13 0)
(664 -4.08711e-13 0)
(664 -4.64686e-13 0)
(664 -4.48635e-13 0)
(664 -3.88869e-13 0)
(664 -3.67365e-13 0)
(664 -4.69446e-13 0)
(664 -6.27625e-13 0)
(664 -7.64676e-13 0)
(664 -8.65696e-13 0)
(664 -8.99834e-13 0)
(664 -8.98551e-13 0)
(664 -8.951e-13 0)
(664 -9.20027e-13 0)
(664 -9.91388e-13 0)
(664 -1.08354e-12 0)
(664 -1.22519e-12 0)
(664 -1.28598e-12 0)
(664 -1.25231e-12 0)
(664 -1.18516e-12 0)
(664 -1.17254e-12 0)
(664 -1.19083e-12 0)
(664 -1.17882e-12 0)
(664 -1.08552e-12 0)
(664 -9.07926e-13 0)
(664 -7.18958e-13 0)
(664 -6.38467e-13 0)
(664 -5.91048e-13 0)
(664 -5.27833e-13 0)
(664 -4.51011e-13 0)
(664 -4.87448e-13 0)
(664 -6.73196e-13 0)
(664 -8.6301e-13 0)
(664 -9.96985e-13 0)
(664 -9.81647e-13 0)
(664 -9.19553e-13 0)
(664 -9.12203e-13 0)
(664 -9.79622e-13 0)
(664 -1.05912e-12 0)
(664 -1.11215e-12 0)
(664 -1.18272e-12 0)
(664 -1.27182e-12 0)
(664 -1.37596e-12 0)
(664 -1.42173e-12 0)
(664 -1.25307e-12 0)
(664 -1.04462e-12 0)
(664 -8.8832e-13 0)
(664 -8.07764e-13 0)
(664 -7.09319e-13 0)
(664 -6.09242e-13 0)
(664 -5.21217e-13 0)
(664 -5.08666e-13 0)
(664 -5.631e-13 0)
(664 -6.57815e-13 0)
(664 -7.4032e-13 0)
(664 -8.71924e-13 0)
(664 -9.33179e-13 0)
(664 -9.79617e-13 0)
(664 -1.05677e-12 0)
(664 -1.15097e-12 0)
(664 -1.18869e-12 0)
(664 -1.22713e-12 0)
(664 -1.22202e-12 0)
(664 -1.14102e-12 0)
(664 -1.11321e-12 0)
(664 -1.1439e-12 0)
(664 -1.21247e-12 0)
(664 -1.27962e-12 0)
(664 -1.29599e-12 0)
(664 -1.31182e-12 0)
(664 -1.23912e-12 0)
(664 -1.14077e-12 0)
(664 -1.02417e-12 0)
(664 -9.62934e-13 0)
(664 -9.90096e-13 0)
(664 -1.02813e-12 0)
(664 -1.15183e-12 0)
(664 -1.28108e-12 0)
(664 -1.29917e-12 0)
(664 -1.09403e-12 0)
(664 -7.14755e-13 0)
(664 -4.40202e-13 0)
(664 -3.76575e-13 0)
(664 -3.39425e-13 0)
(664 -3.28622e-13 0)
(664 -4.16324e-13 0)
(664 -5.87441e-13 0)
(664 -7.67793e-13 0)
(664 -8.82216e-13 0)
(664 -9.04205e-13 0)
(664 -9.74167e-13 0)
(664 -1.1042e-12 0)
(664 -1.28264e-12 0)
(664 -1.46308e-12 0)
(664 -1.64137e-12 0)
(664 -1.7258e-12 0)
(664 -1.74012e-12 0)
(664 -1.78081e-12 0)
(664 -1.78298e-12 0)
(664 -1.63681e-12 0)
(664 -1.49553e-12 0)
(664 -1.46865e-12 0)
(664 -1.49878e-12 0)
(664 -1.50843e-12 0)
(664 -1.43542e-12 0)
(664 -1.31487e-12 0)
(664 -1.23598e-12 0)
(664 -1.21892e-12 0)
(664 -1.27131e-12 0)
(664 -1.31863e-12 0)
(664 -1.34843e-12 0)
(664 -1.39368e-12 0)
(664 -1.50627e-12 0)
(664 -1.65868e-12 0)
(664 -1.79326e-12 0)
(664 -1.88537e-12 0)
(664 -1.99438e-12 0)
(664 -2.06423e-12 0)
(664 -2.11538e-12 0)
(664 -2.08026e-12 0)
(664 -1.95822e-12 0)
(664 -1.84023e-12 0)
(664 -1.72739e-12 0)
(664 -1.63231e-12 0)
(664 -1.4961e-12 0)
(664 -1.34317e-12 0)
(664 -1.27663e-12 0)
(664 -1.36029e-12 0)
(664 -1.50217e-12 0)
(664 -1.61141e-12 0)
(664 -1.71821e-12 0)
(664 -1.78492e-12 0)
(664 -1.7515e-12 0)
(664 -1.65008e-12 0)
(664 -1.55233e-12 0)
(664 -1.50372e-12 0)
(664 -1.34073e-12 0)
(664 -1.09648e-12 0)
(664 -8.70739e-13 0)
(664 -7.39191e-13 0)
(664 -7.13503e-13 0)
(664 -7.59434e-13 0)
(664 -8.44073e-13 0)
(664 -9.38265e-13 0)
(664 -9.8364e-13 0)
(664 -1.06078e-12 0)
(664 -1.08273e-12 0)
(664 -9.63393e-13 0)
(664 -9.32232e-13 0)
(664 -9.64953e-13 0)
(664 -9.57998e-13 0)
(664 -9.67001e-13 0)
(664 -9.89204e-13 0)
(664 -1.08467e-12 0)
(664 -1.10815e-12 0)
(664 -1.01448e-12 0)
(664 -8.55272e-13 0)
(664 -6.01824e-13 0)
(664 -4.11382e-13 0)
(664 -4.49084e-13 0)
(664 -5.96369e-13 0)
(664 -7.42166e-13 0)
(664 -7.93496e-13 0)
(664 -7.53704e-13 0)
(664 -5.77728e-13 0)
(664 -4.35288e-13 0)
(664 -4.28308e-13 0)
(664 -4.78439e-13 0)
(664 -6.23027e-13 0)
(664 -8.72534e-13 0)
(664 -1.0859e-12 0)
(664 -1.18642e-12 0)
(664 -1.14337e-12 0)
(664 -1.00617e-12 0)
(664 -1.00231e-12 0)
(664 -1.1108e-12 0)
(664 -1.24582e-12 0)
(664 -1.28357e-12 0)
(664 -1.31019e-12 0)
(664 -1.31298e-12 0)
(664 -1.30368e-12 0)
(664 -1.31876e-12 0)
(664 -1.26341e-12 0)
(664 -1.27235e-12 0)
(664 -1.38232e-12 0)
(664 -1.51474e-12 0)
(664 -1.62629e-12 0)
(664 -1.6327e-12 0)
(664 -1.51418e-12 0)
(664 -1.22852e-12 0)
(664 -9.16896e-13 0)
(664 -6.24126e-13 0)
(664 -3.50409e-13 0)
(664 -1.19064e-13 0)
(664 8.67647e-14 0)
(664 2.14232e-13 0)
(664 2.50626e-13 0)
(664 1.61554e-13 0)
(664 -1.14726e-14 0)
(664 -1.64155e-13 0)
(664 -2.10823e-13 0)
(664 -1.25515e-13 0)
(664 6.47814e-14 0)
(664 4.42817e-13 0)
(664 9.73448e-13 0)
(664 1.86275e-12 0)
(664 3.54691e-12 0)
(664 6.59451e-12 0)
(664 1.17966e-11 0)
(664 2.03325e-11 0)
(664 3.42724e-11 0)
(664 5.70717e-11 0)
(664 9.46112e-11 0)
(664 1.5662e-10 0)
(664 2.5936e-10 0)
(664 4.29809e-10 0)
(664 7.12583e-10 0)
(664 1.1816e-09 0)
(664 1.95996e-09 0)
(664 3.25229e-09 0)
(664 5.3989e-09 0)
(664 8.9663e-09 0)
(664 1.48978e-08 0)
(664 2.47654e-08 0)
(664 4.11896e-08 0)
(664 6.85425e-08 0)
(664 1.14123e-07 0)
(664 1.90125e-07 0)
(664 3.1693e-07 0)
(664 5.28637e-07 0)
(664 8.82329e-07 0)
(664 1.47364e-06 0)
(664 2.46291e-06 0)
(664 4.11923e-06 0)
(664 6.89446e-06 0)
(664 1.15482e-05 0)
(664 1.93583e-05 0)
(664 3.24767e-05 0)
(664 5.45303e-05 0)
(663.999 9.16385e-05 0)
(663.999 0.000154136 0)
(663.998 0.000259493 0)
(663.997 0.000437277 0)
(663.995 0.00073758 0)
(663.991 0.00124536 0)
(663.986 0.00210486 0)
(663.976 0.0035613 0)
(663.962 0.00603201 0)
(663.937 0.0102281 0)
(663.898 0.0173627 0)
(663.834 0.029508 0)
(663.73 0.0502078 0)
(663.561 0.0855302 0)
(663.286 0.145879 0)
(662.84 0.249108 0)
(662.116 0.425911 0)
(660.946 0.729014 0)
(659.056 1.24933 0)
(656.016 2.14256 0)
(651.148 3.67777 0)
(643.445 6.30567 0)
(631.377 10.8005 0)
(613.81 18.3122 0)
(664 -1.47751e-14 0)
(664 -4.12019e-14 0)
(664 -6.26801e-14 0)
(664 -7.88902e-14 0)
(664 -8.39776e-14 0)
(664 -5.69402e-14 0)
(664 1.0485e-14 0)
(664 6.97801e-15 0)
(664 -8.54108e-14 0)
(664 -1.36967e-13 0)
(664 -1.96476e-13 0)
(664 -2.71948e-13 0)
(664 -3.10991e-13 0)
(664 -3.88862e-13 0)
(664 -4.32013e-13 0)
(664 -4.89512e-13 0)
(664 -5.67994e-13 0)
(664 -6.21093e-13 0)
(664 -6.342e-13 0)
(664 -6.49162e-13 0)
(664 -6.19943e-13 0)
(664 -5.62647e-13 0)
(664 -5.11548e-13 0)
(664 -4.40904e-13 0)
(664 -3.66336e-13 0)
(664 -3.60384e-13 0)
(664 -4.03056e-13 0)
(664 -4.4163e-13 0)
(664 -4.63925e-13 0)
(664 -4.69072e-13 0)
(664 -4.58597e-13 0)
(664 -4.58033e-13 0)
(664 -4.27356e-13 0)
(664 -3.85227e-13 0)
(664 -3.67083e-13 0)
(664 -3.60773e-13 0)
(664 -3.18634e-13 0)
(664 -2.66414e-13 0)
(664 -2.61697e-13 0)
(664 -2.33879e-13 0)
(664 -2.4978e-13 0)
(664 -3.08192e-13 0)
(664 -3.4932e-13 0)
(664 -3.94386e-13 0)
(664 -5.28205e-13 0)
(664 -7.18712e-13 0)
(664 -8.92362e-13 0)
(664 -9.64905e-13 0)
(664 -9.8203e-13 0)
(664 -9.68372e-13 0)
(664 -9.5523e-13 0)
(664 -9.18215e-13 0)
(664 -8.73497e-13 0)
(664 -8.6626e-13 0)
(664 -8.71153e-13 0)
(664 -8.35623e-13 0)
(664 -7.70317e-13 0)
(664 -7.33962e-13 0)
(664 -6.14451e-13 0)
(664 -4.75244e-13 0)
(664 -4.23696e-13 0)
(664 -4.15726e-13 0)
(664 -4.4498e-13 0)
(664 -5.06185e-13 0)
(664 -5.60069e-13 0)
(664 -5.85384e-13 0)
(664 -6.14109e-13 0)
(664 -6.17076e-13 0)
(664 -5.63214e-13 0)
(664 -5.00195e-13 0)
(664 -5.0632e-13 0)
(664 -7.0277e-13 0)
(664 -9.23028e-13 0)
(664 -9.4825e-13 0)
(664 -8.03126e-13 0)
(664 -5.29296e-13 0)
(664 -3.78964e-13 0)
(664 -4.29134e-13 0)
(664 -5.30586e-13 0)
(664 -6.20828e-13 0)
(664 -6.7639e-13 0)
(664 -6.77854e-13 0)
(664 -6.22128e-13 0)
(664 -5.47442e-13 0)
(664 -4.9991e-13 0)
(664 -5.68795e-13 0)
(664 -7.22462e-13 0)
(664 -9.20776e-13 0)
(664 -1.06664e-12 0)
(664 -1.15392e-12 0)
(664 -1.18454e-12 0)
(664 -1.22462e-12 0)
(664 -1.24822e-12 0)
(664 -1.24663e-12 0)
(664 -1.23037e-12 0)
(664 -1.26533e-12 0)
(664 -1.30943e-12 0)
(664 -1.3151e-12 0)
(664 -1.24983e-12 0)
(664 -1.16193e-12 0)
(664 -1.12537e-12 0)
(664 -1.06457e-12 0)
(664 -9.69848e-13 0)
(664 -9.5944e-13 0)
(664 -1.06747e-12 0)
(664 -1.1931e-12 0)
(664 -1.21897e-12 0)
(664 -1.22243e-12 0)
(664 -1.22028e-12 0)
(664 -1.18941e-12 0)
(664 -1.1765e-12 0)
(664 -1.14804e-12 0)
(664 -1.09314e-12 0)
(664 -1.02833e-12 0)
(664 -9.84737e-13 0)
(664 -1.02406e-12 0)
(664 -1.09041e-12 0)
(664 -1.1065e-12 0)
(664 -1.03266e-12 0)
(664 -9.23434e-13 0)
(664 -8.15673e-13 0)
(664 -7.41472e-13 0)
(664 -8.12963e-13 0)
(664 -9.34613e-13 0)
(664 -1.03436e-12 0)
(664 -1.05469e-12 0)
(664 -1.02052e-12 0)
(664 -9.02396e-13 0)
(664 -7.42496e-13 0)
(664 -6.06009e-13 0)
(664 -5.04295e-13 0)
(664 -3.22026e-13 0)
(664 -1.84284e-13 0)
(664 -3.80994e-13 0)
(664 -8.1405e-13 0)
(664 -1.1434e-12 0)
(664 -1.24865e-12 0)
(664 -1.21507e-12 0)
(664 -1.1466e-12 0)
(664 -1.03726e-12 0)
(664 -1.02318e-12 0)
(664 -1.13718e-12 0)
(664 -1.2258e-12 0)
(664 -1.12877e-12 0)
(664 -9.87646e-13 0)
(664 -9.1177e-13 0)
(664 -8.7995e-13 0)
(664 -8.16498e-13 0)
(664 -6.91908e-13 0)
(664 -5.67815e-13 0)
(664 -5.08026e-13 0)
(664 -5.07663e-13 0)
(664 -5.80716e-13 0)
(664 -6.53391e-13 0)
(664 -6.96291e-13 0)
(664 -7.58888e-13 0)
(664 -8.55827e-13 0)
(664 -9.87596e-13 0)
(664 -1.13562e-12 0)
(664 -1.28054e-12 0)
(664 -1.37415e-12 0)
(664 -1.53817e-12 0)
(664 -1.64256e-12 0)
(664 -1.60587e-12 0)
(664 -1.50697e-12 0)
(664 -1.29412e-12 0)
(664 -9.91516e-13 0)
(664 -7.24307e-13 0)
(664 -5.61833e-13 0)
(664 -5.24542e-13 0)
(664 -6.28569e-13 0)
(664 -8.03348e-13 0)
(664 -9.93536e-13 0)
(664 -1.15223e-12 0)
(664 -1.23934e-12 0)
(664 -1.22412e-12 0)
(664 -1.2198e-12 0)
(664 -1.29708e-12 0)
(664 -1.33723e-12 0)
(664 -1.3001e-12 0)
(664 -1.31469e-12 0)
(664 -1.39812e-12 0)
(664 -1.53446e-12 0)
(664 -1.68447e-12 0)
(664 -1.82418e-12 0)
(664 -1.9543e-12 0)
(664 -1.96775e-12 0)
(664 -1.91438e-12 0)
(664 -1.78216e-12 0)
(664 -1.52076e-12 0)
(664 -1.21867e-12 0)
(664 -1.03765e-12 0)
(664 -9.36769e-13 0)
(664 -7.57511e-13 0)
(664 -5.23065e-13 0)
(664 -4.08997e-13 0)
(664 -4.09547e-13 0)
(664 -4.44404e-13 0)
(664 -5.21087e-13 0)
(664 -5.84508e-13 0)
(664 -5.75628e-13 0)
(664 -5.64439e-13 0)
(664 -5.96301e-13 0)
(664 -6.43929e-13 0)
(664 -7.45279e-13 0)
(664 -9.15193e-13 0)
(664 -1.11011e-12 0)
(664 -1.26389e-12 0)
(664 -1.34817e-12 0)
(664 -1.46239e-12 0)
(664 -1.53459e-12 0)
(664 -1.59637e-12 0)
(664 -1.60699e-12 0)
(664 -1.55695e-12 0)
(664 -1.44113e-12 0)
(664 -1.33256e-12 0)
(664 -1.32883e-12 0)
(664 -1.33056e-12 0)
(664 -1.27932e-12 0)
(664 -1.21057e-12 0)
(664 -1.12015e-12 0)
(664 -1.03239e-12 0)
(664 -1.01933e-12 0)
(664 -1.01685e-12 0)
(664 -1.03435e-12 0)
(664 -1.03009e-12 0)
(664 -9.7304e-13 0)
(664 -8.80086e-13 0)
(664 -7.44239e-13 0)
(664 -5.38156e-13 0)
(664 -3.66661e-13 0)
(664 -2.41921e-13 0)
(664 -1.30908e-13 0)
(664 -3.07667e-14 0)
(664 5.81646e-14 0)
(664 1.3786e-13 0)
(664 1.95735e-13 0)
(664 2.95535e-13 0)
(664 5.88039e-13 0)
(664 1.07783e-12 0)
(664 1.72352e-12 0)
(664 2.69241e-12 0)
(664 4.21609e-12 0)
(664 6.7884e-12 0)
(664 1.1137e-11 0)
(664 1.83151e-11 0)
(664 3.0212e-11 0)
(664 4.98594e-11 0)
(664 8.23057e-11 0)
(664 1.35978e-10 0)
(664 2.24748e-10 0)
(664 3.71498e-10 0)
(664 6.13922e-10 0)
(664 1.01441e-09 0)
(664 1.67614e-09 0)
(664 2.76961e-09 0)
(664 4.57677e-09 0)
(664 7.5644e-09 0)
(664 1.25051e-08 0)
(664 2.06778e-08 0)
(664 3.42006e-08 0)
(664 5.65821e-08 0)
(664 9.36361e-08 0)
(664 1.54998e-07 0)
(664 2.56644e-07 0)
(664 4.25067e-07 0)
(664 7.04214e-07 0)
(664 1.16701e-06 0)
(664 1.93447e-06 0)
(664 3.20752e-06 0)
(664 5.31981e-06 0)
(664 8.82547e-06 0)
(664 1.46451e-05 0)
(664 2.43084e-05 0)
(664 4.03577e-05 0)
(664 6.70188e-05 0)
(663.999 0.000111317 0)
(663.999 0.000184933 0)
(663.998 0.000307288 0)
(663.997 0.000510677 0)
(663.996 0.000848802 0)
(663.993 0.00141095 0)
(663.989 0.00234557 0)
(663.982 0.00389942 0)
(663.971 0.00648256 0)
(663.953 0.0107762 0)
(663.924 0.0179114 0)
(663.877 0.0297654 0)
(663.802 0.0494511 0)
(663.681 0.0821262 0)
(663.486 0.136326 0)
(663.175 0.226157 0)
(662.677 0.374883 0)
(661.882 0.620793 0)
(660.615 1.02663 0)
(658.607 1.69487 0)
(655.433 2.79089 0)
(650.475 4.57989 0)
(642.765 7.46947 0)
(631.547 12.0785 0)
(664 -3.70742e-14 0)
(664 -7.51785e-14 0)
(664 -1.03918e-13 0)
(664 -1.34898e-13 0)
(664 -1.15938e-13 0)
(664 -5.85312e-14 0)
(664 1.90791e-14 0)
(664 3.89138e-14 0)
(664 -1.78828e-14 0)
(664 -6.884e-14 0)
(664 -8.82925e-14 0)
(664 -2.48416e-14 0)
(664 8.57007e-14 0)
(664 1.56917e-13 0)
(664 1.14799e-13 0)
(664 8.69937e-14 0)
(664 3.78259e-14 0)
(664 -5.94533e-14 0)
(664 -1.55828e-13 0)
(664 -1.90527e-13 0)
(664 -1.82849e-13 0)
(664 -1.46882e-13 0)
(664 -1.29932e-13 0)
(664 -1.70814e-13 0)
(664 -2.86523e-13 0)
(664 -3.70938e-13 0)
(664 -4.50218e-13 0)
(664 -4.82717e-13 0)
(664 -4.52428e-13 0)
(664 -4.18804e-13 0)
(664 -4.01464e-13 0)
(664 -3.70759e-13 0)
(664 -3.71957e-13 0)
(664 -3.82693e-13 0)
(664 -4.60205e-13 0)
(664 -5.98236e-13 0)
(664 -7.46723e-13 0)
(664 -9.22825e-13 0)
(664 -9.73293e-13 0)
(664 -9.07556e-13 0)
(664 -8.35313e-13 0)
(664 -7.95666e-13 0)
(664 -7.64644e-13 0)
(664 -7.39514e-13 0)
(664 -7.5089e-13 0)
(664 -8.1356e-13 0)
(664 -8.37934e-13 0)
(664 -8.14367e-13 0)
(664 -7.24204e-13 0)
(664 -6.14948e-13 0)
(664 -5.64323e-13 0)
(664 -5.09821e-13 0)
(664 -4.50257e-13 0)
(664 -3.46267e-13 0)
(664 -2.8221e-13 0)
(664 -3.64353e-13 0)
(664 -5.29786e-13 0)
(664 -6.64847e-13 0)
(664 -7.43036e-13 0)
(664 -7.57555e-13 0)
(664 -7.70596e-13 0)
(664 -7.68333e-13 0)
(664 -7.63847e-13 0)
(664 -7.71222e-13 0)
(664 -7.98642e-13 0)
(664 -8.11154e-13 0)
(664 -8.1314e-13 0)
(664 -7.98611e-13 0)
(664 -8.06919e-13 0)
(664 -8.46335e-13 0)
(664 -9.06927e-13 0)
(664 -9.34043e-13 0)
(664 -9.45358e-13 0)
(664 -9.92957e-13 0)
(664 -9.86389e-13 0)
(664 -9.43323e-13 0)
(664 -8.84563e-13 0)
(664 -8.70133e-13 0)
(664 -9.24499e-13 0)
(664 -9.06552e-13 0)
(664 -9.07897e-13 0)
(664 -9.6374e-13 0)
(664 -1.04173e-12 0)
(664 -1.04719e-12 0)
(664 -9.86346e-13 0)
(664 -8.89492e-13 0)
(664 -8.58435e-13 0)
(664 -8.4792e-13 0)
(664 -7.8127e-13 0)
(664 -6.51192e-13 0)
(664 -5.93151e-13 0)
(664 -5.93407e-13 0)
(664 -5.97174e-13 0)
(664 -7.32776e-13 0)
(664 -9.87185e-13 0)
(664 -1.19036e-12 0)
(664 -1.22192e-12 0)
(664 -1.19315e-12 0)
(664 -1.11379e-12 0)
(664 -1.06754e-12 0)
(664 -1.05002e-12 0)
(664 -1.02239e-12 0)
(664 -9.62371e-13 0)
(664 -8.82144e-13 0)
(664 -7.62555e-13 0)
(664 -6.96826e-13 0)
(664 -6.7916e-13 0)
(664 -6.66732e-13 0)
(664 -6.0731e-13 0)
(664 -6.33788e-13 0)
(664 -7.59977e-13 0)
(664 -8.79503e-13 0)
(664 -9.68272e-13 0)
(664 -1.00771e-12 0)
(664 -1.02786e-12 0)
(664 -1.0703e-12 0)
(664 -1.22934e-12 0)
(664 -1.45495e-12 0)
(664 -1.56671e-12 0)
(664 -1.58974e-12 0)
(664 -1.67669e-12 0)
(664 -1.77387e-12 0)
(664 -1.72367e-12 0)
(664 -1.52682e-12 0)
(664 -1.35728e-12 0)
(664 -1.30974e-12 0)
(664 -1.28286e-12 0)
(664 -1.25211e-12 0)
(664 -1.07855e-12 0)
(664 -8.25894e-13 0)
(664 -5.99884e-13 0)
(664 -4.70276e-13 0)
(664 -5.31506e-13 0)
(664 -7.42123e-13 0)
(664 -9.6641e-13 0)
(664 -1.18784e-12 0)
(664 -1.4135e-12 0)
(664 -1.66717e-12 0)
(664 -1.84579e-12 0)
(664 -1.88618e-12 0)
(664 -1.83807e-12 0)
(664 -1.85344e-12 0)
(664 -1.89676e-12 0)
(664 -1.91247e-12 0)
(664 -1.89281e-12 0)
(664 -1.79237e-12 0)
(664 -1.73608e-12 0)
(664 -1.75905e-12 0)
(664 -1.71423e-12 0)
(664 -1.62907e-12 0)
(664 -1.49226e-12 0)
(664 -1.29441e-12 0)
(664 -1.10479e-12 0)
(664 -9.61582e-13 0)
(664 -8.90242e-13 0)
(664 -8.735e-13 0)
(664 -9.12249e-13 0)
(664 -9.81595e-13 0)
(664 -1.07878e-12 0)
(664 -1.14012e-12 0)
(664 -1.14074e-12 0)
(664 -1.17072e-12 0)
(664 -1.3576e-12 0)
(664 -1.5656e-12 0)
(664 -1.64361e-12 0)
(664 -1.70988e-12 0)
(664 -1.79773e-12 0)
(664 -1.85033e-12 0)
(664 -1.87119e-12 0)
(664 -1.96912e-12 0)
(664 -2.03891e-12 0)
(664 -2.08884e-12 0)
(664 -2.15064e-12 0)
(664 -2.20028e-12 0)
(664 -2.14868e-12 0)
(664 -2.02943e-12 0)
(664 -1.87953e-12 0)
(664 -1.615e-12 0)
(664 -1.29571e-12 0)
(664 -9.52376e-13 0)
(664 -6.94161e-13 0)
(664 -5.48887e-13 0)
(664 -4.07601e-13 0)
(664 -3.32429e-13 0)
(664 -4.01497e-13 0)
(664 -4.5621e-13 0)
(664 -4.52628e-13 0)
(664 -3.98988e-13 0)
(664 -3.38817e-13 0)
(664 -2.54701e-13 0)
(664 -1.72142e-13 0)
(664 -1.97769e-13 0)
(664 -2.69412e-13 0)
(664 -4.34556e-13 0)
(664 -7.08365e-13 0)
(664 -9.2282e-13 0)
(664 -9.53008e-13 0)
(664 -9.58625e-13 0)
(664 -9.09518e-13 0)
(664 -7.61085e-13 0)
(664 -6.35906e-13 0)
(664 -7.17491e-13 0)
(664 -8.79958e-13 0)
(664 -9.33746e-13 0)
(664 -8.29782e-13 0)
(664 -6.03053e-13 0)
(664 -3.56018e-13 0)
(664 -2.43425e-13 0)
(664 -2.84443e-13 0)
(664 -4.14274e-13 0)
(664 -6.18874e-13 0)
(664 -7.32783e-13 0)
(664 -8.6149e-13 0)
(664 -1.09019e-12 0)
(664 -1.37033e-12 0)
(664 -1.54325e-12 0)
(664 -1.62774e-12 0)
(664 -1.72398e-12 0)
(664 -1.76005e-12 0)
(664 -1.76265e-12 0)
(664 -1.68227e-12 0)
(664 -1.58031e-12 0)
(664 -1.57845e-12 0)
(664 -1.70398e-12 0)
(664 -1.8656e-12 0)
(664 -1.93055e-12 0)
(664 -2.03883e-12 0)
(664 -2.15164e-12 0)
(664 -2.14457e-12 0)
(664 -2.09172e-12 0)
(664 -2.07335e-12 0)
(664 -2.06052e-12 0)
(664 -1.92892e-12 0)
(664 -1.69708e-12 0)
(664 -1.37234e-12 0)
(664 -9.96049e-13 0)
(664 -6.41252e-13 0)
(664 -3.07535e-13 0)
(664 6.26688e-14 0)
(664 5.40962e-13 0)
(664 1.30248e-12 0)
(664 2.62635e-12 0)
(664 4.74128e-12 0)
(664 7.98711e-12 0)
(664 1.3067e-11 0)
(664 2.13673e-11 0)
(664 3.5026e-11 0)
(664 5.75827e-11 0)
(664 9.48084e-11 0)
(664 1.56131e-10 0)
(664 2.56977e-10 0)
(664 4.22764e-10 0)
(664 6.95322e-10 0)
(664 1.14339e-09 0)
(664 1.88011e-09 0)
(664 3.09156e-09 0)
(664 5.08385e-09 0)
(664 8.3606e-09 0)
(664 1.37503e-08 0)
(664 2.2616e-08 0)
(664 3.72004e-08 0)
(664 6.11939e-08 0)
(664 1.00669e-07 0)
(664 1.65618e-07 0)
(664 2.72483e-07 0)
(664 4.48319e-07 0)
(664 7.37642e-07 0)
(664 1.2137e-06 0)
(664 1.99699e-06 0)
(664 3.28577e-06 0)
(664 5.40612e-06 0)
(664 8.89437e-06 0)
(664 1.46325e-05 0)
(664 2.40705e-05 0)
(664 3.95918e-05 0)
(664 6.51131e-05 0)
(664 0.000107069 0)
(663.999 0.000176026 0)
(663.999 0.000289331 0)
(663.998 0.000475445 0)
(663.997 0.000781044 0)
(663.995 0.00128263 0)
(663.992 0.00210552 0)
(663.987 0.00345481 0)
(663.979 0.00566589 0)
(663.966 0.00928675 0)
(663.946 0.0152117 0)
(663.914 0.0248987 0)
(663.862 0.0407209 0)
(663.78 0.0665353 0)
(663.649 0.108599 0)
(663.441 0.177043 0)
(663.111 0.288218 0)
(662.588 0.468452 0)
(661.763 0.759899 0)
(660.463 1.22985 0)
(658.421 1.98421 0)
(655.242 3.1896 0)
(650.288 5.09551 0)
(643.018 8.0852 0)
(664 3.70953e-14 0)
(664 7.62177e-14 0)
(664 1.40196e-13 0)
(664 1.99467e-13 0)
(664 2.10592e-13 0)
(664 1.82895e-13 0)
(664 1.42013e-13 0)
(664 1.14364e-13 0)
(664 1.14937e-13 0)
(664 1.05612e-13 0)
(664 1.65194e-13 0)
(664 2.11522e-13 0)
(664 2.66282e-13 0)
(664 3.54344e-13 0)
(664 3.97446e-13 0)
(664 3.56836e-13 0)
(664 2.96892e-13 0)
(664 2.57953e-13 0)
(664 2.55663e-13 0)
(664 2.63591e-13 0)
(664 2.5782e-13 0)
(664 2.41059e-13 0)
(664 2.58699e-13 0)
(664 2.16938e-13 0)
(664 1.13473e-13 0)
(664 5.42817e-15 0)
(664 -4.27676e-14 0)
(664 -8.95355e-14 0)
(664 -1.56551e-13 0)
(664 -2.66627e-13 0)
(664 -3.89392e-13 0)
(664 -4.77156e-13 0)
(664 -5.70253e-13 0)
(664 -5.15829e-13 0)
(664 -3.7206e-13 0)
(664 -2.59948e-13 0)
(664 -2.93704e-13 0)
(664 -3.72408e-13 0)
(664 -4.56031e-13 0)
(664 -5.70849e-13 0)
(664 -6.82364e-13 0)
(664 -7.96657e-13 0)
(664 -8.93017e-13 0)
(664 -9.03346e-13 0)
(664 -9.17069e-13 0)
(664 -9.07492e-13 0)
(664 -8.32644e-13 0)
(664 -7.06559e-13 0)
(664 -5.66568e-13 0)
(664 -4.88845e-13 0)
(664 -5.39126e-13 0)
(664 -6.89747e-13 0)
(664 -8.30697e-13 0)
(664 -9.36632e-13 0)
(664 -9.54167e-13 0)
(664 -9.43508e-13 0)
(664 -8.59885e-13 0)
(664 -7.47051e-13 0)
(664 -7.45115e-13 0)
(664 -8.17807e-13 0)
(664 -8.35148e-13 0)
(664 -8.09856e-13 0)
(664 -8.09946e-13 0)
(664 -8.42335e-13 0)
(664 -8.69928e-13 0)
(664 -8.7357e-13 0)
(664 -8.01233e-13 0)
(664 -7.26307e-13 0)
(664 -7.14803e-13 0)
(664 -7.77754e-13 0)
(664 -7.90826e-13 0)
(664 -6.87462e-13 0)
(664 -5.48414e-13 0)
(664 -5.25885e-13 0)
(664 -6.1854e-13 0)
(664 -7.48986e-13 0)
(664 -7.93874e-13 0)
(664 -7.26558e-13 0)
(664 -6.04367e-13 0)
(664 -5.28231e-13 0)
(664 -4.99434e-13 0)
(664 -4.99318e-13 0)
(664 -5.13237e-13 0)
(664 -4.98089e-13 0)
(664 -4.42221e-13 0)
(664 -3.39254e-13 0)
(664 -2.44278e-13 0)
(664 -2.01992e-13 0)
(664 -1.93996e-13 0)
(664 -2.65689e-13 0)
(664 -3.79405e-13 0)
(664 -4.82392e-13 0)
(664 -5.7976e-13 0)
(664 -6.82311e-13 0)
(664 -8.16445e-13 0)
(664 -9.23889e-13 0)
(664 -9.90898e-13 0)
(664 -1.03318e-12 0)
(664 -1.07341e-12 0)
(664 -1.05188e-12 0)
(664 -1.03842e-12 0)
(664 -1.0772e-12 0)
(664 -1.14319e-12 0)
(664 -1.16305e-12 0)
(664 -1.1421e-12 0)
(664 -1.10566e-12 0)
(664 -1.18456e-12 0)
(664 -1.30961e-12 0)
(664 -1.33023e-12 0)
(664 -1.29306e-12 0)
(664 -1.21498e-12 0)
(664 -1.10744e-12 0)
(664 -9.69435e-13 0)
(664 -8.14452e-13 0)
(664 -7.18829e-13 0)
(664 -6.6296e-13 0)
(664 -5.94519e-13 0)
(664 -5.40079e-13 0)
(664 -5.47e-13 0)
(664 -5.7062e-13 0)
(664 -4.88771e-13 0)
(664 -3.57256e-13 0)
(664 -3.36512e-13 0)
(664 -4.67487e-13 0)
(664 -5.88789e-13 0)
(664 -7.14139e-13 0)
(664 -8.13572e-13 0)
(664 -9.00311e-13 0)
(664 -9.893e-13 0)
(664 -1.05043e-12 0)
(664 -1.19006e-12 0)
(664 -1.42984e-12 0)
(664 -1.64282e-12 0)
(664 -1.62188e-12 0)
(664 -1.51706e-12 0)
(664 -1.51801e-12 0)
(664 -1.47804e-12 0)
(664 -1.29743e-12 0)
(664 -1.1267e-12 0)
(664 -1.15238e-12 0)
(664 -1.21718e-12 0)
(664 -1.22717e-12 0)
(664 -1.29298e-12 0)
(664 -1.52051e-12 0)
(664 -1.75205e-12 0)
(664 -1.91286e-12 0)
(664 -1.96896e-12 0)
(664 -1.85175e-12 0)
(664 -1.61226e-12 0)
(664 -1.31309e-12 0)
(664 -1.03624e-12 0)
(664 -9.33474e-13 0)
(664 -9.10191e-13 0)
(664 -9.20473e-13 0)
(664 -8.84284e-13 0)
(664 -7.95977e-13 0)
(664 -7.24934e-13 0)
(664 -7.76739e-13 0)
(664 -9.07777e-13 0)
(664 -1.09068e-12 0)
(664 -1.2892e-12 0)
(664 -1.40365e-12 0)
(664 -1.43522e-12 0)
(664 -1.38854e-12 0)
(664 -1.3433e-12 0)
(664 -1.3813e-12 0)
(664 -1.48128e-12 0)
(664 -1.60745e-12 0)
(664 -1.67129e-12 0)
(664 -1.68071e-12 0)
(664 -1.59402e-12 0)
(664 -1.45283e-12 0)
(664 -1.314e-12 0)
(664 -1.19704e-12 0)
(664 -1.20846e-12 0)
(664 -1.23543e-12 0)
(664 -1.21016e-12 0)
(664 -1.16143e-12 0)
(664 -1.11569e-12 0)
(664 -1.15453e-12 0)
(664 -1.14012e-12 0)
(664 -1.07785e-12 0)
(664 -1.05128e-12 0)
(664 -1.11109e-12 0)
(664 -1.05727e-12 0)
(664 -9.32877e-13 0)
(664 -9.27144e-13 0)
(664 -9.66642e-13 0)
(664 -1.0583e-12 0)
(664 -1.21509e-12 0)
(664 -1.3523e-12 0)
(664 -1.33725e-12 0)
(664 -1.17633e-12 0)
(664 -1.04341e-12 0)
(664 -9.53747e-13 0)
(664 -8.87632e-13 0)
(664 -8.38202e-13 0)