/*--------------------------------*- C++ -*----------------------------------*\
| =========                 |                                                 |
| \\      /  F ield         | OpenFOAM: The Open Source CFD Toolbox           |
|  \\    /   O peration     | Version:  2412                                  |
|   \\  /    A nd           | Website:  www.openfoam.com                      |
|    \\/     M anipulation  |                                                 |
\*---------------------------------------------------------------------------*/
FoamFile
{
    version     2.0;
    format      ascii;
    arch        "LSB;label=32;scalar=64";
    class       volScalarField;
    location    "4";
    object      p;
}
// * * * * * * * * * * * * * * * * * * * * * * * * * * * * * * * * * * * * * //

dimensions      [1 -1 -2 0 0 0 0];

internalField   nonuniform List<scalar> 
5250
(
1
1.00003
1.00008
1.00023
1.00048
1.00138
1.00274
1.0083
1.01492
1.05319
1.08791
1.34232
1.70301
3.31968
7.29334
11.8732
11.3442
11.0522
11.141
11.3782
11.6005
11.7319
11.8325
11.9095
11.9676
1
1.00003
1.00008
1.00023
1.00048
1.00136
1.0027
1.00815
1.01471
1.05212
1.08637
1.33538
1.68789
3.26934
7.16247
11.8944
11.3498
11.0448
11.1337
11.371
11.5936
11.7257
11.8276
11.9059
11.9655
1
1.00003
1.00008
1.00022
1.00046
1.00132
1.00262
1.00785
1.01433
1.04989
1.0833
1.32082
1.65595
3.16139
6.86913
11.9337
11.3574
11.0188
11.1047
11.3383
11.5603
11.6915
11.7931
11.871
11.9318
1
1.00003
1.00007
1.00021
1.00044
1.00125
1.00251
1.00741
1.01378
1.04669
1.07893
1.29993
1.60999
3.00592
6.43378
11.9782
11.3702
10.9768
11.0544
11.278
11.5
11.6288
11.7282
11.805
11.8683
1
1.00003
1.00007
1.0002
1.00042
1.00118
1.00238
1.00688
1.01313
1.04288
1.07378
1.27513
1.55562
2.82189
5.89792
11.957
11.3662
10.9204
10.9863
11.1929
11.4136
11.5388
11.6342
11.7086
11.7752
1
1.00003
1.00006
1.00019
1.00039
1.0011
1.00222
1.00637
1.01234
1.03924
1.06836
1.25224
1.49824
2.65698
5.44651
11.7794
11.3004
10.839
10.8936
11.0772
11.292
11.4112
11.4998
11.5696
11.6401
1
1.00002
1.00006
1.00017
1.00036
1.00102
1.00207
1.00592
1.01161
1.03597
1.06432
1.23075
1.44946
2.5386
5.02299
11.3466
11.1298
10.7517
10.7854
10.9261
11.127
11.2374
11.312
11.3677
11.4363
1
1.00002
1.00006
1.00016
1.00034
1.00095
1.00193
1.00548
1.01088
1.03283
1.06054
1.20979
1.40427
2.42784
4.58885
10.7305
10.8873
10.6992
10.668
10.7463
10.9133
11.0059
11.054
11.0783
11.1254
1
1.00002
1.00005
1.00015
1.0003
1.00086
1.00175
1.00496
1.0099
1.02963
1.05527
1.18923
1.36004
2.29258
4.17647
9.9558
10.749
10.6109
10.5056
10.5484
10.6566
10.7118
10.7069
10.6609
10.6127
1
1.00002
1.00004
1.00013
1.00026
1.00075
1.00151
1.00434
1.00851
1.02639
1.04721
1.17136
1.30956
2.16497
3.79312
9.05391
10.6342
10.5083
10.3162
10.3243
10.3616
10.3507
10.2703
10.0593
9.70558
1
1.00001
1.00004
1.00009
1.00025
1.00049
1.0015
1.00263
1.0094
1.0152
1.05899
1.09648
1.38421
1.79264
3.62393
7.95698
10.5309
10.3997
10.1244
10.0677
10.0422
9.95179
9.70042
9.10048
7.56192
1
1.00001
1.00003
1.0001
1.0002
1.00056
1.00114
1.00329
1.0064
1.02012
1.0354
1.12929
1.22656
1.86007
2.98196
6.83095
10.4494
10.2884
9.93994
9.80726
9.7231
9.53635
9.13045
8.30581
6.69771
1
1.00001
1.00003
1.00008
1.00018
1.0005
1.00101
1.00286
1.00576
1.01667
1.03277
1.10236
1.1972
1.67043
2.56921
5.58528
10.2737
10.1363
9.78468
9.55996
9.41191
9.14629
8.64021
7.78417
6.47358
1
1.00001
1.00002
1.00007
1.00015
1.00042
1.00085
1.00239
1.00483
1.01383
1.02738
1.08327
1.16343
1.53361
2.24245
4.644
9.76453
9.84913
9.64338
9.33158
9.11318
8.80103
8.27881
7.48587
6.4259
1
1.00001
1.00002
1.00006
1.00012
1.00033
1.00068
1.00191
1.00382
1.01121
1.02087
1.07011
1.1215
1.44892
1.96725
4.02533
8.6695
9.55744
9.42669
9.13152
8.85109
8.51049
8.01377
7.30629
6.41559
1
1.00001
1.00002
1.00005
1.0001
1.00027
1.00054
1.00153
1.00303
1.00901
1.01645
1.05679
1.09493
1.36369
1.74006
3.41932
7.21461
9.30653
9.22703
8.98291
8.64104
8.2756
7.80491
7.17533
6.40875
1
1.00001
1.00001
1.00004
1.00008
1.00021
1.00044
1.00122
1.00246
1.00706
1.01359
1.04358
1.07555
1.27866
1.55877
2.81711
5.67082
9.09019
9.07431
8.88297
8.4881
8.09362
7.64224
7.07353
6.39892
1
1
1.00001
1.00003
1.00006
1.00017
1.00034
1.00094
1.00192
1.0054
1.01071
1.03217
1.0591
1.20075
1.39658
2.27745
4.18028
8.59472
8.94071
8.77205
8.38438
7.94998
7.50676
6.98806
6.38773
1
1
1.00001
1.00002
1.00004
1.00012
1.00025
1.00071
1.00143
1.00406
1.00796
1.02436
1.04358
1.15519
1.27731
2.02001
3.34689
7.39332
8.67762
8.57641
8.28709
7.83429
7.39376
6.91461
6.37672
1
1
1.00001
1.00001
1.00004
1.00008
1.00022
1.00044
1.00123
1.00238
1.00736
1.0128
1.04636
1.07591
1.28979
1.58002
2.85918
5.70869
8.40404
8.3844
8.19306
7.77367
7.30775
6.85017
6.36215
1
1
1
1.00001
1.00003
1.00006
1.00017
1.00034
1.00094
1.00191
1.00536
1.0107
1.03146
1.05968
1.19283
1.39016
2.2249
3.93368
7.87786
8.26061
8.11153
7.74659
7.25328
6.80453
6.3502
1
1
1
1.00001
1.00002
1.00005
1.0001
1.00028
1.00057
1.00159
1.00317
1.00932
1.01729
1.05735
1.10128
1.35371
1.76728
3.24905
6.57526
8.0023
7.93864
7.69876
7.224
6.77553
6.34863
1
1
1
1.00001
1.00002
1.00003
1.00009
1.00018
1.00049
1.001
1.0028
1.00563
1.01631
1.03118
1.10002
1.18669
1.63253
2.43584
4.94431
7.62651
7.73251
7.59429
7.23604
6.77739
6.35142
1
1
1
1
1.00001
1.00002
1.00005
1.00014
1.00029
1.00079
1.0016
1.00452
1.00883
1.02688
1.04817
1.16711
1.30811
2.03912
3.37652
6.83757
7.57965
7.49071
7.23212
6.79565
6.36345
1
1
1
1
1.00001
1.00001
1.00004
1.00008
1.00023
1.00047
1.0013
1.00257
1.00758
1.01379
1.04659
1.07819
1.28722
1.55977
2.77869
5.27781
7.28789
7.32019
7.19678
6.86268
6.39516
1
1
1
1
1.00001
1.00001
1.00003
1.00006
1.00016
1.00033
1.0009
1.00182
1.00506
1.01015
1.0291
1.05695
1.17324
1.35687
2.06982
3.47425
6.70497
7.2157
7.13288
6.89743
6.45875
1
1
1
1
1
1.00001
1.00002
1.00005
1.00009
1.00025
1.00051
1.00142
1.00286
1.00804
1.0158
1.04761
1.08865
1.28906
1.61865
2.77375
5.30794
6.96795
6.99212
6.87768
6.58127
1
1
1
1
1
1
1.00001
1.00003
1.00007
1.00014
1.00039
1.0008
1.00221
1.00445
1.01254
1.02477
1.07301
1.14545
1.43784
1.98461
3.53196
6.42123
6.88241
6.81772
6.61348
1
1
1
1
1
1
1.00001
1.00002
1.00004
1.00011
1.00022
1.0006
1.00121
1.00336
1.00656
1.01973
1.03513
1.12059
1.21166
1.74532
2.6135
5.18403
6.63835
6.68101
6.58573
1
1
1
1
1
1
1
1.00001
1.00003
1.00007
1.00014
1.0004
1.0008
1.0022
1.00445
1.01241
1.02465
1.07141
1.14422
1.42497
1.9498
3.40925
6.07628
6.56348
6.51608
1
1
1
1
1
1
1
1.00001
1.00002
1.00004
1.0001
1.00021
1.00058
1.00117
1.00323
1.00631
1.01877
1.0336
1.11429
1.19983
1.69869
2.48932
4.83724
6.29829
6.39124
1
1
1
1
1
1
1
1
1.00001
1.00002
1.00007
1.00014
1.00037
1.00075
1.00206
1.00416
1.01152
1.02309
1.06546
1.13482
1.3849
1.86058
3.16368
5.67793
6.26009
1
1
1
1
1
1
1
1
1.00001
1.00002
1.00004
1.0001
1.0002
1.00053
1.00107
1.00295
1.0058
1.017
1.03082
1.10288
1.18154
1.61496
2.31034
4.37861
5.94079
1
1
1
1
1
1
1
1
1
1.00001
1.00003
1.00005
1.00014
1.00028
1.00077
1.00156
1.00426
1.00847
1.02426
1.04551
1.1429
1.27433
1.82406
2.82513
5.21865
1
1
1
1
1
1
1
1
1
1.00001
1.00002
1.00003
1.00009
1.00018
1.00047
1.00096
1.00261
1.00525
1.0145
1.02854
1.08423
1.15933
1.49743
2.07119
3.68717
1
1
1
1
1
1
1
1
1
1
1.00001
1.00002
1.00005
1.00011
1.00028
1.00058
1.00156
1.00314
1.00859
1.0173
1.04798
1.0989
1.27604
1.60793
2.56615
1
1
1
1
1
1
1
1
1
1
1
1.00001
1.00003
1.00007
1.00014
1.00038
1.00077
1.00209
1.0042
1.01149
1.0227
1.06485
1.12735
1.36872
1.79804
1
1
1
1
1
1
1
1
1
1
1
1.00001
1.00002
1.00004
1.00008
1.00022
1.00046
1.00122
1.00248
1.00671
1.01342
1.03717
1.07506
1.2108
1.46034
1
1
1
1
1
1
1
1
1
1
1
1
1.00001
1.00002
1.00005
1.00011
1.0003
1.0006
1.00163
1.00328
1.00894
1.01801
1.04953
1.10287
1.281
1
1
1
1
1
1
1
1
1
1
1
1
1.00001
1.00001
1.00003
1.00007
1.00015
1.00039
1.0008
1.00213
1.00429
1.01165
1.02299
1.0654
1.12689
1
1
1
1
1
1
1
1
1
1
1
1
1
1.00001
1.00002
1.00004
1.00008
1.00022
1.00045
1.00121
1.00244
1.00656
1.01309
1.03614
1.07254
1
1
1
1
1
1
1
1
1
1
1
1
1
1
1.00001
1.00002
1.00005
1.00011
1.00029
1.00058
1.00156
1.00313
1.00848
1.01708
1.04648
1
1
1
1
1
1
1
1
1
1
1
1
1
1
1
1.00001
1.00003
1.00007
1.00014
1.00037
1.00075
1.002
1.00403
1.01088
1.02154
1
1
1
1
1
1
1
1
1
1
1
1
1
1
1
1.00001
1.00002
1.00004
1.00009
1.00019
1.0005
1.00102
1.00271
1.00545
1.01473
1
1
1
1
1
1
1
1
1
1
1
1
1
1
1
1
1.00001
1.00002
1.00006
1.00012
1.00033
1.00068
1.00182
1.00367
1.01003
1
1
1
1
1
1
1
1
1
1
1
1
1
1
1
1
1.00001
1.00002
1.00004
1.00011
1.00023
1.00062
1.00127
1.00351
1.00706
1
1
1
1
1
1
1
1
1
1
1
1
1
1
1
1
1.00001
1.00002
1.00004
1.0001
1.0002
1.00057
1.00115
1.00325
1.00654
1
1
1
1
1
1
1
1
1
1
1
1
1
1
1
1
1.00001
1.00002
1.00003
1.00009
1.00019
1.00053
1.00107
1.00307
1.00599
1
1
1
1
1
1
1
1
1
1
1
1
1
1
1
1
1.00001
1.00001
1.00003
1.00007
1.0002
1.00039
1.00118
1.00211
1.00749
1
1
1
1
1
1
1
1
1
1
1
1
1
1
1
1
1.00001
1.00002
1.00003
1.00009
1.00018
1.00051
1.00103
1.003
1.00584
3.12334
1.59465
1.07776
0.968687
0.994018
1.07196
1.23641
1.37437
1.42768
1.43986
1.46757
1.5354
1.69417
2.04947
2.76482
3.23445
3.31515
3.35356
3.34161
3.29837
3.2397
3.19295
3.15851
3.12573
3.09193
3.05326
3.01252
2.98804
2.97783
2.97554
2.99189
3.04458
3.14103
3.276
3.43323
3.59487
3.749
3.89021
4.01663
4.1271
4.22039
4.29846
4.36003
4.41537
4.45824
4.48731
4.50456
4.51321
4.51313
4.50967
4.49912
4.47958
4.45552
4.42881
4.39875
4.36601
4.33031
4.29246
4.25224
4.21035
4.16661
4.12167
4.0754
4.02835
3.98044
3.93211
3.88326
3.83426
3.78498
3.7357
3.68632
3.63704
3.58779
3.53875
3.48988
3.44133
3.39308
3.34525
3.29784
3.25093
3.20452
3.15863
3.11328
3.06847
3.02423
2.98051
2.9374
2.89482
2.85287
2.81148
2.77083
2.73085
2.69169
2.65342
2.61635
2.58061
2.54688
2.51609
2.49006
2.47278
3.78374
2.36693
1.75805
1.50013
1.38
1.30521
1.2917
1.30095
1.3277
1.38437
1.45975
1.53028
1.67306
1.9795
2.63022
3.22067
3.35447
3.3505
3.33234
3.28653
3.23308
3.20355
3.17274
3.13622
3.09626
3.05071
3.00693
2.98225
2.97175
2.97009
2.98684
3.03592
3.12756
3.25845
3.41503
3.57583
3.72748
3.86484
3.99162
4.10567
4.20135
4.28067
4.34484
4.40048
4.44358
4.47427
4.49285
4.50253
4.50333
4.50094
4.49256
4.47426
4.44886
4.4219
4.39244
4.3602
4.3249
4.28727
4.24736
4.20569
4.16228
4.11758
4.07162
4.02479
3.97713
3.92896
3.88032
3.83144
3.78233
3.73315
3.68391
3.63472
3.58561
3.53664
3.48789
3.43939
3.39124
3.34344
3.29611
3.24922
3.20287
3.157
3.11171
3.06692
3.02274
2.97905
2.93597
2.89342
2.85152
2.81018
2.76965
2.72978
2.69076
2.65252
2.61534
2.57945
2.54551
2.51439
2.48768
2.46999
4.60263
3.29077
2.46451
1.94219
1.60836
1.40239
1.28411
1.27301
1.28201
1.30869
1.36553
1.45708
1.5827
1.81946
2.30895
3.08217
3.32153
3.3317
3.31787
3.28203
3.23043
3.19349
3.15827
3.12182
3.08376
3.04391
3.00966
2.99066
2.9713
2.96488
2.97341
3.01586
3.10268
3.23145
3.38515
3.54781
3.70202
3.84421
3.97239
4.08591
4.18177
4.26203
4.32773
4.38273
4.42595
4.45752
4.47756
4.48814
4.4898
4.48806
4.48156
4.46626
4.44036
4.4127
4.38333
4.35148
4.31674
4.27949
4.23999
4.19867
4.15569
4.11136
4.06582
4.01934
3.97204
3.92417
3.87581
3.82715
3.77826
3.72926
3.68021
3.63118
3.58223
3.53341
3.4848
3.43642
3.38837
3.34067
3.29342
3.24661
3.20032
3.15454
3.10932
3.06463
3.02054
2.97697
2.93397
2.89155
2.84978
2.80865
2.76814
2.72829
2.68925
2.65101
2.61381
2.57784
2.54367
2.51213
2.48467
2.46598
5.04973
3.86787
2.99241
2.38202
1.97234
1.69685
1.52282
1.41919
1.3581
1.35889
1.36992
1.40295
1.4835
1.64754
1.9968
2.71929
3.22339
3.31639
3.31105
3.2861
3.23808
3.19674
3.15845
3.12158
3.08463
3.04673
3.01326
2.9889
2.9731
2.97059
2.98318
3.02777
3.11378
3.22951
3.37135
3.52107
3.67047
3.81026
3.93702
4.04982
4.1467
4.22848
4.29623
4.35228
4.39676
4.42997
4.45207
4.46439
4.46768
4.46658
4.46201
4.45049
4.427
4.39865
4.36885
4.33732
4.30333
4.26685
4.22809
4.1874
4.14505
4.1013
4.05634
4.01039
3.9636
3.91616
3.86821
3.8199
3.77135
3.72264
3.67388
3.6251
3.57641
3.5278
3.47939
3.43119
3.38331
3.33575
3.28865
3.24196
3.19581
3.15016
3.10506
3.06048
3.01654
2.97315
2.9304
2.88816
2.84655
2.80551
2.76514
2.72541
2.68646
2.64827
2.61109
2.57503
2.54061
2.50862
2.48037
2.46051
5.31706
4.28439
3.44554
2.80945
2.34363
2.00539
1.75938
1.58446
1.46581
1.38977
1.3783
1.38766
1.4222
1.51527
1.71782
2.1529
2.95971
3.25699
3.29688
3.28642
3.25778
3.20938
3.16536
3.12716
3.09146
3.05884
3.03279
3.01714
3.01558
3.0233
3.04966
3.10449
3.1755
3.26482
3.37586
3.49909
3.6237
3.75438
3.88242
3.99869
4.09931
4.18429
4.2548
4.31273
4.35898
4.39424
4.41874
4.43341
4.43901
4.43845
4.43551
4.42734
4.40949
4.38131
4.35108
4.31964
4.28633
4.25079
4.21299
4.17321
4.1317
4.08873
4.0445
3.99922
3.95306
3.90619
3.85876
3.81092
3.76279
3.71447
3.66606
3.61763
3.56923
3.52091
3.47276
3.4248
3.37714
3.32979
3.28288
3.2364
3.19041
3.14499
3.1002
3.05593
3.01221
2.96902
2.92642
2.88435
2.84289
2.80201
2.76179
2.7222
2.68336
2.64526
2.6081
2.57198
2.53736
2.50497
2.47601
2.45497
5.50201
4.60716
3.827
3.19503
2.70114
2.32116
2.03215
1.81378
1.6521
1.53645
1.45872
1.4347
1.44309
1.48009
1.58113
1.82717
2.36267
3.05115
3.25487
3.27849
3.2675
3.23786
3.1862
3.14418
3.11005
3.08733
3.07574
3.07763
3.08929
3.12291
3.19285
3.25948
3.31005
3.36035
3.42122
3.49366
3.56913
3.6665
3.79235
3.91773
4.03026
4.12503
4.20211
4.26371
4.31251
4.35011
4.37726
4.39483
4.40354
4.40382
4.40237
4.39723
4.38492
4.36002
4.33013
4.29869
4.26581
4.23109
4.19434
4.15562
4.11511
4.07306
4.02969
3.98519
3.93975
3.89352
3.84669
3.7994
3.75177
3.70391
3.65592
3.60786
3.55982
3.5118
3.46393
3.41622
3.36882
3.32172
3.27506
3.22887
3.18331
3.13821
3.09369
3.04966
3.00617
2.96317
2.92076
2.87887
2.83761
2.79692
2.7569
2.71749
2.67882
2.64086
2.6038
2.56771
2.53299
2.5003
2.47079
2.44877
5.63025
4.8507
4.13863
3.5296
3.02896
2.626
2.30544
2.05259
1.85362
1.69939
1.58366
1.50073
1.47438
1.48376
1.52629
1.64287
1.93156
2.54195
3.09413
3.24843
3.26174
3.2514
3.22335
3.1782
3.14161
3.13265
3.13608
3.15241
3.19797
3.29925
3.42809
3.49463
3.516
3.52121
3.5213
3.52523
3.54542
3.59225
3.67557
3.79801
3.92581
4.03967
4.13177
4.20269
4.25724
4.29816
4.32819
4.3488
4.36059
4.36381
4.36303
4.35984
4.35156
4.33379
4.30569
4.27473
4.24228
4.20828
4.17254
4.13496
4.09563
4.05468
4.01233
3.96876
3.92418
3.87873
3.83262
3.78597
3.73895
3.69164
3.64416
3.59654
3.5489
3.50125
3.45371
3.40634
3.35923
3.31253
3.26637
3.22067
3.17548
3.13073
3.08647
3.04268
2.99943
2.95668
2.9145
2.87287
2.83186
2.79143
2.75165
2.71248
2.67403
2.63627
2.59936
2.56336
2.52863
2.49577
2.46588
2.44308
5.72003
5.03618
4.38948
3.81382
3.32082
2.9088
2.56941
2.2922
2.06738
1.88571
1.74135
1.63041
1.54872
1.52615
1.53744
1.58626
1.71857
2.02819
2.6702
3.1182
3.23864
3.24783
3.2404
3.21914
3.18787
3.18986
3.20445
3.2505
3.35854
3.57761
3.74489
3.78708
3.778
3.74448
3.66765
3.58322
3.55804
3.56906
3.6018
3.67025
3.78571
3.91395
4.02763
4.11792
4.18617
4.23498
4.27081
4.29547
4.31088
4.31798
4.3179
4.31643
4.31162
4.3003
4.27728
4.24803
4.21636
4.18302
4.14814
4.11164
4.07351
4.03376
3.99256
3.95004
3.90642
3.86183
3.81652
3.77059
3.72424
3.67751
3.63056
3.5834
3.53616
3.48887
3.44167
3.39468
3.34815
3.30198
3.25629
3.21097
3.16611
3.12165
3.07767
3.03414
2.99116
2.94868
2.90679
2.86544
2.82472
2.78457
2.74508
2.70619
2.66802
2.63052
2.59384
2.55804
2.52342
2.49055
2.46046
2.43722
5.78711
5.17858
4.59124
4.05235
3.57614
3.16559
2.81711
2.52482
2.2808
2.07866
1.91155
1.77589
1.66883
1.58944
1.57237
1.58561
1.64023
1.78351
2.10473
2.75881
3.12955
3.22863
3.24394
3.24242
3.2423
3.25223
3.29119
3.39265
3.61545
3.95951
4.12718
4.12432
4.09276
4.006
3.83095
3.68197
3.59404
3.57259
3.58151
3.6087
3.66653
3.76676
3.88671
3.99679
4.08622
4.15314
4.2011
4.23327
4.25436
4.26577
4.26892
4.26827
4.26558
4.25857
4.24341
4.21763
4.18751
4.15509
4.12107
4.08559
4.04863
4.01013
3.97018
3.92882
3.88627
3.84267
3.79826
3.75314
3.70752
3.66143
3.61505
3.56837
3.52158
3.47469
3.42808
3.38174
3.33582
3.29019
3.24495
3.20002
3.15551
3.11138
3.06774
3.02455
2.98192
2.93978
2.89824
2.85724
2.81688
2.77708
2.73794
2.69941
2.66158
2.62442
2.58807
2.55255
2.51818
2.48547
2.45537
2.43195
5.8347
5.28967
4.75451
4.25248
3.79734
3.39491
3.04519
2.7443
2.48816
2.27034
2.08679
1.93231
1.80468
1.70314
1.62756
1.61753
1.63293
1.69284
1.84315
2.17031
2.82304
3.13697
3.22881
3.25556
3.27669
3.32009
3.41449
3.6162
4.02811
4.42306
4.52518
4.50283
4.42387
4.24647
4.00585
3.81305
3.68184
3.60819
3.587
3.59312
3.61359
3.65884
3.74087
3.84765
3.9521
4.04073
4.10854
4.15614
4.18764
4.20594
4.21469
4.21525
4.21415
4.21037
4.20124
4.18231
4.15488
4.12411
4.09132
4.05693
4.02113
3.98386
3.94517
3.90505
3.8637
3.8212
3.77781
3.7336
3.68879
3.6434
3.59762
3.55144
3.50516
3.45897
3.41309
3.36742
3.32207
3.27694
3.23214
3.18761
3.14349
3.09974
3.05648
3.01367
2.97142
2.92967
2.88853
2.84793
2.80796
2.76856
2.72984
2.69171
2.65431
2.61758
2.58165
2.54658
2.5126
2.48028
2.4504
2.42713
5.87117
5.37863
4.889
4.42179
3.98964
3.59945
3.25316
2.9496
2.68549
2.45751
2.26083
2.09264
1.94902
1.82876
1.73271
1.66187
1.65963
1.67677
1.74013
1.89675
2.23167
2.86623
3.14974
3.24543
3.31241
3.40315
3.58768
3.9659
4.57875
4.92256
4.92209
4.87513
4.73755
4.45593
4.18174
3.9652
3.805
3.69423
3.62685
3.59806
3.60079
3.613
3.6443
3.70753
3.79975
3.89774
3.98485
4.05355
4.10268
4.13444
4.15199
4.15866
4.15837
4.15652
4.15127
4.13964
4.11707
4.08927
4.05838
4.0254
3.99084
3.9548
3.91737
3.87853
3.83844
3.79716
3.75489
3.71169
3.66777
3.62312
3.57794
3.53242
3.48697
3.44162
3.39649
3.35149
3.30672
3.2621
3.21779
3.17373
3.13006
3.08676
3.04394
3.00158
2.95978
2.91849
2.87781
2.83767
2.79819
2.75927
2.72104
2.68343
2.64655
2.61037
2.57502
2.54057
2.50722
2.47559
2.44623
2.42359
5.90635
5.45179
5.00071
4.56539
4.15692
3.78132
3.44224
3.13948
2.87191
2.63662
2.43102
2.25158
2.09612
1.96194
1.84874
1.75774
1.69538
1.69725
1.71831
1.78588
1.95252
2.30225
2.90567
3.18287
3.32991
3.50378
3.8417
4.52354
5.19218
5.37202
5.33846
5.22347
4.97026
4.6398
4.35613
4.1294
3.95089
3.813
3.71084
3.64184
3.60264
3.59967
3.6037
3.62224
3.6651
3.7446
3.83315
3.91849
3.98932
4.04115
4.07461
4.09243
4.09782
4.09718
4.09444
4.08755
4.07293
4.04925
4.02106
3.99004
3.95706
3.92241
3.88632
3.84883
3.81009
3.77014
3.72912
3.68705
3.64409
3.60022
3.55591
3.51138
3.4669
3.42241
3.37805
3.33372
3.28958
3.24554
3.20179
3.15827
3.11513
3.07234
3.03004
2.9882
2.94692
2.90616
2.86602
2.82643
2.78751
2.74918
2.71155
2.67456
2.63837
2.6029
2.56835
2.53477
2.50237
2.47185
2.44344
2.42216
5.93313
5.51364
5.096
4.68955
4.30329
3.94345
3.61332
3.31437
3.04593
2.80672
2.5945
2.40707
2.24197
2.09748
1.97153
1.8658
1.77745
1.72842
1.7321
1.75732
1.83156
2.01326
2.3899
2.97909
3.31199
3.63406
4.24874
5.2428
5.7641
5.76102
5.69595
5.51268
5.14761
4.81163
4.53243
4.3021
4.11058
3.95198
3.82269
3.72196
3.64844
3.60287
3.586
3.58574
3.59363
3.6202
3.67765
3.75921
3.84289
3.9152
3.97008
4.00656
4.02565
4.03116
4.03037
4.02712
4.01917
4.00266
3.9784
3.95006
3.91911
3.88616
3.85162
3.81566
3.77843
3.73993
3.70026
3.65939
3.61743
3.57464
3.53151
3.48813
3.44468
3.4011
3.35754
3.31395
3.27051
3.22714
3.18404
3.14115
3.09863
3.05647
3.01479
2.97356
2.93291
2.89277
2.85328
2.81435
2.77611
2.73848
2.70162
2.66543
2.63013
2.59564
2.5622
2.5299
2.49893
2.47019
2.44333
2.42376
5.96145
5.5698
5.18134
4.80072
4.43421
4.08908
3.76836
3.47445
3.20704
2.96607
2.74958
2.55641
2.38411
2.23155
2.09661
1.97892
1.87947
1.79722
1.76224
1.76928
1.80275
1.89088
2.10173
2.53246
3.20601
3.78037
4.93336
5.97293
6.20367
6.1548
6.00025
5.6764
5.3035
4.98033
4.70817
4.47558
4.2747
4.10054
3.9514
3.82628
3.72479
3.64719
3.59366
3.56883
3.55586
3.55863
3.57343
3.60935
3.6804
3.7566
3.82908
3.88737
3.92773
3.95007
3.95829
3.95761
3.95436
3.94621
3.9293
3.90511
3.87672
3.8457
3.81293
3.77873
3.74323
3.70635
3.66815
3.62852
3.58786
3.54647
3.50471
3.46255
3.42019
3.37758
3.33492
3.29217
3.24952
3.20692
3.16456
3.1224
3.08061
3.03916
2.99819
2.95768
2.91776
2.87836
2.83964
2.8015
2.7641
2.72736
2.69147
2.65636
2.62226
2.58917
2.55734
2.52695
2.49817
2.47167
2.44609
2.42943
5.99713
5.62536
5.26077
4.90172
4.55316
4.2211
3.90982
3.62111
3.35633
3.11476
2.89622
2.69872
2.52165
2.36254
2.22098
2.09511
1.98501
1.89381
1.81931
1.81008
1.82354
1.8741
2.00499
2.2948
2.91427
3.86217
5.71957
6.55836
6.54526
6.44516
6.19709
5.80268
5.44622
5.14081
4.87645
4.64326
4.43601
4.25159
4.08846
3.94567
3.82287
3.72022
3.63833
3.57812
3.54301
3.52148
3.51534
3.52175
3.54362
3.59157
3.66125
3.73159
3.79291
3.8385
3.8669
3.87911
3.87884
3.87636
3.86931
3.85415
3.82999
3.80131
3.77043
3.73805
3.70439
3.66923
3.63259
3.59448
3.55545
3.51565
3.47533
3.43446
3.39328
3.35176
3.31012
3.26834
3.22661
3.1849
3.1434
3.10209
3.06114
3.02052
2.9804
2.94073
2.90168
2.86317
2.82539
2.78822
2.7519
2.71631
2.68173
2.64809
2.6157
2.58463
2.5552
2.52759
2.50079
2.47696
2.45396
2.44263
6.05735
5.68839
5.33516
4.99211
4.65998
4.3401
4.03814
3.75543
3.49435
3.25374
3.03467
2.83453
2.65424
2.49025
2.34366
2.21172
2.09426
1.99578
1.90876
1.87633
1.88424
1.92043
2.02161
2.26929
2.80505
3.94183
6.22721
6.91674
6.85665
6.67264
6.30474
5.9257
5.58668
5.29348
5.03554
4.80448
4.59473
4.4042
4.23121
4.07554
3.93649
3.81456
3.71005
3.624
3.5573
3.5124
3.48464
3.46594
3.46765
3.47873
3.50668
3.56325
3.62843
3.69137
3.74183
3.77565
3.79327
3.79636
3.79479
3.78931
3.77681
3.75285
3.72484
3.69431
3.66224
3.62865
3.59365
3.55739
3.52022
3.48213
3.44334
3.40385
3.36395
3.32363
3.28313
3.24244
3.20176
3.16108
3.12057
3.08024
3.04026
3.00062
2.96148
2.92282
2.88482
2.84739
2.81078
2.77487
2.73994
2.70592
2.67316
2.64166
2.61179
2.58377
2.55713
2.53186
2.50858
2.48911
2.47124
2.46823
6.13479
5.75388
5.40746
5.07386
4.75373
4.44649
4.154
3.87848
3.62177
3.38371
3.16512
2.96401
2.78152
2.61434
2.46383
2.32769
2.20539
2.1031
2.01188
1.98114
1.98997
2.02729
2.12728
2.36861
2.88466
3.94778
6.08246
6.97221
6.94115
6.80336
6.5001
6.10572
5.75625
5.45795
5.1989
4.96743
4.75594
4.56033
4.37931
4.21247
4.06037
3.92305
3.80095
3.69447
3.60452
3.53197
3.47875
3.4438
3.41664
3.40746
3.41222
3.42885
3.46581
3.5245
3.58443
3.63764
3.67757
3.70178
3.71091
3.71004
3.70596
3.69579
3.675
3.64784
3.61716
3.58468
3.55122
3.51693
3.48176
3.44554
3.40846
3.37056
3.33212
3.29319
3.25399
3.21456
3.17507
3.13556
3.0962
3.05701
3.01817
2.97968
2.94172
2.90428
2.86756
2.83151
2.79639
2.76217
2.72916
2.69739
2.66728
2.63897
2.61275
2.58728
2.564
2.5431
2.52562
2.51308
2.50649
2.50819
6.20409
5.81684
5.47148
5.14937
4.83893
4.54222
4.25928
3.99187
3.74036
3.50573
3.28869
3.08771
2.90402
2.73505
2.58172
2.44328
2.31884
2.21769
2.13165
2.13178
2.14795
2.20496
2.35439
2.67281
3.32846
4.13323
5.27676
6.43196
6.77038
6.73256
6.60037
6.31709
5.96587
5.64561
5.37012
5.12875
4.91095
4.70967
4.52228
4.34768
4.18614
4.03745
3.90214
3.78031
3.67266
3.57956
3.50222
3.44134
3.40007
3.36582
3.34373
3.34496
3.35324
3.37479
3.41908
3.47478
3.53003
3.57518
3.60516
3.62153
3.62158
3.61941
3.61235
3.59673
3.56939
3.5385
3.50638
3.47356
3.44008
3.40571
3.37051
3.33447
3.29776
3.26045
3.22274
3.18472
3.1466
3.10842
3.07039
3.03252
2.99503
2.95791
2.92139
2.88546
2.85038
2.81613
2.78306
2.75119
2.721
2.69253
2.6665
2.6416
2.61843
2.59755
2.57986
2.5666
2.55787
2.55776
2.55974
2.56703
6.32814
5.9035
5.54051
5.22019
4.92007
4.63338
4.35872
4.09781
3.85173
3.62063
3.40583
3.20584
3.02179
2.85224
2.69777
2.5589
2.43855
2.34155
2.303
2.31354
2.35818
2.47492
2.73698
3.26517
3.8306
4.24691
4.73892
5.50258
6.23093
6.52827
6.5073
6.41325
6.19875
5.88175
5.57621
5.30897
5.07275
4.85903
4.66242
4.48016
4.31077
4.15353
4.00823
3.87502
3.75397
3.64541
3.54984
3.46836
3.40139
3.35275
3.312
3.28293
3.27334
3.27689
3.28944
3.31776
3.36782
3.42022
3.4677
3.50407
3.52601
3.53273
3.53151
3.52654
3.51456
3.49027
3.46048
3.42862
3.39603
3.36293
3.32943
3.29532
3.26058
3.22515
3.18922
3.15286
3.11636
3.07974
3.04329
3.007
2.97115
2.93572
2.90102
2.86704
2.83416
2.80241
2.77228
2.74387
2.71795
2.6941
2.67127
2.65083
2.63335
2.61995
2.61142
2.61022
2.61191
2.61763
2.63001
2.65663
6.34499
5.99015
5.61598
5.29212
4.99735
4.71898
4.45223
4.19828
3.95754
3.73036
3.51774
3.31943
3.13584
2.96697
2.81355
2.67921
2.56825
2.50821
2.51512
2.55218
2.65799
2.90115
3.39856
3.90901
4.194
4.34195
4.54075
4.85784
5.36915
5.96846
6.3052
6.29997
6.24629
6.10429
5.81732
5.52254
5.25513
5.01727
4.80418
4.61095
4.43302
4.26811
4.11481
3.9729
3.84176
3.72158
3.61243
3.51514
3.43023
3.3588
3.30289
3.25731
3.22193
3.19925
3.20024
3.20678
3.22417
3.26033
3.30896
3.35838
3.39954
3.4269
3.44113
3.44075
3.43769
3.4291
3.41073
3.38251
3.351
3.31867
3.28631
3.25373
3.22079
3.1873
3.15338
3.11901
3.08446
3.04975
3.01521
2.98085
2.94704
2.91376
2.88144
2.85012
2.82032
2.79225
2.76653
2.74356
2.72173
2.70199
2.68507
2.67229
2.66398
2.66335
2.66513
2.6709
2.68285
2.70686
2.72964
2.77541
6.31578
6.10598
5.71738
5.37602
5.07677
4.80215
4.54171
4.2936
4.05844
3.83544
3.62583
3.4296
3.24789
3.08154
2.93384
2.8113
2.73426
2.73904
2.77275
2.8747
3.11412
3.60718
4.1348
4.37656
4.4443
4.45772
4.49275
4.58498
4.78509
5.18151
5.7236
6.08302
6.14623
6.11055
5.99607
5.75769
5.47366
5.20356
4.9634
4.75074
4.55889
4.3834
4.22155
4.0716
3.93224
3.80282
3.68341
3.57416
3.47557
3.38817
3.31292
3.25125
3.2016
3.15946
3.1303
3.12238
3.1251
3.13509
3.15793
3.20171
3.24829
3.29139
3.32452
3.34489
3.34977
3.34826
3.34265
3.32955
3.30333
3.27368
3.24245
3.21076
3.17905
3.14728
3.11543
3.08332
3.05111
3.01875
2.98661
2.95472
2.92353
2.89313
2.86407
2.83662
2.81135
2.78909
2.76902
2.75029
2.73428
2.72253
2.71467
2.71533
2.71799
2.72462
2.73863
2.76258
2.78964
2.82335
2.84848
2.89584
6.23646
6.1099
5.82938
5.47147
5.16116
4.88567
4.62997
4.38691
4.1553
3.937
3.73071
3.53796
3.3601
3.20094
3.0677
2.97761
2.981
3.01317
3.11511
3.35661
3.85664
4.41397
4.66232
4.66107
4.63654
4.57062
4.48616
4.49722
4.55581
4.70592
5.01509
5.50214
5.86352
5.97575
5.95166
5.86443
5.67302
5.41232
5.14675
4.90936
4.69652
4.50449
4.33074
4.17126
4.02364
3.88604
3.75824
3.6397
3.53069
3.43124
3.34213
3.26398
3.19799
3.14452
3.09752
3.06318
3.0441
3.04485
3.05004
3.06436
3.09446
3.13777
3.18224
3.21988
3.24538
3.25814
3.2576
3.25416
3.2449
3.22532
3.19774
3.16732
3.13662
3.10623
3.07627
3.04645
3.01685
2.98734
2.95822
2.9296
2.90196
2.87567
2.85139
2.82996
2.81181
2.79471
2.78003
2.76966
2.76304
2.76432
2.76835
2.77736
2.79431
2.8197
2.84945
2.8821
2.91284
2.94258
2.95962
2.98676
6.13581
6.0777
5.91013
5.57232
5.25175
4.9713
4.71644
4.47784
4.25145
4.03632
3.83465
3.6468
3.4777
3.33551
3.23572
3.23845
3.27122
3.37777
3.6316
4.16015
4.74506
4.98531
4.97729
4.92957
4.81478
4.64091
4.50286
4.46725
4.47861
4.52677
4.64563
4.89183
5.2913
5.62978
5.78698
5.77513
5.71809
5.58218
5.34145
5.09423
4.85689
4.64199
4.45
4.27679
4.11806
3.97137
3.83522
3.70865
3.59104
3.48236
3.38269
3.29256
3.21252
3.14314
3.08633
3.03589
2.99593
2.96991
2.96362
2.96581
2.9741
2.99323
3.03145
3.07341
3.11319
3.14446
3.16322
3.16739
3.16583
3.16007
3.147
3.12199
3.09458
3.06597
3.03763
3.00987
2.98293
2.95674
2.93142
2.90722
2.88473
2.86452
2.84811
2.83382
2.82117
2.81238
2.80814
2.80981
2.81527
2.82762
2.84862
2.87617
2.90824
2.94279
2.97505
3.00268
3.02118
3.03275
3.03294
3.03397
5.96743
5.98027
5.90161
5.70166
5.36382
5.06516
4.80423
4.56709
4.34482
4.13487
3.93883
3.76221
3.61199
3.50648
3.50935
3.54482
3.66033
3.9355
4.50946
5.12481
5.3547
5.34007
5.27336
5.12026
4.90546
4.72095
4.57973
4.48556
4.45721
4.4635
4.4956
4.58179
4.76267
5.06878
5.38146
5.57648
5.57936
5.5498
5.45977
5.26924
5.03572
4.79957
4.58648
4.39448
4.2203
4.06151
3.91544
3.78033
3.65469
3.53806
3.43004
3.3307
3.24014
3.15887
3.08716
3.02698
2.97371
2.92936
2.89859
2.88249
2.88312
2.88754
2.89985
2.92596
2.96535
3.00626
3.04217
3.06576
3.07822
3.07787
3.07508
3.06715
3.05034
3.02645
3.00095
2.97561
2.95161
2.92924
2.90869
2.89067
2.87615
2.8656
2.85612
2.84891
2.84884
2.85121
2.85838
2.874
2.89996
2.93101
2.9658
3.00264
3.03643
3.06402
3.08285
3.08843
3.0864
3.07979
3.06461
3.04307
5.53697
5.87779
5.85216
5.73719
5.48468
5.17168
4.90038
4.65948
4.43917
4.23496
4.0505
3.89463
3.78813
3.79201
3.83236
3.96112
4.26489
4.89454
5.53363
5.75436
5.73355
5.64845
5.45914
5.21509
5.00297
4.83125
4.69081
4.57503
4.48973
4.44129
4.43725
4.44923
4.50001
4.61863
4.85155
5.12584
5.32824
5.39204
5.37531
5.31407
5.17639
4.96127
4.74274
4.53044
4.33647
4.16104
4.00194
3.85621
3.72176
3.59722
3.48181
3.37477
3.27598
3.1853
3.10318
3.02988
2.96687
2.9111
2.86366
2.82781
2.80563
2.80035
2.80237
2.80986
2.82711
2.86177
2.90268
2.93995
2.96912
2.98723
2.99494
2.99422
2.99081
2.9823
2.96497
2.9454
2.92623
2.90896
2.89504
2.88689
2.88137
2.87875
2.88008
2.88492
2.89613
2.91802
2.94722
2.9822
3.02098
3.06046
3.09622
3.12384
3.1437
3.14549
3.14286
3.13481
3.11706
3.08667
3.05581
3.02435
4.55438
5.63802
5.76499
5.71642
5.57655
5.29061
5.00458
4.7581
4.5404
4.34695
4.18561
4.0789
4.08447
4.13189
4.27916
4.62157
5.32528
5.9965
6.18362
6.15562
6.04952
5.82096
5.55104
5.31838
5.12749
4.96554
4.82198
4.69089
4.57491
4.47808
4.41689
4.38316
4.38562
4.40885
4.47886
4.62789
4.86265
5.06464
5.18344
5.17762
5.14383
5.0577
4.88342
4.67645
4.46667
4.27334
4.09847
3.93944
3.7942
3.66077
3.53764
3.42325
3.31705
3.2186
3.12802
3.04538
2.97109
2.90588
2.84834
2.79826
2.75827
2.73192
2.71885
2.71965
2.72422
2.73623
2.76141
2.8003
2.8404
2.87496
2.90036
2.91586
2.92409
2.92391
2.92222
2.91777
2.90863
2.90067
2.89859
2.89946
2.90297
2.91138
2.92833
2.95548
2.98911
3.02821
3.07148
3.11456
3.15297
3.18112
3.20168
3.20147
3.198
3.18894
3.16899
3.13561
3.10115
3.06528
3.03155
3.00007
2.92521
5.08268
5.63843
5.64917
5.58372
5.42027
5.13061
4.87158
4.6549
4.48253
4.37701
4.38507
4.44209
4.61388
5.00645
5.80534
6.48689
6.63653
6.60037
6.47127
6.20094
5.90738
5.65722
5.45116
5.27423
5.11354
4.96209
4.81732
4.68071
4.55593
4.44887
4.3697
4.32208
4.29713
4.30512
4.34109
4.42808
4.6022
4.7939
4.93832
4.97362
4.95918
4.9083
4.79437
4.59729
4.3993
4.2098
4.03404
3.87488
3.73063
3.59828
3.4759
3.36214
3.25675
3.15896
3.06881
2.98612
2.91119
2.84449
2.7857
2.73367
2.69101
2.66061
2.64164
2.64031
2.64284
2.65116
2.66974
2.70676
2.74826
2.78794
2.82132
2.84723
2.86548
2.87893
2.88913