/*--------------------------------*- C++ -*----------------------------------*\
| =========                 |                                                 |
| \\      /  F ield         | OpenFOAM: The Open Source CFD Toolbox           |
|  \\    /   O peration     | Version:  2412                                  |
|   \\  /    A nd           | Website:  www.openfoam.com                      |
|    \\/     M anipulation  |                                                 |
\*---------------------------------------------------------------------------*/
FoamFile
{
    version     2.0;
    format      ascii;
    arch        "LSB;label=32;scalar=64";
    class       surfaceScalarField;
    location    "4";
    object      phi;
}
// * * * * * * * * * * * * * * * * * * * * * * * * * * * * * * * * * * * * * //

dimensions      [1 0 -1 0 0 0 0];

oriented        oriented;

internalField   nonuniform List<scalar> 
10325
(
0.00840003
7.26031e-11
0.00840003
5.61705e-10
0.00840003
1.72542e-09
0.00840002
5.21953e-09
0.00840001
1.22649e-08
0.00839999
3.37565e-08
0.00839993
7.13492e-08
0.00839977
2.18063e-07
0.00839944
4.1255e-07
0.00839825
1.49951e-06
0.00839572
3.02502e-06
0.00838582
1.13064e-05
0.00835797
3.05309e-05
0.00823864
0.000125327
0.00768033
0.000589492
0.00693447
0.00072719
0.00627766
0.000651752
0.00561763
0.000658742
0.00493255
0.000683093
0.00420748
0.000722143
0.00344003
0.000763561
0.0026333
0.000802556
0.00178785
0.000839354
0.000907087
0.000874946
0.000903047
0.00840003
1.41945e-10
0.00840003
1.09975e-09
0.00840003
3.37273e-09
0.00840002
1.02128e-08
0.00840001
2.39371e-08
0.00839999
6.6382e-08
0.00839994
1.38054e-07
0.00839978
4.36538e-07
0.00839947
7.91404e-07
0.00839825
3.04969e-06
0.00839576
5.97721e-06
0.00838565
2.28419e-05
0.00835759
6.12633e-05
0.00824119
0.000247558
0.00771854
0.00114347
0.00695626
0.00147087
0.00630744
0.0012954
0.00565469
0.00131014
0.00497216
0.00136363
0.0042384
0.001453
0.0034596
0.00153846
0.00264222
0.0016157
0.00178484
0.00169055
0.000895458
0.0017586
0.0017945
0.00840003
2.038e-10
0.00840003
1.57818e-09
0.00840003
4.83374e-09
0.00840002
1.46432e-08
0.00840002
3.43301e-08
0.0084
9.51434e-08
0.00839995
1.98408e-07
0.00839982
6.25003e-07
0.00839955
1.12872e-06
0.00839856
4.35731e-06
0.0083965
8.49897e-06
0.00838831
3.24456e-05
0.0083654
8.68612e-05
0.00827193
0.000346511
0.00787657
0.00157034
0.00710628
0.0022229
0.00643703
0.00195914
0.00577657
0.00196914
0.00508927
0.00204863
0.0043454
0.00219387
0.00355493
0.00232503
0.00271745
0.00244896
0.00183803
0.00256377
0.000923375
0.00266752
0.00271374
0.00840003
2.48381e-10
0.00840003
1.92064e-09
0.00840003
5.88529e-09
0.00840003
1.78076e-08
0.00840002
4.17886e-08
0.00840001
1.15333e-07
0.00839998
2.41322e-07
0.00839991
7.53107e-07
0.00839975
1.34633e-06
0.00839922
5.1993e-06
0.00839813
1.00183e-05
0.00839379
3.81489e-05
0.00838201
0.00010132
0.00833334
0.000399542
0.00818397
0.00175073
0.00741765
0.00297228
0.00669392
0.00267625
0.00600628
0.00265425
0.00530534
0.00274805
0.00454305
0.00295322
0.00373099
0.00313269
0.00287012
0.00330536
0.00194793
0.00347988
0.000983691
0.00362576
0.00369326
0.00840003
2.70512e-10
0.00840003
2.08834e-09
0.00840003
6.39875e-09
0.00840003
1.93043e-08
0.00840003
4.55041e-08
0.00840003
1.22735e-07
0.00840001
2.68712e-07
0.00840005
7.64626e-07
0.00839995
1.49907e-06
0.00840027
5.15159e-06
0.00840035
1.03117e-05
0.00840354
3.61805e-05
0.00840429
0.000103007
0.00843021
0.000377589
0.00872429
0.00148524
0.00794955
0.00373484
0.00709159
0.00352865
0.00635282
0.00339107
0.00562051
0.00347887
0.00485071
0.00372048
0.00400056
0.00397995
0.00309553
0.00420649
0.00212829
0.0044411
0.00108613
0.00466211
0.00477525
0.00840003
2.62476e-10
0.00840003
2.02178e-09
0.00840003
6.24905e-09
0.00840003
1.87072e-08
0.00840003
4.42392e-08
0.00840005
1.17004e-07
0.00840006
2.5908e-07
0.00840016
7.06505e-07
0.00840029
1.41901e-06
0.00840089
4.72826e-06
0.00840285
8.72809e-06
0.00840643
3.33369e-05
0.00842151
9.02336e-05
0.00849442
0.000302474
0.00875075
0.00124582
0.00825099
0.00423405
0.00742379
0.00435385
0.00670363
0.00410948
0.00599264
0.00418662
0.00521538
0.00449434
0.00435707
0.00483542
0.00340957
0.00515109
0.00236825
0.00547585
0.00123286
0.00579169
0.00600407
0.00840003
2.67294e-10
0.00840003
2.06375e-09
0.00840003
6.39948e-09
0.00840003
1.91426e-08
0.00840003
4.51398e-08
0.00840003
1.18954e-07
0.00840003
2.63456e-07
0.00840005
7.06698e-07
0.00840009
1.42776e-06
0.00840031
4.63668e-06
0.00840089
8.35982e-06
0.00840247
3.2193e-05
0.00841084
8.36539e-05
0.00843907
0.000275751
0.00857582
0.00112367
0.00821761
0.00460339
0.00752932
0.00504304
0.00694992
0.0046853
0.00630993
0.00482249
0.00558351
0.0052167
0.00473748
0.00567511
0.00378452
0.00609886
0.00270479
0.00655097
0.00145372
0.00703748
0.00745401
0.00840003
3.16785e-10
0.00840003
2.44955e-09
0.00840003
7.58085e-09
0.00840002
2.26914e-08
0.00840002
5.36971e-08
0.0084
1.41145e-07
0.00839995
3.15785e-07
0.00839986
8.21215e-07
0.00839955
1.7674e-06
0.00839929
4.98857e-06
0.00839772
1.01576e-05
0.00839722
3.30438e-05
0.00839963
8.24453e-05
0.00837763
0.000299177
0.00849611
0.0010139
0.00818845
0.00492319
0.00787945
0.00535205
0.00724781
0.00531576
0.00656085
0.00550645
0.00591356
0.00586061
0.00514567
0.00644048
0.00422284
0.0070189
0.00311626
0.00765219
0.00178013
0.00836794
0.0092308
0.00840003
3.35992e-10
0.00840003
3.15488e-09
0.00840003
9.52964e-09
0.00840002
2.89803e-08
0.00840001
6.81938e-08
0.00839997
1.82461e-07
0.00839989
4.0143e-07
0.00839966
1.06297e-06
0.00839922
2.23573e-06
0.00839826
6.01574e-06
0.00839668
1.19186e-05
0.0083925
3.75028e-05
0.00839523
8.0678e-05
0.00838063
0.000315044
0.0084422
0.000957646
0.00831135
0.00506476
0.00789275
0.00576917
0.00741919
0.00578806
0.00687142
0.00605414
0.00625673
0.00647356
0.00557297
0.00712205
0.00474315
0.00784672
0.00373835
0.00865348
0.00232772
0.00977506
0.0115555
0.00840003
1.47207e-10
0.00840003
4.58076e-09
0.00840003
6.97349e-09
0.00840002
3.95883e-08
0.00840004
5.02038e-08
0.00839997
2.54061e-07
0.00840011
2.6961e-07
0.0083996
1.57871e-06
0.00840065
1.21458e-06
0.00839707
9.66031e-06
0.00840403
5.09792e-06
0.00837842
6.33921e-05
0.0084224
3.73204e-05
0.00829631
0.000442463
0.00844502
0.000812868
0.00840574
0.00511446
0.00801292
0.00615944
0.00759487
0.00620463
0.0071759
0.00647318
0.00665718
0.00699357
0.00609545
0.00768229
0.00545434
0.00848564
0.00454995
0.00955459
0.00320397
0.0111166
0.0147571
0.00840003
5.27005e-10
0.00840003
8.18915e-10
0.00840003
7.86337e-09
0.00840006
8.95812e-09
0.00840006
5.58584e-08
0.00840026
5.36735e-08
0.00840016
3.71029e-07
0.00840148
2.73502e-07
0.00840008
2.62459e-06
0.00840825
1.47284e-06
0.00839474
1.85856e-05
0.00844694
1.10061e-05
0.00834558
0.000138774
0.00861989
0.000169303
0.00832464
0.0011114
0.00858904
0.00486124
0.008216
0.00652847
0.00781366
0.00660478
0.00746129
0.00682622
0.00709533
0.00735818
0.00671061
0.00806546
0.00626659
0.00892828
0.00586017
0.00995967
0.00586187
0.0111127
0.0117883
0.00882867
0.00840003
2.88104e-10
0.00840003
1.5642e-09
0.00840003
5.34839e-09
0.00840003
1.48777e-08
0.00840005
3.76607e-08
0.00840001
9.25063e-08
0.00840015
2.29822e-07
0.00839988
5.48806e-07
0.00840116
1.38261e-06
0.00839894
3.84411e-06
0.00840904
8.73662e-06
0.00839126
2.95465e-05
0.0084605
7.04392e-05
0.008335
0.000295515
0.00864353
0.000805384
0.00911399
0.00440199
0.00863394
0.00700379
0.00811329
0.00712262
0.00777779
0.00716143
0.00751156
0.00762624
0.00725234
0.00832164
0.00702931
0.00914813
0.0069688
0.0100178
0.00740408
0.0106762
0.0106885
0.00850351
0.00840003
2.64522e-10
0.00840003
2.05605e-09
0.00840003
6.29424e-09
0.00840002
1.90738e-08
0.00840002
4.51536e-08
0.00839999
1.21181e-07
0.00839995
2.73068e-07
0.00839978
7.22022e-07
0.00839958
1.60267e-06
0.00839911
4.35999e-06
0.00839837
9.5627e-06
0.00839908
2.9069e-05
0.00840545
6.45345e-05
0.0084589
0.00024299
0.00859906
0.000666934
0.00989604
0.00311652
0.00927485
0.00761965
0.0086281
0.00776547
0.0082042
0.00758424
0.00794654
0.00788475
0.00779415
0.00847541
0.00775448
0.00918522
0.0079281
0.00984085
0.00844254
0.0101593
0.00996937
0.00916087
0.00840003
2.71179e-10
0.00840003
2.10887e-09
0.00840003
6.43647e-09
0.00840003
1.95129e-08
0.00840003
4.61683e-08
0.00840003
1.23884e-07
0.00840002
2.79581e-07
0.00840002
7.30924e-07
0.00839997
1.66209e-06
0.0084002
4.16103e-06
0.00839958
1.02503e-05
0.00840537
2.34164e-05
0.00840421
6.60975e-05
0.00847271
0.000175167
0.0085935
0.000545949
0.00959007
0.00212584
0.00961749
0.0075935
0.00928084
0.00810117
0.00870884
0.00815514
0.00841735
0.00817552
0.00832156
0.008571
0.00840646
0.00910022
0.00864633
0.00959842
0.00906544
0.00973776
0.00942017
0.00961254
0.00840003
2.32411e-10
0.00840003
1.79946e-09
0.00840003
5.54349e-09
0.00840003
1.66698e-08
0.00840004
3.95667e-08
0.00840006
1.04658e-07
0.00840011
2.36153e-07
0.00840023
6.08551e-07
0.00840054
1.36566e-06
0.00840121
3.51264e-06
0.00840372
7.83e-06
0.00840577
2.14013e-05
0.008424
4.84362e-05
0.00844619
0.000153235
0.008549
0.000444427
0.00895602
0.00172097
0.00962032
0.00693664
0.00940844
0.00831416
0.00908924
0.00847509
0.00885033
0.00841392
0.00878351
0.00863757
0.00890426
0.00897956
0.00918703
0.00931525
0.00953985
0.00938278
0.00902091
0.00993813
0.00840003
1.88833e-10
0.00840003
1.46007e-09
0.00840003
4.52389e-09
0.00840003
1.35505e-08
0.00840004
3.21236e-08
0.00840006
8.45022e-08
0.00840011
1.89465e-07
0.00840023
4.92986e-07
0.00840055
1.05357e-06
0.00840108
2.9933e-06
0.00840318
5.76917e-06
0.00840527
1.93745e-05
0.00841581
3.81236e-05
0.00843168
0.000137564
0.00851668
0.000360277
0.00878395
0.00145493
0.00974165
0.00598515
0.00963769
0.00841745
0.00942561
0.00868731
0.00923146
0.00860835
0.0091857
0.00868215
0.00927557
0.00888905
0.00954009
0.00905019
0.00987637
0.00904672
0.00870695
0.0101878
0.00840003
1.65559e-10
0.00840003
1.28096e-09
0.00840003
3.94834e-09
0.00840003
1.18616e-08
0.00840004
2.80884e-08
0.00840005
7.42562e-08
0.00840007
1.66548e-07
0.00840013
4.32096e-07
0.00840024
9.50251e-07
0.00840069
2.55582e-06
0.0084012
5.29436e-06
0.008404
1.66263e-05
0.00841006
3.22472e-05
0.00842905
0.000118768
0.00848961
0.000300336
0.00875389
0.00119241
0.0104403
0.0043039
0.0101293
0.00872731
0.00993323
0.00888264
0.00967544
0.00886636
0.00961344
0.00874544
0.00967703
0.00882503
0.00984845
0.00887788
0.0101099
0.00878479
0.00845164
0.0103647
0.00840003
1.36847e-10
0.00840003
1.10817e-09
0.00840003
3.43474e-09
0.00840003
1.02308e-08
0.00840004
2.44843e-08
0.00840005
6.40303e-08
0.00840007
1.45807e-07
0.00840013
3.7171e-07
0.00840025
8.35394e-07
0.00840068
2.13855e-06
0.00840124
4.74628e-06
0.00840514
1.27417e-05
0.00840995
2.74898e-05
0.00844661
8.22705e-05
0.00853214
0.000215728
0.00900971
0.000715265
0.0108974
0.00242249
0.0109652
0.0086599
0.0106155
0.00923003
0.0102319
0.00924899
0.0100195
0.00895828
0.0100331
0.00881276
0.0101526
0.00875935
0.0103275
0.00860927
0.008273
0.0105061
0.00840003
5.46074e-11
0.00840003
1.12636e-09
0.00840003
2.1654e-09
0.00840003
9.86456e-09
0.00840004
1.59178e-08
0.00840004
6.12544e-08
0.00840009
9.52781e-08
0.00840011
3.56846e-07
0.00840041
5.35801e-07
0.00840044
2.11674e-06
0.00840246
2.74805e-06
0.00840179
1.34394e-05
0.00841618
1.32013e-05
0.00840886
8.96784e-05
0.00852529
9.97737e-05
0.00857626
0.00066483
0.00939733
0.00160345
0.0109815
0.00708275
0.0109425
0.00927018
0.0107063
0.00948515
0.0104237
0.00924064
0.010356
0.00888036
0.010425
0.00869055
0.0105457
0.00848899
0.00815512
0.0106637
0.00840003
9.59156e-11
0.00840003
5.62783e-10
0.00840003
2.04799e-09
0.00840004
5.36338e-09
0.00840004
1.44218e-08
0.00840006
3.33945e-08
0.00840008
8.45732e-08
0.00840024
1.9023e-07
0.00840029
4.90574e-07
0.00840137
1.04338e-06
0.00840106
3.06903e-06
0.00840873
5.8184e-06
0.00840188
2.00532e-05
0.00845326
3.8537e-05
0.00841143
0.000141696
0.00872562
0.000351302
0.00889126
0.0014394
0.0110249
0.00495298
0.0111955
0.00910046
0.0111304
0.00955045
0.0109014
0.00946962
0.0107073
0.00907417
0.0106682
0.00872949
0.0107249
0.00843256
0.00807882
0.0108022
0.00840003
1.19049e-10
0.00840003
3.54778e-10
0.00840003
2.03619e-09
0.00840003
3.61272e-09
0.00840003
1.40646e-08
0.00840004
2.29543e-08
0.00840005
8.29608e-08
0.0084001
1.32472e-07
0.00840012
4.76426e-07
0.00840043
7.39502e-07
0.00840071
2.7922e-06
0.00840257
3.97862e-06
0.00840515
1.75112e-05
0.00842187
2.18875e-05
0.00844801
0.0001157
0.00861071
0.000189481
0.00919874
0.000851524
0.0114359
0.0027216
0.011833
0.00870388
0.0117156
0.00966677
0.0114281
0.0097562
0.0111559
0.00934535
0.0110114
0.00887349
0.0109615
0.0084821
0.00807939
0.0109616
0.00840003
4.00326e-11
0.00840003
4.40141e-10
0.00840003
1.00493e-09
0.00840003
3.96739e-09
0.00840004
7.24443e-09
0.00840004
2.46652e-08
0.00840008
4.30731e-08
0.00840007
1.42296e-07
0.0084003
2.45315e-07
0.00840023
8.14287e-07
0.00840165
1.37535e-06
0.00840083
4.81374e-06
0.00841079
7.62464e-06
0.00840212
3.05654e-05
0.00847147
4.68265e-05
0.00844912
0.00021192
0.00885288
0.000449106
0.00974689
0.00182919
0.0116425
0.00681521
0.0118249
0.0094833
0.0117551
0.00982491
0.0114499
0.00964909
0.0113302
0.00899192
0.0112491
0.0085631
0.00813477
0.0111925
0.00840003
5.85684e-11
0.00840003
2.26255e-10
0.00840003
1.12278e-09
0.00840003
2.2302e-09
0.00840003
7.84867e-09
0.00840004
1.41688e-08
0.00840004
4.65919e-08
0.0084001
8.2547e-08
0.00840008
2.67888e-07
0.00840042
4.72638e-07
0.00840027
1.53639e-06
0.00840239
2.70557e-06
0.00840096
9.07405e-06
0.00841626
1.53577e-05
0.00840423
5.89508e-05
0.00851792
9.86348e-05
0.00851717
0.000450401
0.00925365
0.00109346
0.0118312
0.00424574
0.0120794
0.00923667
0.0120886
0.00981416
0.0119386
0.00979728
0.0115934
0.00933547
0.0114787
0.008677
0.00821131
0.011402
0.00840003
2.13272e-11
0.00840003
2.46163e-10
0.00840003
5.63908e-10
0.00840003
2.21496e-09
0.00840003
4.09101e-09
0.00840004
1.37893e-08
0.00840006
2.44791e-08
0.00840006
7.9752e-08
0.00840019
1.40332e-07
0.00840021
4.55486e-07
0.00840096
7.9335e-07
0.00840102
2.65057e-06
0.00840575
4.37436e-06
0.00840478
1.63474e-05
0.00843961
2.42792e-05
0.00843016
0.000108181
0.0087032
0.000178032
0.00895263
0.000844507
0.0108816
0.0023195
0.0123913
0.00773136
0.0124541
0.0097514
0.0122838
0.00996698
0.0119038
0.00971456
0.0117385
0.00884099
0.00834478
0.0116039
0.00840003
2.32564e-11
0.00840003
1.33389e-10
0.00840003
4.95003e-10
0.00840003
1.27087e-09
0.00840003
3.48614e-09
0.00840004
7.95207e-09
0.00840004
2.05227e-08
0.00840008
4.55916e-08
0.0084001
1.16175e-07
0.0084003
2.55969e-07
0.00840044
6.58719e-07
0.00840168
1.41864e-06
0.00840217
3.8981e-06
0.00841069
7.87225e-06
0.00841038
2.46174e-05
0.00847051
4.83193e-05
0.00847642
0.000172287
0.00891367
0.000407949
0.00950245
0.00173265
0.012045
0.00519337
0.0124905
0.00930672
0.0126152
0.00984194
0.012531
0.00979827
0.0120783
0.00929405
0.00859298
0.0118297
0.00840003
2.37936e-11
0.00840003
7.97856e-11
0.00840003
4.17963e-10
0.00840003
8.0307e-10
0.00840003
2.88908e-09
0.00840003
5.08317e-09
0.00840004
1.69449e-08
0.00840005
2.92697e-08
0.00840008
9.59894e-08
0.00840017
1.6464e-07
0.00840029
5.41312e-07
0.00840079
9.16669e-07
0.00840161
3.08966e-06
0.00840446
5.04801e-06
0.00841072
1.84001e-05
0.00843066
2.85715e-05
0.00848458
0.000118553
0.00867353
0.000219868
0.00951335
0.000893756
0.0119695
0.00274161
0.0129668
0.0083134
0.0129771
0.00983193
0.0128209
0.00995431
0.0124615
0.00965383
0.00885855
0.0121961
0.00840003
8.40005e-12
0.00840003
8.50428e-11
0.00840003
2.06525e-10
0.00840003
7.68971e-10
0.00840003
1.48367e-09
0.00840003
4.76915e-09
0.00840004
8.80379e-09
0.00840004
2.73703e-08
0.00840009
5.00456e-08
0.0084001
1.5455e-07
0.00840036
2.81529e-07
0.00840041
8.72134e-07
0.00840193
1.58034e-06
0.00840199
4.98962e-06
0.00841155
8.89415e-06
0.00841016
3.00665e-05
0.00847582
5.28056e-05
0.00849667
0.000199684
0.00893333
0.00045703
0.00996459
0.00171445
0.0125394
0.00574589
0.0129814
0.00939084
0.0131543
0.00978133
0.0129953
0.00981303
0.00924957
0.0126042
0.00840003
1.01303e-11
0.00840003
3.94636e-11
0.00840003
1.90885e-10
0.00840003
3.9037e-10
0.00840003
1.32871e-09
0.00840003
2.4675e-09
0.00840003
7.81014e-09
0.00840005
1.42356e-08
0.00840005
4.42789e-08
0.00840013
8.04016e-08
0.00840016
2.49427e-07
0.00840058
4.51864e-07
0.00840076
1.41e-06
0.00840324
2.53126e-06
0.008404
8.16581e-06
0.00841997
1.41939e-05
0.00842307
4.99155e-05
0.00853597
8.72154e-05
0.0086461
0.000347978
0.00955371
0.000808721
0.0124682
0.00284153
0.0133386
0.00852292
0.0133605
0.00975945
0.0132724
0.00990117
0.00963618
0.0128855
0.00840003
4.71233e-12
0.00840003
3.34082e-11
0.00840003
1.0416e-10
0.00840003
3.11227e-10
0.00840003
7.38901e-10
0.00840003
1.93411e-09
0.00840004
4.34853e-09
0.00840004
1.10345e-08
0.00840006
2.45171e-08
0.00840008
6.1691e-08
0.00840019
1.36648e-07
0.0084003
3.43426e-07
0.00840096
7.59301e-07
0.00840156
1.94093e-06
0.00840557
4.17598e-06
0.00840819
1.16181e-05
0.00843497
2.32996e-05
0.00844721
7.511e-05
0.00864353
0.000152697
0.00885203
0.000600758
0.0100927
0.00160447
0.0128825
0.00574046
0.0133546
0.00928714
0.0135344
0.00971983
0.00975213
0.013417
0.00840003
1.96923e-12
0.00840003
2.71121e-11
0.00840003
6.19398e-11
0.00840003
2.40451e-10
0.00840003
4.48325e-10
0.00840003
1.47853e-09
0.00840003
2.65496e-09
0.00840004
8.42647e-09
0.00840005
1.50262e-08
0.00840006
4.72291e-08
0.00840011
8.40614e-08
0.00840019
2.64089e-07
0.00840049
4.68128e-07
0.00840095
1.48439e-06
0.00840256
2.5812e-06
0.00840565
8.58386e-06
0.00841503
1.39831e-05
0.00843812
5.23201e-05
0.00850566
8.55172e-05
0.00875888
0.000348777
0.00954486
0.000820215
0.0125005
0.00279627
0.0135749
0.00821395
0.0136637
0.00962928
0.00974922
0.0136648
0.00840003
2.32684e-12
0.00840003
1.34373e-11
0.00840003
4.95396e-11
0.00840003
1.28018e-10
0.00840003
3.48184e-10
0.00840003
7.97411e-10
0.00840003
2.03609e-09
0.00840004
4.54497e-09
0.00840004
1.14193e-08
0.00840006
2.53572e-08
0.00840008
6.33791e-08
0.00840021
1.40566e-07
0.00840033
3.50962e-07
0.00840104
7.77548e-07
0.00840166
1.97026e-06
0.00840601
4.26034e-06
0.00840836
1.16799e-05
0.0084373
2.35293e-05
0.00844797
7.4991e-05
0.00864599
0.000151797
0.00888026
0.000586287
0.0101409
0.00153924
0.013017
0.00534446
0.0136491
0.00899702
0.00956016
0.0138362
0.00840003
2.06827e-12
0.00840003
7.58325e-12
0.00840003
3.70765e-11
0.00840003
7.55384e-11
0.00840003
2.55767e-10
0.00840003
4.74999e-10
0.00840003
1.48909e-09
0.00840003
2.71455e-09
0.00840004
8.34855e-09
0.00840005
1.51624e-08
0.00840006
4.64079e-08
0.00840012
8.41277e-08
0.00840022
2.57734e-07
0.00840053
4.65275e-07
0.00840107
1.43838e-06
0.00840278
2.55407e-06
0.00840629
8.21652e-06
0.00841591
1.39561e-05
0.00844189
4.91959e-05
0.00850881
8.51156e-05
0.00877525
0.000320452
0.00953796
0.000777691
0.0123398
0.00254527
0.0137329
0.00760796
0.00945019
0.0138424
0.00840003
6.85221e-13
0.00840003
6.88668e-12
0.00840003
1.71996e-11
0.00840003
6.22089e-11
0.00840003
1.23209e-10
0.00840003
3.82915e-10
0.00840003
7.24851e-10
0.00840003
2.172e-09
0.00840004
4.07439e-09
0.00840004
1.20874e-08
0.00840006
2.26427e-08
0.00840008
6.69708e-08
0.00840021
1.25351e-07
0.00840031
3.71085e-07
0.00840106
6.92979e-07
0.00840154
2.07637e-06
0.00840598
3.79815e-06
0.00840785
1.2128e-05
0.00843641
2.07446e-05
0.00844488
7.67997e-05
0.00863284
0.00013306
0.00885978
0.000551459
0.0099588
0.0014484
0.0130956
0.0044791
0.00863006
0.0139178
0.00840003
5.86275e-13
0.00840003
3.48359e-12
0.00840003
1.27771e-11
0.00840003
3.30253e-11
0.00840003
8.97277e-11
0.00840003
2.05143e-10
0.00840003
5.23738e-10
0.00840003
1.16511e-09
0.00840003
2.92983e-09
0.00840004
6.47457e-09
0.00840005
1.62173e-08
0.00840008
3.57637e-08
0.00840011
8.95084e-08
0.00840029
1.97102e-07
0.00840049
4.93962e-07
0.00840148
1.08839e-06
0.00840254
2.74456e-06
0.00840865
6.05645e-06
0.00841365
1.57818e-05
0.00845599
3.46456e-05
0.0084909
9.83157e-05
0.00880758
0.000235685
0.00948701
0.000769764
0.0117892
0.00218085
0.00656735
0.0138567
0.00840003
4.0924e-13
0.00840003
2.22676e-12
0.00840003
8.20533e-12
0.00840003
2.12065e-11
0.00840003
5.73344e-11
0.00840003
1.31737e-10
0.00840003
3.33917e-10
0.00840003
7.47165e-10
0.00840003
1.86489e-09
0.00840003
4.14655e-09
0.00840004
1.03083e-08
0.00840005
2.28835e-08
0.00840009
5.68157e-08
0.00840016
1.26023e-07
0.00840034
3.12881e-07
0.00840074
6.9294e-07
0.00840177
1.72681e-06
0.00840403
3.80989e-06
0.00841015
9.70998e-06
0.00842389
2.09834e-05
0.00846384
5.8608e-05
0.00857474
0.000125174
0.00892585
0.000419637
0.00997447
0.00113438
0.00369764
0.0128543
0.00840003
3.2102e-13
0.00840003
1.20252e-12
0.00840003
5.73418e-12
0.00840003
1.19901e-11
0.00840003
3.9504e-11
0.00840003
7.51868e-11
0.00840003
2.28941e-10
0.00840003
4.2761e-10
0.00840003
1.27582e-09
0.00840003
2.37582e-09
0.00840004
7.0442e-09
0.00840005
1.31222e-08
0.00840006
3.8814e-08
0.00840012
7.23188e-08
0.00840022
2.13933e-07
0.00840052
3.97924e-07
0.00840107
1.18239e-06
0.0084027
2.1888e-06
0.00840584
6.59895e-06
0.00841473
1.21433e-05
0.00843559
3.79071e-05
0.00848864
7.23468e-05
0.00867192
0.000237192
0.00922046
0.000585263
0.00190096
0.0110201
0.00840003
1.29833e-13
0.00840003
9.18549e-13
0.00840003
2.87743e-12
0.00840003
8.54299e-12
0.00840003
2.02954e-11
0.00840003
5.26732e-11
0.00840003
1.1818e-10
0.00840003
2.97064e-10
0.00840003
6.57768e-10
0.00840003
1.63918e-09
0.00840004
3.61912e-09
0.00840004
8.99123e-09
0.00840006
1.98439e-08
0.00840008
4.92133e-08
0.00840019
1.08624e-07
0.00840032
2.69102e-07
0.00840091
5.94085e-07
0.00840163
1.47394e-06
0.00840499
3.25158e-06
0.008409
8.1774e-06
0.00842898
1.79976e-05
0.00845415
4.73474e-05
0.00858462
0.000107356
0.00885768
0.000312412
0.000867167
0.00989268
0.00840003
5.61213e-14
0.00840003
6.37186e-13
0.00840003
1.57884e-12
0.00840003
5.68441e-12
0.00840003
1.12936e-11
0.00840003
3.46447e-11
0.00840003
6.59069e-11
0.00840003
1.94395e-10
0.00840003
3.66408e-10
0.00840003
1.06882e-09
0.00840003
2.01129e-09
0.00840004
5.84393e-09
0.00840005
1.0995e-08
0.00840006
3.18957e-08
0.00840011
5.99635e-08
0.00840021
1.74024e-07
0.00840047
3.26274e-07
0.008401
9.50515e-07
0.00840248
1.77218e-06
0.00840548
5.23242e-06
0.00841386
9.64195e-06
0.00843254
2.93855e-05
0.00848092
5.5954e-05
0.00862139
0.000175935
0.000425071
0.00904922
0.00840003
6.14157e-14
0.00840003
2.70174e-13
0.00840003
1.19408e-12
0.00840003
2.63313e-12
0.00840003
8.25902e-12
0.00840003
1.63736e-11
0.00840003
4.76817e-11
0.00840003
9.24091e-11
0.00840003
2.63914e-10
0.00840003
5.09056e-10
0.00840003
1.44528e-09
0.00840003
2.78607e-09
0.00840004
7.89186e-09
0.00840005
1.52149e-08
0.00840007
4.30611e-08
0.00840016
8.2996e-08
0.00840026
2.35089e-07
0.00840076
4.52675e-07
0.00840124
1.288e-06
0.00840401
2.4752e-06
0.00840654
7.12247e-06
0.00842227
1.37733e-05
0.00843768
4.05942e-05
0.00853228
8.19405e-05
0.000256681
0.00870081
0.00840003
2.70236e-14
0.00840003
1.89903e-13
0.00840003
5.94346e-13
0.00840003
1.76373e-12
0.00840003
4.18262e-12
0.00840003
1.0836e-11
0.00840003
2.42455e-11
0.00840003
6.07808e-11
0.00840003
1.34113e-10
0.00840003
3.33212e-10
0.00840003
7.32774e-10
0.00840003
1.81516e-09
0.00840004
3.98909e-09
0.00840004
9.866e-09
0.00840006
2.16822e-08
0.00840009
5.35647e-08
0.00840021
1.17735e-07
0.00840037
2.90686e-07
0.00840103
6.39289e-07
0.00840193
1.58084e-06
0.00840559
3.47656e-06
0.00841071
8.70996e-06
0.00843229
1.9107e-05
0.00846426
5.02725e-05
0.000112442
0.00860893
0.00840003
1.13643e-14
0.00840003
1.2593e-13
0.00840003
3.17725e-13
0.00840003
1.12444e-12
0.00840003
2.26704e-12
0.00840003
6.83081e-12
0.00840003
1.3169e-11
0.00840003
3.81222e-11
0.00840003
7.2771e-11
0.00840003
2.08281e-10
0.00840003
3.9684e-10
0.00840003
1.13126e-09
0.00840003
2.15547e-09
0.00840004
6.13211e-09
0.00840005
1.16864e-08
0.00840007
3.32094e-08
0.00840012
6.32508e-08
0.00840023
1.79799e-07
0.00840053
3.41566e-07
0.00840115
9.74337e-07
0.00840279
1.84086e-06
0.0084062
5.32143e-06
0.00841543
9.93886e-06
0.00843625
2.95879e-05
5.71998e-05
0.00849184
0.00840003
1.15006e-14
0.00840003
5.2919e-14
0.00840003
2.28168e-13
0.00840003
5.11442e-13
0.00840003
1.57545e-12
0.00840003
3.16358e-12
0.00840003
9.04882e-12
0.00840003
1.77385e-11
0.00840003
4.97504e-11
0.00840003
9.69926e-11
0.00840003
2.70441e-10
0.00840003
5.26715e-10
0.00840003
1.46533e-09
0.00840004
2.85408e-09
0.00840004
7.93093e-09
0.00840006
1.54488e-08
0.00840008
4.29099e-08
0.00840017
8.35494e-08
0.00840028
2.32256e-07
0.00840081
4.51747e-07
0.0084014
1.26076e-06
0.00840428
2.44815e-06
0.00840735
6.90009e-06
0.00842351
1.3491e-05
3.88321e-05
0.00844201
0.00840003
4.00287e-15
0.00840003
3.83439e-14
0.00840003
9.96731e-14
0.00840003
3.45518e-13
0.00840003
7.07056e-13
0.00840003
2.09856e-12
0.00840003
4.08878e-12
0.00840003
1.16692e-11
0.00840003
2.24709e-11
0.00840003
6.34311e-11
0.00840003
1.21788e-10
0.00840003
3.42564e-10
0.00840003
6.5727e-10
0.00840003
1.8458e-09
0.00840004
3.54123e-09
0.00840004
9.9338e-09
0.00840007
1.90589e-08
0.0084001
5.34231e-08
0.00840023
1.02474e-07
0.00840039
2.87326e-07
0.0084011
5.50918e-07
0.00840201
1.54991e-06
0.00840595
2.96597e-06
0.00841097
8.48769e-06
1.61123e-05
0.00843375
0.00840003
2.98858e-15
0.00840003
1.67617e-14
0.00840003
6.19383e-14
0.00840003
1.60146e-13
0.00840003
4.29043e-13
0.00840003
9.80687e-13
0.00840003
2.45131e-12
0.00840003
5.43831e-12
0.00840003
1.33398e-11
0.00840003
2.93646e-11
0.00840003
7.15593e-11
0.00840003
1.57206e-10
0.00840003
3.81812e-10
0.00840003
8.38457e-10
0.00840003
2.03085e-09
0.00840004
4.46e-09
0.00840005
1.07721e-08
0.00840008
2.36605e-08
0.00840012
5.69683e-08
0.00840028
1.25139e-07
0.00840053
3.00328e-07
0.00840143
6.59921e-07
0.00840281
1.58098e-06
0.00840783
3.47764e-06
8.41436e-06
0.00841552
0.00840003
2.08893e-15
0.00840003
7.02539e-15
0.00840003
3.64956e-14
0.00840003
7.10492e-14
0.00840003
2.48486e-13
0.00840003
4.37728e-13
0.00840003
1.4047e-12
0.00840003
2.4031e-12
0.00840003
7.57313e-12
0.00840003
1.27463e-11
0.00840003
4.02363e-11
0.00840003
6.67385e-11
0.00840003
2.12424e-10
0.00840003
3.46805e-10
0.00840003
1.11652e-09
0.00840003
1.78972e-09
0.00840004
5.84317e-09
0.00840005
9.16105e-09
0.00840008
3.04376e-08
0.00840016
4.63875e-08
0.0084003
1.57844e-07
0.00840072
2.31361e-07
0.00840146
8.16683e-07
0.00840379
1.12727e-06
4.28431e-06
0.00840777
0.00840003
6.42146e-16
0.00840003
4.53031e-15
0.00840003
1.46389e-14
0.00840003
4.2141e-14
0.00840003
1.02589e-13
0.00840003
2.5411e-13
0.00840003
5.79034e-13
0.00840003
1.37681e-12
0.00840003
3.08413e-12
0.00840003
7.21711e-12
0.00840003
1.61054e-11
0.00840003
3.73207e-11
0.00840003
8.3297e-11
0.00840003
1.91251e-10
0.00840003
4.27605e-10
0.00840003
9.71418e-10
0.00840004
2.17824e-09
0.00840004
4.8827e-09
0.00840006
1.0999e-08
0.00840008
2.42175e-08
0.00840018
5.49852e-08
0.00840027
1.18007e-07
0.0084008
2.71809e-07
0.00840126
5.5937e-07
1.34274e-06
0.00840411
0.00840003
3.41822e-16
0.00840003
2.47626e-15
0.00840003
7.60928e-15
0.00840003
2.24885e-14
0.00840003
5.24999e-14
0.00840003
1.34619e-13
0.00840003
2.96852e-13
0.00840003
7.28811e-13
0.00840003
1.57492e-12
0.00840003
3.82858e-12
0.00840003
8.18558e-12
0.00840003
1.99068e-11
0.00840003
4.21905e-11
0.00840003
1.03129e-10
0.00840003
2.16602e-10
0.00840003
5.34349e-10
0.00840003
1.11194e-09
0.00840003
2.78067e-09
0.00840004
5.74129e-09
0.00840004
1.45947e-08
0.00840007
2.99057e-08
0.00840008
7.76191e-08
0.00840019
1.52694e-07
0.00840019
4.092e-07
7.28291e-07
0.00840069
0.00840003
-1.60679e-16
0.00840003
2.12937e-15
0.00840003
2.01616e-15
0.00840003
1.75033e-14
0.00840003
1.56203e-14
0.00840003
1.04303e-13
0.00840003
8.78728e-14
0.00840003
5.78422e-13
0.00840003
4.58336e-13
0.00840003
3.15244e-12
0.00840003
2.33961e-12
0.00840003
1.71391e-11
0.00840003
1.19026e-11
0.00840003
9.35103e-11
0.00840003
6.09688e-11
0.00840003
5.13915e-10
0.00840003
3.16736e-10
0.00840003
2.85777e-09
0.00840003
1.66905e-09
0.00840003
1.61412e-08
0.00840005
8.40549e-09
0.00840003
9.48037e-08
0.00840013
3.06707e-08
0.00839985
5.96214e-07
-1.06513e-07
0.00840049
0.00840003
2.16027e-16
0.00840003
-2.63759e-16
0.00840003
2.99619e-15
0.00840003
-7.83797e-16
0.00840003
1.75472e-14
0.00840003
-6.66833e-15
0.00840003
9.39547e-14
0.00840003
-5.34941e-14
0.00840003
4.93012e-13
0.00840003
-4.06782e-13
0.00840003
2.55014e-12
0.00840003
-3.21073e-12
0.00840003
1.29894e-11
0.00840003
-2.30391e-11
0.00840003
6.4874e-11
0.00840003
-1.57879e-10
0.00840003
3.16415e-10
0.00840003
-1.06038e-09
0.00840003
1.50943e-09
0.00840006
-7.099e-09
0.00840006
7.67416e-09
0.00840019
-4.99699e-08
0.00840011
5.83596e-08
0.00840113
-3.88136e-07
6.33691e-07
0.00839992
0.00840003
0.00840003
0.00840003
0.00840003
0.00840003
0.00840003
0.00840003
0.00840003
0.00840003
0.00840003
0.00840003
0.00840003
0.00840003
0.00840003
0.00840003
0.00840003
0.00840003
0.00840003
0.00840003
0.00840002
0.00840003
0.00839996
0.0084
0.00839948
0.00839992
0.00471064
0.0041187
0.00308292
0.00162869
0.00239327
0.00069066
0.00211838
0.00027589
0.00209378
2.56378e-05
0.00224727
-0.000152443
0.00244197
-0.000193929
0.00255121
-0.000109321
0.00257996
-2.96745e-05
0.00253959
3.71393e-05
0.00246699
6.46281e-05
0.00236391
8.47434e-05
0.00220166
0.000124401
0.00184082
0.000264411
0.00100806
0.000665829
0.000269284
0.000711091
-0.000327139
0.000597579
-0.00087076
0.000534513
-0.00137238
0.000487544
-0.00177724
0.00041056
-0.00208186
0.000314642
-0.00229812
0.000217455
-0.00243792
0.000144146
-0.00254011
0.000110481
-0.00263098
9.67262e-05
-0.00271176
8.69494e-05
-0.00277788
7.15523e-05
-0.00283569
6.06252e-05
-0.00288603
5.40083e-05
-0.00291931
3.58217e-05
-0.00292781
9.63233e-06
-0.00290514
-2.55816e-05
-0.00283175
-7.99873e-05
-0.00269221
-0.000148754
-0.00248929
-0.000213407
-0.00224118
-0.00025849
-0.00196346
-0.000287717
-0.00166638
-0.000305707
-0.00135518
-0.000318522
-0.0010378
-0.000323436
-0.000722013
-0.000320864
-0.000407147
-0.000319231
-8.43208e-05
-0.000326684
0.000228118
-0.000316139
0.000517076
-0.000292425
0.000790493
-0.000276737
0.00105043
-0.000263169
0.00129612
-0.000248701
0.00152741
-0.000234263
0.00174474
-0.000219887
0.00195374
-0.000210916
0.00215744
-0.000205131
0.00235149
-0.000194294
0.00253346
-0.000181835
0.00270446