/*--------------------------------*- C++ -*----------------------------------*\
| =========                 |                                                 |
| \\      /  F ield         | OpenFOAM: The Open Source CFD Toolbox           |
|  \\    /   O peration     | Version:  2412                                  |
|   \\  /    A nd           | Website:  www.openfoam.com                      |
|    \\/     M anipulation  |                                                 |
\*---------------------------------------------------------------------------*/
FoamFile
{
    version     2.0;
    format      ascii;
    arch        "LSB;label=32;scalar=64";
    class       volVectorField;
    location    "4";
    object      U;
}
// * * * * * * * * * * * * * * * * * * * * * * * * * * * * * * * * * * * * * //

dimensions      [0 1 -1 0 0 0 0];

internalField   nonuniform List<vector> 
5250
(
(3 1.08088e-08 0)
(2.99999 8.37299e-08 0)
(2.99996 2.57642e-07 0)
(2.99991 7.79518e-07 0)
(2.99978 1.8331e-06 0)
(2.99951 5.04061e-06 0)
(2.99868 1.06524e-05 0)
(2.99724 3.24556e-05 0)
(2.99182 6.10613e-05 0)
(2.98324 0.000218549 0)
(2.94846 0.000429024 0)
(2.87282 0.00148368 0)
(2.64584 0.00352241 0)
(1.91767 0.0114137 0)
(0.92459 0.0296083 0)
(0.401572 0.0262939 0)
(0.521255 0.0253488 0)
(0.553438 0.0268115 0)
(0.495527 0.0283998 0)
(0.402849 0.0301444 0)
(0.319268 0.0320787 0)
(0.252396 0.0342542 0)
(0.185688 0.0366095 0)
(0.110478 0.0393321 0)
(0.0455028 0.0421052 0)
(3 3.19439e-08 0)
(2.99999 2.47735e-07 0)
(2.99996 7.61733e-07 0)
(2.99992 2.30594e-06 0)
(2.99978 5.41401e-06 0)
(2.99952 1.4958e-05 0)
(2.9987 3.12996e-05 0)
(2.99728 9.7421e-05 0)
(2.99197 0.000179 0)
(2.98355 0.000664875 0)
(2.94947 0.00129175 0)
(2.87556 0.00455449 0)
(2.65334 0.0108743 0)
(1.94017 0.0353016 0)
(0.938117 0.0900925 0)
(0.399945 0.0759054 0)
(0.523022 0.069501 0)
(0.556584 0.0712451 0)
(0.498431 0.0734954 0)
(0.405721 0.0762813 0)
(0.321789 0.0790589 0)
(0.25406 0.0819824 0)
(0.186159 0.0847605 0)
(0.109556 0.0874821 0)
(0.043983 0.0888072 0)
(3 5.15077e-08 0)
(2.99999 3.99792e-07 0)
(2.99996 1.22887e-06 0)
(2.99992 3.72245e-06 0)
(2.99979 8.73851e-06 0)
(2.99953 2.41902e-05 0)
(2.99875 5.04735e-05 0)
(2.99736 0.000158403 0)
(2.99229 0.000287168 0)
(2.98418 0.00108714 0)
(2.95157 0.0020987 0)
(2.88135 0.00747331 0)
(2.66942 0.0179489 0)
(1.99033 0.0584702 0)
(0.971491 0.151389 0)
(0.404174 0.12867 0)
(0.531913 0.116718 0)
(0.56802 0.119705 0)
(0.50946 0.124305 0)
(0.416511 0.130594 0)
(0.331543 0.136037 0)
(0.262213 0.141531 0)
(0.192325 0.146886 0)
(0.113229 0.151746 0)
(0.0449812 0.153352 0)
(3 6.73992e-08 0)
(2.99999 5.22847e-07 0)
(2.99997 1.60769e-06 0)
(2.99992 4.86803e-06 0)
(2.9998 1.14388e-05 0)
(2.99955 3.15851e-05 0)
(2.99881 6.61469e-05 0)
(2.99748 0.000206146 0)
(2.99274 0.000372239 0)
(2.98507 0.001407 0)
(2.95459 0.00270547 0)
(2.88966 0.00962601 0)
(2.69266 0.0231791 0)
(2.06469 0.0755204 0)
(1.0254 0.20059 0)
(0.419779 0.182417 0)
(0.549952 0.167399 0)
(0.589391 0.17012 0)
(0.530573 0.176011 0)
(0.436875 0.185778 0)
(0.349424 0.194291 0)
(0.27744 0.20281 0)
(0.204559 0.211455 0)
(0.121198 0.219309 0)
(0.047988 0.221857 0)
(3 7.73905e-08 0)
(2.99999 5.99759e-07 0)
(2.99997 1.84581e-06 0)
(2.99993 5.57847e-06 0)
(2.99981 1.31519e-05 0)
(2.99958 3.58204e-05 0)
(2.99889 7.69665e-05 0)
(2.99762 0.000227836 0)
(2.99328 0.000429045 0)
(2.98614 0.00152931 0)
(2.95818 0.00298404 0)
(2.89949 0.0102151 0)
(2.72036 0.0254823 0)
(2.15613 0.0798366 0)
(1.10472 0.213543 0)
(0.462249 0.226622 0)
(0.580765 0.219682 0)
(0.620329 0.223038 0)
(0.561571 0.229806 0)
(0.467288 0.242355 0)
(0.376479 0.254263 0)
(0.300553 0.266244 0)
(0.223324 0.278613 0)
(0.134074 0.290231 0)
(0.0534143 0.294606 0)
(3 7.94077e-08 0)
(2.99999 6.13001e-07 0)
(2.99997 1.8891e-06 0)
(2.99993 5.67862e-06 0)
(2.99982 1.34174e-05 0)
(2.99961 3.58226e-05 0)
(2.99897 7.8902e-05 0)
(2.99777 0.000219299 0)
(2.99382 0.000434041 0)
(2.98722 0.00145074 0)
(2.96159 0.00276111 0)
(2.90951 0.00950107 0)
(2.7464 0.0241083 0)
(2.23536 0.0691302 0)
(1.20082 0.192646 0)
(0.50134 0.262695 0)
(0.605766 0.273744 0)
(0.647698 0.276313 0)
(0.594264 0.28382 0)
(0.503739 0.300442 0)
(0.411382 0.317206 0)
(0.331822 0.333704 0)
(0.249631 0.351241 0)
(0.152617 0.368638 0)
(0.0618303 0.37718 0)
(3 7.8581e-08 0)
(2.99999 6.04053e-07 0)
(2.99997 1.86146e-06 0)
(2.99994 5.56658e-06 0)
(2.99983 1.31091e-05 0)
(2.99963 3.46112e-05 0)
(2.99904 7.64158e-05 0)
(2.99792 0.000206612 0)
(2.9943 0.000413183 0)
(2.98809 0.0013524 0)
(2.96468 0.0024262 0)
(2.91821 0.00884824 0)
(2.76604 0.0217153 0)
(2.30292 0.0581034 0)
(1.31337 0.175928 0)
(0.552347 0.305013 0)
(0.619662 0.333727 0)
(0.660051 0.32798 0)
(0.620111 0.335694 0)
(0.540068 0.357601 0)
(0.450134 0.381986 0)
(0.369356 0.405362 0)
(0.284094 0.430497 0)
(0.1795 0.457218 0)
(0.0753722 0.475129 0)
(3 8.65632e-08 0)
(2.99999 6.66474e-07 0)
(2.99997 2.0538e-06 0)
(2.99994 6.1421e-06 0)
(2.99985 1.44718e-05 0)
(2.99966 3.80895e-05 0)
(2.99911 8.45997e-05 0)
(2.99806 0.000223069 0)
(2.99477 0.000463974 0)
(2.98891 0.0013882 0)
(2.96766 0.00264062 0)
(2.92633 0.00885636 0)
(2.78412 0.0210943 0)
(2.37021 0.0595798 0)
(1.44854 0.171496 0)
(0.629311 0.350781 0)
(0.629658 0.379571 0)
(0.659427 0.374411 0)
(0.640623 0.387139 0)
(0.575732 0.412669 0)
(0.491982 0.446136 0)
(0.41293 0.479629 0)
(0.327735 0.516557 0)
(0.217793 0.558424 0)
(0.0976182 0.597691 0)
(3 1.06701e-07 0)
(2.99999 8.18725e-07 0)
(2.99998 2.52662e-06 0)
(2.99995 7.54818e-06 0)
(2.99986 1.79213e-05 0)
(2.99969 4.70061e-05 0)
(2.9992 0.00010599 0)
(2.99823 0.000269909 0)
(2.99527 0.000605872 0)
(2.98991 0.0015352 0)
(2.97075 0.00342239 0)
(2.93421 0.00907106 0)
(2.80489 0.0221991 0)
(2.43867 0.0630665 0)
(1.59489 0.166761 0)
(0.7207 0.392088 0)
(0.638651 0.410115 0)
(0.666314 0.413763 0)
(0.661036 0.435573 0)
(0.610593 0.46506 0)
(0.538 0.507565 0)
(0.464547 0.554127 0)
(0.384317 0.606332 0)
(0.277008 0.673752 0)
(0.137881 0.759939 0)
(3 4.92694e-08 0)
(2.99999 1.29498e-06 0)
(2.99998 2.62703e-06 0)
(2.99995 1.14942e-05 0)
(2.99988 1.9091e-05 0)
(2.99973 7.37422e-05 0)
(2.9993 0.000105975 0)
(2.99847 0.000450413 0)
(2.99582 0.000492845 0)
(2.99127 0.00264162 0)
(2.97382 0.00188948 0)
(2.94249 0.016001 0)
(2.82539 0.0111383 0)
(2.50164 0.0915953 0)
(1.7345 0.159555 0)
(0.817197 0.436437 0)
(0.643433 0.444344 0)
(0.676841 0.450462 0)
(0.684071 0.477847 0)
(0.64661 0.514321 0)
(0.589135 0.564412 0)
(0.525989 0.62389 0)
(0.460026 0.698402 0)
(0.374713 0.811915 0)
(0.213309 1.0189 0)
(3 9.15626e-08 0)
(2.99999 7.13554e-07 0)
(2.99999 2.19649e-06 0)
(2.99996 6.63042e-06 0)
(2.99991 1.57168e-05 0)
(2.99976 4.17745e-05 0)
(2.99951 9.41746e-05 0)
(2.99856 0.000244698 0)
(2.99709 0.000544992 0)
(2.99109 0.0014472 0)
(2.98155 0.00313195 0)
(2.9425 0.00918979 0)
(2.85686 0.0213375 0)
(2.59648 0.0642569 0)
(1.80501 0.185221 0)
(0.943174 0.470461 0)
(0.652759 0.474936 0)
(0.692142 0.483167 0)
(0.71231 0.512775 0)
(0.686845 0.556722 0)
(0.644496 0.612706 0)
(0.601298 0.683219 0)
(0.570139 0.778633 0)
(0.568358 0.924081 0)
(0.604223 1.16675 0)
(3 1.36217e-07 0)
(2.99999 1.42391e-07 0)
(2.99998 1.7999e-06 0)
(2.99996 1.83477e-06 0)
(2.99991 1.24931e-05 0)
(2.9998 1.00618e-05 0)
(2.99947 8.24678e-05 0)
(2.99885 4.14793e-05 0)
(2.99682 0.000586466 0)
(2.99342 0.000310869 0)
(2.98026 0.004224 0)
(2.95756 0.00294447 0)
(2.8708 0.0302533 0)
(2.64645 0.0468949 0)
(2.06621 0.189785 0)
(1.07158 0.510649 0)
(0.676991 0.516077 0)
(0.717345 0.52283 0)
(0.74763 0.545822 0)
(0.732884 0.591624 0)
(0.705043 0.651251 0)
(0.6849 0.728657 0)
(0.690409 0.832725 0)
(0.750176 0.976011 0)
(0.896272 1.16097 0)
(3 7.37009e-08 0)
(3 5.75301e-07 0)
(2.99999 1.76747e-06 0)
(2.99997 5.36223e-06 0)
(2.99992 1.26495e-05 0)
(2.99982 3.4035e-05 0)
(2.99954 7.58559e-05 0)
(2.99898 0.000206379 0)
(2.99732 0.000428722 0)
(2.99412 0.00134264 0)
(2.98384 0.00244606 0)
(2.96427 0.0092336 0)
(2.89671 0.0178411 0)
(2.72285 0.0673795 0)
(2.27179 0.165609 0)
(1.24271 0.495365 0)
(0.739405 0.553005 0)
(0.759714 0.572116 0)
(0.790892 0.582878 0)
(0.786777 0.623306 0)
(0.770788 0.682713 0)
(0.770365 0.759652 0)
(0.802276 0.858292 0)
(0.889075 0.97859 0)
(1.05954 1.09733 0)
(3 8.00403e-08 0)
(3 6.24766e-07 0)
(2.99999 1.92042e-06 0)
(2.99997 5.82334e-06 0)
(2.99993 1.38226e-05 0)
(2.99985 3.70624e-05 0)
(2.99961 8.38044e-05 0)
(2.99914 0.000219827 0)
(2.99777 0.00049519 0)
(2.9951 0.00128338 0)
(2.98677 0.002971 0)
(2.97059 0.0076463 0)
(2.91699 0.018294 0)
(2.78229 0.0518413 0)
(2.42455 0.134442 0)
(1.43614 0.399435 0)
(0.83247 0.577886 0)
(0.807074 0.615159 0)
(0.83077 0.626132 0)
(0.842074 0.655829 0)
(0.838029 0.709217 0)
(0.850522 0.77929 0)
(0.896881 0.863066 0)
(0.991432 0.955874 0)
(1.15524 1.03346 0)
(3 7.51757e-08 0)
(3 5.85214e-07 0)
(2.99999 1.8011e-06 0)
(2.99998 5.44277e-06 0)
(2.99995 1.29225e-05 0)
(2.99988 3.44294e-05 0)
(2.99969 7.78127e-05 0)
(2.99932 0.000201773 0)
(2.9982 0.000456578 0)
(2.99619 0.00115069 0)
(2.9891 0.00270696 0)
(2.97723 0.00652905 0)
(2.93188 0.0162431 0)
(2.82659 0.0418142 0)
(2.53029 0.110956 0)
(1.63626 0.317111 0)
(0.946606 0.616413 0)
(0.840277 0.65246 0)
(0.860542 0.668695 0)
(0.885447 0.686869 0)
(0.898065 0.730421 0)
(0.920988 0.790559 0)
(0.973838 0.858889 0)
(1.06756 0.928418 0)
(1.2162 0.981587 0)
(3 6.26123e-08 0)
(3 4.83829e-07 0)
(2.99999 1.4913e-06 0)
(2.99998 4.47533e-06 0)
(2.99996 1.06002e-05 0)
(2.9999 2.79657e-05 0)
(2.99975 6.27957e-05 0)
(2.99946 0.000162486 0)
(2.99856 0.000355409 0)
(2.99698 0.000954062 0)
(2.99122 0.00198179 0)
(2.982 0.00585174 0)
(2.94515 0.0122548 0)
(2.8654 0.0380178 0)
(2.62656 0.0938192 0)
(1.87491 0.286605 0)
(1.11183 0.650888 0)
(0.875427 0.682603 0)
(0.886773 0.699469 0)
(0.919291 0.71029 0)
(0.948893 0.744436 0)
(0.981394 0.794795 0)
(1.03704 0.850886 0)
(1.12617 0.90405 0)
(1.25786 0.942059 0)
(3 5.26606e-08 0)
(3 4.06456e-07 0)
(2.99999 1.25292e-06 0)
(2.99999 3.75649e-06 0)
(2.99997 8.88745e-06 0)
(2.99992 2.3433e-05 0)
(2.9998 5.24714e-05 0)
(2.99956 0.000136369 0)
(2.99886 0.000294516 0)
(2.99755 0.000815246 0)
(2.99316 0.00161907 0)
(2.98586 0.00521525 0)
(2.95759 0.0101491 0)
(2.89847 0.0346795 0)
(2.71768 0.0815487 0)
(2.14518 0.261921 0)
(1.32397 0.654826 0)
(0.943217 0.712318 0)
(0.928474 0.724779 0)
(0.956045 0.731726 0)
(0.995881 0.754536 0)
(1.03486 0.795012 0)
(1.0906 0.841116 0)
(1.17362 0.883116 0)
(1.28947 0.911678 0)
(3 4.61612e-08 0)
(3 3.56521e-07 0)
(3 1.09905e-06 0)
(2.99999 3.2989e-06 0)
(2.99997 7.8235e-06 0)
(2.99994 2.06557e-05 0)
(2.99985 4.64955e-05 0)
(2.99966 0.000120019 0)
(2.99912 0.000265814 0)
(2.99809 0.000698337 0)
(2.99487 0.0014939 0)
(2.98916 0.00428238 0)
(2.96889 0.00874547 0)
(2.92799 0.0271435 0)
(2.80011 0.0661951 0)
(2.41277 0.19607 0)
(1.61761 0.540526 0)
(1.06697 0.722702 0)
(0.996412 0.747801 0)
(1.00668 0.75934 0)
(1.04521 0.769807 0)
(1.08712 0.798109 0)
(1.1398 0.834051 0)
(1.21474 0.866857 0)
(1.31605 0.888406 0)
(3 2.55432e-08 0)
(3 3.38097e-07 0)
(3 8.34347e-07 0)
(2.99999 3.03681e-06 0)
(2.99998 6.05143e-06 0)
(2.99995 1.89499e-05 0)
(2.99988 3.61981e-05 0)
(2.99975 0.000110405 0)
(2.99934 0.000205651 0)
(2.99857 0.000646327 0)
(2.99613 0.00110286 0)
(2.99194 0.0039424 0)
(2.97618 0.00557312 0)
(2.94821 0.0243134 0)
(2.84535 0.0385198 0)
(2.56886 0.152091 0)
(1.91275 0.364954 0)
(1.19152 0.740257 0)
(1.04437 0.775251 0)
(1.04648 0.790891 0)
(1.08382 0.79289 0)
(1.13195 0.806244 0)
(1.18382 0.831463 0)
(1.25139 0.856146 0)
(1.33986 0.871931 0)
(3 1.85162e-08 0)
(3 2.50412e-07 0)
(3 6.12489e-07 0)
(2.99999 2.24431e-06 0)
(2.99999 4.4251e-06 0)
(2.99997 1.39156e-05 0)
(2.99992 2.623e-05 0)
(2.9998 8.02867e-05 0)
(2.99957 0.000148816 0)
(2.99883 0.000462833 0)
(2.99761 0.000821596 0)
(2.9929 0.00281414 0)
(2.9855 0.00444194 0)
(2.95616 0.0184074 0)
(2.89435 0.0300325 0)
(2.70416 0.120718 0)
(2.14273 0.298818 0)
(1.39663 0.743604 0)
(1.10347 0.80447 0)
(1.08773 0.816648 0)
(1.11609 0.816156 0)
(1.16813 0.81699 0)
(1.22291 0.832148 0)
(1.28502 0.849664 0)
(1.3626 0.860944 0)
(3 3.50082e-08 0)
(3 1.29701e-07 0)
(3 6.07819e-07 0)
(3 1.2898e-06 0)
(2.99999 4.21068e-06 0)
(2.99997 8.10134e-06 0)
(2.99994 2.47262e-05 0)
(2.99985 4.61742e-05 0)
(2.99966 0.000142398 0)
(2.99913 0.000250702 0)
(2.99809 0.000863671 0)
(2.99496 0.00132527 0)
(2.98917 0.00560832 0)
(2.96977 0.00796595 0)
(2.92959 0.0361988 0)
(2.80554 0.0677241 0)
(2.4402 0.243417 0)
(1.7065 0.608514 0)
(1.21905 0.806806 0)
(1.14983 0.832524 0)
(1.15901 0.839561 0)
(1.20507 0.833917 0)
(1.26041 0.838165 0)
(1.31764 0.847739 0)
(1.38583 0.854175 0)
(3 2.17777e-08 0)
(3 1.18738e-07 0)
(3 4.41206e-07 0)
(3 1.13246e-06 0)
(2.99999 3.10803e-06 0)
(2.99998 7.12332e-06 0)
(2.99995 1.84248e-05 0)
(2.9999 4.12013e-05 0)
(2.99974 0.000105391 0)
(2.99943 0.000233923 0)
(2.99851 0.000601243 0)
(2.99684 0.00132092 0)
(2.99105 0.00350358 0)
(2.98114 0.00755431 0)
(2.94547 0.0210081 0)
(2.86305 0.0512192 0)
(2.63007 0.141148 0)
(1.96817 0.419079 0)
(1.36683 0.786782 0)
(1.20423 0.843078 0)
(1.19806 0.862493 0)
(1.23516 0.858454 0)
(1.29173 0.85058 0)
(1.3471 0.85098 0)
(1.40834 0.852217 0)
(3 1.26207e-08 0)
(3 9.78869e-08 0)
(3 3.01679e-07 0)
(3 9.06955e-07 0)
(2.99999 2.1502e-06 0)
(2.99999 5.6745e-06 0)
(2.99997 1.27679e-05 0)
(2.99992 3.28319e-05 0)
(2.99982 7.28941e-05 0)
(2.99955 0.000187994 0)
(2.999 0.000410457 0)
(2.99738 0.00110262 0)
(2.99436 0.00229888 0)
(2.98429 0.00670616 0)
(2.96575 0.0142603 0)
(2.90167 0.0411114 0)
(2.74131 0.110764 0)
(2.308 0.295276 0)
(1.56449 0.755805 0)
(1.27365 0.859777 0)
(1.24115 0.880788 0)
(1.26142 0.882318 0)
(1.31355 0.868172 0)
(1.37177 0.859634 0)
(1.43005 0.855615 0)
(3 1.26554e-08 0)
(3 6.7929e-08 0)
(3 2.53816e-07 0)
(3 6.50771e-07 0)
(3 1.79519e-06 0)
(2.99999 4.11491e-06 0)
(2.99998 1.0709e-05 0)
(2.99995 2.39722e-05 0)
(2.99987 6.17151e-05 0)
(2.99972 0.000137359 0)
(2.99927 0.000353604 0)
(2.99841 0.00078822 0)
(2.99573 0.00204465 0)
(2.99108 0.00451838 0)
(2.97417 0.0122031 0)
(2.94273 0.0279489 0)
(2.83587 0.0779739 0)
(2.54631 0.219067 0)
(1.8978 0.571516 0)
(1.3897 0.851435 0)
(1.295 0.888254 0)
(1.29576 0.900324 0)
(1.33566 0.888542 0)
(1.39315 0.871318 0)
(1.4502 0.862165 0)
(3 4.91212e-09 0)
(3 5.67536e-08 0)
(3 1.47448e-07 0)
(3 5.12984e-07 0)
(3 1.06397e-06 0)
(2.99999 3.18414e-06 0)
(2.99999 6.32061e-06 0)
(2.99996 1.83126e-05 0)
(2.99992 3.59289e-05 0)
(2.99979 0.000103733 0)
(2.99954 0.000201892 0)
(2.99879 0.000593374 0)
(2.99746 0.00111755 0)
(2.99276 0.00355325 0)
(2.98518 0.00618846 0)
(2.95613 0.0222511 0)
(2.89659 0.0419991 0)
(2.71062 0.143964 0)
(2.17502 0.387022 0)
(1.58168 0.816841 0)
(1.35928 0.896081 0)
(1.33532 0.912738 0)
(1.35603 0.907465 0)
(1.40894 0.886703 0)
(1.46822 0.870998 0)
(3 7.49364e-09 0)
(3 3.07683e-08 0)
(3 1.34778e-07 0)
(3 3.02472e-07 0)
(3 9.36434e-07 0)
(3 1.90327e-06 0)
(2.99999 5.49434e-06 0)
(2.99997 1.09147e-05 0)
(2.99994 3.10696e-05 0)
(2.99985 6.11442e-05 0)
(2.99968 0.000175508 0)
(2.99918 0.000336628 0)
(2.99819 0.00102328 0)
(2.99531 0.00181491 0)
(2.98976 0.00632502 0)
(2.97243 0.01047 0)
(2.93578 0.0400541 0)
(2.82615 0.0788975 0)
(2.50272 0.274774 0)
(1.88354 0.654282 0)
(1.47061 0.876664 0)
(1.39377 0.910571 0)
(1.39142 0.919872 0)
(1.42932 0.904992 0)
(1.48514 0.880412 0)
(3 4.46664e-09 0)
(3 2.43571e-08 0)
(3 9.03667e-08 0)
(3 2.31922e-07 0)
(3 6.34517e-07 0)
(3 1.45292e-06 0)
(2.99999 3.74036e-06 0)
(2.99998 8.35724e-06 0)
(2.99996 2.12312e-05 0)
(2.99991 4.71434e-05 0)
(2.99977 0.000119576 0)
(2.99949 0.000264642 0)
(2.9987 0.000674797 0)
(2.99717 0.00148383 0)
(2.99241 0.0038687 0)
(2.98378 0.00845072 0)
(2.95464 0.0229843 0)
(2.88906 0.0543203 0)
(2.70015 0.152632 0)
(2.17006 0.435429 0)
(1.63183 0.837336 0)
(1.4517 0.911752 0)
(1.42963 0.928186 0)
(1.44759 0.922414 0)
(1.49686 0.896775 0)
(3 2.3582e-09 0)
(3 1.82885e-08 0)
(3 5.63754e-08 0)
(3 1.6926e-07 0)
(3 4.01163e-07 0)
(3 1.05522e-06 0)
(3 2.37397e-06 0)
(2.99999 6.069e-06 0)
(2.99997 1.34895e-05 0)
(2.99994 3.43024e-05 0)
(2.99986 7.59522e-05 0)
(2.99964 0.000193545 0)
(2.99921 0.00042709 0)
(2.99797 0.00110067 0)
(2.99556 0.00241258 0)
(2.98829 0.0064323 0)
(2.97385 0.0140814 0)
(2.92964 0.0384826 0)
(2.82156 0.100202 0)
(2.52234 0.268484 0)
(1.88287 0.703693 0)
(1.54439 0.89053 0)
(1.47856 0.924906 0)
(1.47707 0.933945 0)
(1.51249 0.918347 0)
(3 2.40242e-09 0)
(3 1.01457e-08 0)
(3 4.36164e-08 0)
(3 9.96362e-08 0)
(3 3.03658e-07 0)
(3 6.27607e-07 0)
(3 1.78284e-06 0)
(2.99999 3.60671e-06 0)
(2.99998 1.00803e-05 0)
(2.99996 2.02778e-05 0)
(2.9999 5.65428e-05 0)
(2.99978 0.000113341 0)
(2.99945 0.000317639 0)
(2.99882 0.000632395 0)
(2.99685 0.00180708 0)
(2.99348 0.00354178 0)
(2.9813 0.0105667 0)
(2.96009 0.0211782 0)
(2.88393 0.0642755 0)
(2.69344 0.157969 0)
(2.22213 0.442093 0)
(1.67987 0.852536 0)
(1.52725 0.926636 0)
(1.50802 0.942793 0)
(1.52513 0.937604 0)
(3 8.57535e-10 0)
(3 8.88303e-09 0)
(3 2.40979e-08 0)
(3 8.03793e-08 0)
(3 1.72475e-07 0)
(3 4.95909e-07 0)
(3 1.01663e-06 0)
(3 2.82504e-06 0)
(2.99999 5.73269e-06 0)
(2.99997 1.57993e-05 0)
(2.99994 3.19314e-05 0)
(2.99986 8.80431e-05 0)
(2.99964 0.000176949 0)
(2.99921 0.000495647 0)
(2.99798 0.00096292 0)
(2.99559 0.00291646 0)
(2.98849 0.00517714 0)
(2.97417 0.0179895 0)
(2.93141 0.0316013 0)
(2.82503 0.115825 0)
(2.54672 0.265354 0)
(1.9396 0.708538 0)
(1.61883 0.899887 0)
(1.55358 0.937677 0)
(1.55107 0.947622 0)
(3 5.85998e-10 0)
(3 5.94636e-09 0)
(3 1.62353e-08 0)
(3 5.38243e-08 0)
(3 1.1604e-07 0)
(3 3.32079e-07 0)
(3 6.83813e-07 0)
(3 1.89271e-06 0)
(2.99999 3.85918e-06 0)
(2.99998 1.05965e-05 0)
(2.99996 2.1548e-05 0)
(2.99991 5.91144e-05 0)
(2.99979 0.000119885 0)
(2.99947 0.00033024 0)
(2.99887 0.00066609 0)
(2.997 0.00186288 0)
(2.99378 0.0037103 0)
(2.98223 0.0107432 0)
(2.96226 0.0220024 0)
(2.89066 0.0650401 0)
(2.71477 0.159463 0)
(2.27726 0.439998 0)
(1.75949 0.847927 0)
(1.60359 0.933418 0)
(1.58083 0.952458 0)
(3 6.84177e-10 0)
(3 3.00679e-09 0)
(3 1.26005e-08 0)
(3 2.92878e-08 0)
(3 8.73749e-08 0)
(3 1.83186e-07 0)
(3 5.09234e-07 0)
(3 1.04417e-06 0)
(3 2.8527e-06 0)
(2.99999 5.81825e-06 0)
(2.99998 1.58266e-05 0)
(2.99994 3.21807e-05 0)
(2.99987 8.76301e-05 0)
(2.99966 0.000177288 0)
(2.99926 0.000489631 0)
(2.99813 0.00096128 0)
(2.99588 0.00284846 0)
(2.9894 0.00515325 0)
(2.97601 0.0174369 0)
(2.93737 0.0310824 0)
(2.8417 0.110983 0)
(2.59021 0.255801 0)
(2.02537 0.682482 0)
(1.70331 0.894706 0)
(1.62898 0.941781 0)
(3 3.87673e-10 0)
(3 2.1121e-09 0)
(3 7.8223e-09 0)
(3 2.00726e-08 0)
(3 5.46675e-08 0)
(3 1.24956e-07 0)
(3 3.1954e-07 0)
(3 7.11944e-07 0)
(3 1.79415e-06 0)
(2.99999 3.9731e-06 0)
(2.99998 9.98061e-06 0)
(2.99997 2.20557e-05 0)
(2.99991 5.54215e-05 0)
(2.99981 0.000122249 0)
(2.99952 0.000308208 0)
(2.99896 0.000677915 0)
(2.99727 0.00172403 0)
(2.99432 0.00380319 0)
(2.98394 0.00975692 0)
(2.96586 0.022655 0)
(2.90304 0.0584791 0)
(2.74969 0.155057 0)
(2.35972 0.403949 0)
(1.85412 0.82379 0)
(1.682 0.928546 0)
(3 1.52149e-10 0)
(3 1.51367e-09 0)
(3 4.17111e-09 0)
(3 1.37197e-08 0)
(3 2.97807e-08 0)
(3 8.44236e-08 0)
(3 1.74799e-07 0)
(3 4.78547e-07 0)
(3 9.80516e-07 0)
(3 2.6598e-06 0)
(2.99999 5.4363e-06 0)
(2.99998 1.47099e-05 0)
(2.99995 3.0012e-05 0)
(2.99987 8.12837e-05 0)
(2.99972 0.000165296 0)
(2.9993 0.000452735 0)
(2.99849 0.000901314 0)
(2.99608 0.00260589 0)
(2.99169 0.0048885 0)
(2.97736 0.0157327 0)
(2.94943 0.029723 0)
(2.86294 0.0978334 0)
(2.62925 0.241671 0)
(2.15143 0.617536 0)
(1.79219 0.885556 0)
(3 1.52492e-10 0)
(3 8.23656e-10 0)
(3 3.05333e-09 0)
(3 7.8291e-09 0)
(3 2.12972e-08 0)
(3 4.86233e-08 0)
(3 1.24049e-07 0)
(3 2.75914e-07 0)
(3 6.93089e-07 0)
(3 1.53181e-06 0)
(2.99999 3.83255e-06 0)
(2.99999 8.45316e-06 0)
(2.99997 2.11323e-05 0)
(2.99992 4.65309e-05 0)
(2.99983 0.000116455 0)
(2.99957 0.000255851 0)
(2.99906 0.00064493 0)
(2.99764 0.00140179 0)
(2.99487 0.00366362 0)
(2.98648 0.00766598 0)
(2.97075 0.0215815 0)
(2.92029 0.0471737 0)
(2.79493 0.137723 0)
(2.47896 0.35684 0)
(1.98515 0.769038 0)
(3 1.08737e-10 0)
(3 4.98616e-10 0)
(3 2.03979e-09 0)
(3 4.82284e-09 0)
(3 1.41208e-08 0)
(3 3.00413e-08 0)
(3 8.19963e-08 0)
(3 1.70529e-07 0)
(3 4.57417e-07 0)
(3 9.46902e-07 0)
(3 2.52727e-06 0)
(2.99999 5.22869e-06 0)
(2.99998 1.39299e-05 0)
(2.99995 2.88123e-05 0)
(2.9999 7.67489e-05 0)
(2.99974 0.000158486 0)
(2.99944 0.000423531 0)
(2.9986 0.000870325 0)
(2.99692 0.00236394 0)
(2.99218 0.00476482 0)
(2.98242 0.0137566 0)
(2.95483 0.0271308 0)
(2.88939 0.0839136 0)
(2.71327 0.197976 0)
(2.26702 0.546171 0)
(3 6.62999e-11 0)
(3 3.04736e-10 0)
(3 1.2434e-09 0)
(3 2.94768e-09 0)
(3 8.60598e-09 0)
(3 1.83485e-08 0)
(3 4.99184e-08 0)
(3 1.04e-07 0)
(3 2.77987e-07 0)
(3 5.76299e-07 0)
(3 1.53274e-06 0)
(3 3.17476e-06 0)
(2.99999 8.4299e-06 0)
(2.99997 1.74518e-05 0)
(2.99994 4.63458e-05 0)
(2.99986 9.57994e-05 0)
(2.99966 0.000255149 0)
(2.99925 0.000525873 0)
(2.99812 0.00141174 0)
(2.99593 0.00290833 0)
(2.9895 0.00792518 0)
(2.97692 0.0167295 0)
(2.93956 0.046392 0)
(2.84984 0.10925 0)
(2.60774 0.30603 0)
(3 2.3915e-11 0)
(3 2.25961e-10 0)
(3 6.36772e-10 0)
(3 2.04549e-09 0)
(3 4.51557e-09 0)
(3 1.25124e-08 0)
(3 2.62934e-08 0)
(3 7.03363e-08 0)
(3 1.46132e-07 0)
(3 3.87193e-07 0)
(3 8.02305e-07 0)
(3 2.11899e-06 0)
(2.99999 4.38711e-06 0)
(2.99999 1.15715e-05 0)
(2.99996 2.39311e-05 0)
(2.99992 6.31249e-05 0)
(2.9998 0.000130235 0)
(2.99956 0.000344586 0)
(2.9989 0.000706846 0)
(2.99761 0.00189655 0)
(2.99393 0.00383755 0)
(2.98661 0.0106722 0)
(2.96554 0.0218093 0)
(2.91717 0.0623621 0)
(2.78572 0.147712 0)
(3 1.68524e-11 0)
(3 1.29263e-10 0)
(3 3.99395e-10 0)
(3 1.18636e-09 0)
(3 2.80804e-09 0)
(3 7.2744e-09 0)
(3 1.62979e-08 0)
(3 4.08886e-08 0)
(3 9.04092e-08 0)
(3 2.2495e-07 0)
(3 4.95718e-07 0)
(3 1.23043e-06 0)
(3 2.7085e-06 0)
(2.99999 6.71779e-06 0)
(2.99998 1.47747e-05 0)
(2.99995 3.66561e-05 0)
(2.99989 8.05032e-05 0)
(2.99973 0.000200112 0)
(2.99942 0.000438692 0)
(2.99854 0.00109751 0)
(2.99679 0.00239449 0)
(2.99191 0.00609318 0)
(2.98173 0.0135047 0)
(2.95355 0.0348603 0)
(2.88674 0.0855071 0)
(3 1.3717e-11 0)
(3 6.32728e-11 0)
(3 2.5664e-10 0)
(3 6.12275e-10 0)
(3 1.77333e-09 0)
(3 3.79939e-09 0)
(3 1.02379e-08 0)
(3 2.14099e-08 0)
(3 5.66299e-08 0)
(3 1.17764e-07 0)
(3 3.09819e-07 0)
(3 6.43536e-07 0)
(3 1.68982e-06 0)
(3 3.50893e-06 0)
(2.99999 9.20878e-06 0)
(2.99997 1.91098e-05 0)
(2.99994 5.01975e-05 0)
(2.99986 0.000104031 0)
(2.99965 0.000274357 0)
(2.99924 0.000566813 0)
(2.99809 0.00150866 0)
(2.99587 0.00312785 0)
(2.98939 0.00841042 0)
(2.97687 0.0180107 0)
(2.93961 0.0487327 0)
(3 4.98394e-12 0)
(3 4.58171e-11 0)
(3 1.30425e-10 0)
(3 4.14906e-10 0)
(3 9.22187e-10 0)
(3 2.5296e-09 0)
(3 5.34498e-09 0)
(3 1.41445e-08 0)
(3 2.95306e-08 0)
(3 7.73821e-08 0)
(3 1.61094e-07 0)
(3 4.20754e-07 0)
(3 8.75355e-07 0)
(3 2.28273e-06 0)
(2.99999 4.74761e-06 0)
(2.99999 1.237e-05 0)
(2.99996 2.57055e-05 0)
(2.99992 6.69846e-05 0)
(2.9998 0.00013891 0)
(2.99957 0.000362982 0)
(2.99892 0.000748862 0)
(2.99766 0.00198287 0)
(2.9941 0.00403533 0)
(2.987 0.0110918 0)
(2.96684 0.0226349 0)
(3 3.30562e-12 0)
(3 2.53358e-11 0)
(3 7.82635e-11 0)
(3 2.31874e-10 0)
(3 5.48665e-10 0)
(3 1.41593e-09 0)
(3 3.16849e-09 0)
(3 7.91225e-09 0)
(3 1.74641e-08 0)
(3 4.3235e-08 0)
(3 9.50878e-08 0)
(3 2.34803e-07 0)
(3 5.15879e-07 0)
(3 1.27264e-06 0)
(3 2.79475e-06 0)
(2.99999 6.8915e-06 0)
(2.99998 1.51233e-05 0)
(2.99995 3.72997e-05 0)
(2.9999 8.17338e-05 0)
(2.99974 0.000201938 0)
(2.99944 0.000441523 0)
(2.99861 0.00109829 0)
(2.99696 0.00238826 0)
(2.99239 0.00604114 0)
(2.98286 0.0133636 0)
(3 2.30403e-12 0)
(3 1.25717e-11 0)
(3 4.63778e-11 0)
(3 1.18966e-10 0)
(3 3.2132e-10 0)
(3 7.31737e-10 0)
(3 1.84771e-09 0)
(3 4.09133e-09 0)
(3 1.0154e-08 0)
(3 2.23216e-08 0)
(3 5.51339e-08 0)
(3 1.20959e-07 0)
(3 2.98321e-07 0)
(3 6.54034e-07 0)
(3 1.61227e-06 0)
(3 3.53265e-06 0)
(2.99999 8.70981e-06 0)
(2.99998 1.90652e-05 0)
(2.99994 4.70624e-05 0)
(2.99987 0.000102874 0)
(2.99967 0.000254874 0)
(2.99928 0.000555807 0)
(2.99822 0.00138753 0)
(2.99614 0.00304516 0)
(2.99022 0.00763544 0)
(3 8.43013e-13 0)
(3 7.96492e-12 0)
(3 2.24135e-11 0)
(3 7.20148e-11 0)
(3 1.58024e-10 0)
(3 4.36487e-10 0)
(3 9.09737e-10 0)
(3 2.42095e-09 0)
(3 4.97874e-09 0)
(3 1.3118e-08 0)
(3 2.68595e-08 0)
(3 7.05797e-08 0)
(3 1.44208e-07 0)
(3 3.78678e-07 0)
(3 7.72434e-07 0)
(3 2.02821e-06 0)
(2.99999 4.12951e-06 0)
(2.99998 1.08476e-05 0)
(2.99997 2.20286e-05 0)
(2.99992 5.79517e-05 0)
(2.99982 0.000117223 0)
(2.99955 0.000309781 0)
(2.99903 0.00062204 0)
(2.99759 0.00166849 0)
(2.9948 0.00329899 0)
(3 7.71454e-13 0)
(3 3.3153e-12 0)
(3 1.40214e-11 0)
(3 3.22533e-11 0)
(3 9.57513e-11 0)
(3 1.97725e-10 0)
(3 5.43625e-10 0)
(3 1.09092e-09 0)
(3 2.94358e-09 0)
(3 5.8425e-09 0)
(3 1.57096e-08 0)
(3 3.09647e-08 0)
(3 8.33457e-08 0)
(3 1.63221e-07 0)
(3 4.40474e-07 0)
(3 8.56467e-07 0)
(3 2.31926e-06 0)
(2.99999 4.47124e-06 0)
(2.99998 1.21623e-05 0)
(2.99995 2.31902e-05 0)
(2.99988 6.35009e-05 0)
(2.9997 0.000119233 0)
(2.99935 0.000330473 0)
(2.99837 0.000605077 0)
(2.99645 0.00173317 0)
(3 3.9136e-13 0)
(3 1.58335e-12 0)
(3 7.14161e-12 0)
(3 1.5468e-11 0)
(3 4.86776e-11 0)
(3 9.4253e-11 0)
(3 2.74098e-10 0)
(3 5.12667e-10 0)
(3 1.46762e-09 0)
(3 2.69168e-09 0)
(3 7.72904e-09 0)
(3 1.3928e-08 0)
(3 4.03852e-08 0)
(3 7.13752e-08 0)
(3 2.09758e-07 0)
(3 3.62232e-07 0)
(3 1.0827e-06 0)
(2.99999 1.81648e-06 0)
(2.99998 5.54863e-06 0)
(2.99996 8.96061e-06 0)
(2.9999 2.82061e-05 0)
(2.99978 4.31473e-05 0)
(2.99943 0.000142265 0)
(2.99876 0.000199497 0)
(2.99679 0.000720593 0)
(3 1.30315e-13 0)
(3 9.83765e-13 0)
(3 3.02054e-12 0)
(3 8.90557e-12 0)
(3 2.09392e-11 0)
(3 5.3106e-11 0)
(3 1.17713e-10 0)
(3 2.85854e-10 0)
(3 6.22495e-10 0)
(3 1.48927e-09 0)
(3 3.22211e-09 0)
(3 7.65248e-09 0)
(3 1.64982e-08 0)
(3 3.89679e-08 0)
(3 8.37727e-08 0)
(3 1.96862e-07 0)
(3 4.22108e-07 0)
(2.99999 9.86859e-07 0)
(2.99998 2.11247e-06 0)
(2.99996 4.90782e-06 0)
(2.99991 1.05171e-05 0)
(2.9998 2.41369e-05 0)
(2.99948 5.20106e-05 0)
(2.99885 0.000113497 0)
(2.99698 0.000261173 0)
(3 1.00877e-14 0)
(3 6.96945e-13 0)
(3 1.22482e-12 0)
(3 6.09019e-12 0)
(3 8.9102e-12 0)
(3 3.65702e-11 0)
(3 5.05827e-11 0)
(3 2.0192e-10 0)
(3 2.67573e-10 0)
(3 1.09161e-09 0)
(3 1.3877e-09 0)
(3 5.88107e-09 0)
(3 7.17584e-09 0)
(3 3.17904e-08 0)
(3 3.73276e-08 0)
(3 1.73195e-07 0)
(3 1.96726e-07 0)
(2.99999 9.55967e-07 0)
(2.99999 1.05482e-06 0)
(2.99997 5.37101e-06 0)
(2.99992 5.57302e-06 0)
(2.99981 3.12576e-05 0)
(2.99951 2.40844e-05 0)
(2.99893 0.000190641 0)
(2.99706 3.95054e-05 0)
(3 3.5783e-15 0)
(3 2.35837e-13 0)
(3 6.46989e-13 0)
(3 1.81814e-12 0)
(3 4.23741e-12 0)
(3 1.0444e-11 0)
(3 2.30018e-11 0)
(3 5.52664e-11 0)
(3 1.19646e-10 0)
(3 2.84392e-10 0)
(3 6.11784e-10 0)
(3 1.44694e-09 0)
(3 3.10332e-09 0)
(3 7.32609e-09 0)
(3 1.56879e-08 0)
(3 3.70175e-08 0)
(3 7.92936e-08 0)
(2.99999 1.86703e-07 0)
(2.99999 4.01013e-07 0)
(2.99997 9.33789e-07 0)
(2.99993 2.00851e-06 0)
(2.99981 4.52965e-06 0)
(2.99961 9.73548e-06 0)
(2.99887 2.01308e-05 0)
(2.99771 4.49681e-05 0)
(3 4.79139e-14 0)
(3 -1.15682e-13 0)
(3 4.95051e-13 0)
(3 -1.14383e-12 0)
(3 2.66035e-12 0)
(3 -7.52171e-12 0)
(3 1.3655e-11 0)
(3 -4.68555e-11 0)
(3 6.94122e-11 0)
(3 -2.88996e-10 0)
(3 3.4512e-10 0)
(3 -1.77837e-09 0)
(3 1.65113e-09 0)
(3 -1.09534e-08 0)
(3 7.39415e-09 0)
(3 -6.77069e-08 0)
(3 2.94657e-08 0)
(2.99999 -4.21984e-07 0)
(2.99999 9.31989e-08 0)
(2.99997 -2.66344e-06 0)
(2.99992 2.9787e-07 0)
(2.99982 -1.75975e-05 0)
(2.99952 6.02888e-06 0)
(2.99896 -0.000126418 0)
(2.9971 0.000121148 0)
(1.28012 1.07674 0)
(1.71433 0.879746 0)
(1.91729 0.614687 0)
(1.95218 0.347962 0)
(1.90338 0.129136 0)
(1.80433 -0.0140324 0)
(1.69957 -0.0521777 0)
(1.64012 -0.0204314 0)
(1.62131 0.0251722 0)
(1.61014 0.0501804 0)
(1.58163 0.0522666 0)
(1.51053 0.052037 0)
(1.3436 0.0574473 0)
(0.979718 0.0837461 0)
(0.507886 0.152265 0)
(0.152637 0.169926 0)
(-0.0114443 0.134931 0)
(-0.219227 0.0920237 0)
(-0.393619 0.0565158 0)
(-0.530913 0.0249093 0)
(-0.65051 0.00407785 0)
(-0.743224 -0.00745485 0)
(-0.804931 -0.00429664 0)
(-0.848902 0.00494322 0)
(-0.887663 0.0119297 0)
(-0.926219 0.0152025 0)
(-0.965212 0.0141137 0)
(-0.997129 0.0103992 0)
(-1.01638 0.00608789 0)
(-1.0265 0.00194151 0)
(-1.02671 -0.00146781 0)
(-1.00683 -0.00428708 0)
(-0.959777 -0.00863259 0)
(-0.886887 -0.014635 0)
(-0.795528 -0.0209749 0)
(-0.695665 -0.0253031 0)
(-0.593965 -0.0278226 0)
(-0.49442 -0.0299961 0)
(-0.397718 -0.0337785 0)
(-0.305209 -0.0378517 0)
(-0.218614 -0.0401266 0)
(-0.13591 -0.0416512 0)
(-0.0601611 -0.0449779 0)
(0.0232834 -0.0434293 0)
(0.0943559 -0.037642 0)
(0.160509 -0.0350473 0)
(0.222197 -0.0330377 0)
(0.279976 -0.0311141 0)
(0.332991 -0.0291708 0)
(0.382018 -0.0273854 0)
(0.43206 -0.0265596 0)
(0.482752 -0.0263976 0)
(0.530791 -0.0251741 0)
(0.576105 -0.0236336 0)
(0.619461 -0.0223019 0)
(0.661174 -0.0211569 0)
(0.701422 -0.0201575 0)
(0.740247 -0.0192049 0)
(0.77777 -0.0183178 0)
(0.814039 -0.0174496 0)
(0.849151 -0.0166304 0)
(0.883151 -0.0158234 0)
(0.916136 -0.0150546 0)
(0.948148 -0.0142984 0)
(0.979267 -0.0135773 0)
(1.00954 -0.0128709 0)
(1.03902 -0.0122013 0)
(1.06775 -0.0115489 0)
(1.09578 -0.0109333 0)
(1.12313 -0.0103353 0)
(1.14986 -0.00976985 0)
(1.17597 -0.0092198 0)
(1.20152 -0.00869625 0)
(1.22651 -0.00818422 0)
(1.25098 -0.00769376 0)
(1.27494 -0.00721196 0)
(1.29842 -0.00674958 0)
(1.32143 -0.00629601 0)
(1.34398 -0.00586222 0)
(1.36606 -0.0054394 0)
(1.38771 -0.0050372 0)
(1.40891 -0.00464662 0)
(1.42967 -0.00427522 0)
(1.45 -0.00391404 0)
(1.46992 -0.00356813 0)
(1.48943 -0.00322837 0)
(1.50855 -0.00289661 0)
(1.52729 -0.002567 0)
(1.54568 -0.00224492 0)
(1.56372 -0.00192896 0)
(1.58141 -0.00163831 0)
(1.59876 -0.00137249 0)
(1.61573 -0.00113864 0)
(1.63229 -0.000909432 0)
(1.64837 -0.000649798 0)
(1.66379 -0.000348084 0)
(1.67824 7.93608e-06 0)
(1.69114 0.000450408 0)
(1.70127 0.00106751 0)
(1.70842 0.00179011 0)
(1.36465 0.99263 0)
(1.68506 0.718418 0)
(1.86647 0.411586 0)
(1.95608 0.146747 0)
(2.00548 -0.0417737 0)
(2.0315 -0.143034 0)
(2.03812 -0.152903 0)
(2.03442 -0.11582 0)