/*--------------------------------*- C++ -*----------------------------------*\
| =========                 |                                                 |
| \\      /  F ield         | OpenFOAM: The Open Source CFD Toolbox           |
|  \\    /   O peration     | Version:  2412                                  |
|   \\  /    A nd           | Website:  www.openfoam.com                      |
|    \\/     M anipulation  |                                                 |
\*---------------------------------------------------------------------------*/
FoamFile
{
    version     2.0;
    format      ascii;
    arch        "LSB;label=32;scalar=64";
    class       volScalarField;
    location    "0.0025";
    object      ddt0(rho,K);
}
// * * * * * * * * * * * * * * * * * * * * * * * * * * * * * * * * * * * * * //

dimensions      [1 -1 -3 0 0 0 0];

internalField   nonuniform List<scalar> 
180000
(
1.13373e-06
-1.1921e-05
9.70808e-07
-2.12196e-05
-7.15793e-05
-3.73857e-05
-6.39535e-05
-5.09795e-06
-7.91618e-06
-3.9509e-05
-7.30426e-06
1.15596e-05
2.70855e-05
8.30384e-06
7.66113e-05
3.62691e-05
4.17594e-05
7.21125e-05
8.49773e-05
3.57023e-06
1.38778e-05
1.95559e-05
6.00221e-06
3.91466e-06
-3.16586e-05
5.01436e-06
-5.21241e-05
-2.09122e-05
-1.3237e-05
-1.13077e-05
1.96705e-05
7.06505e-06
2.95963e-05
4.69475e-05
2.73102e-05
-1.11107e-05
-3.69609e-05
-5.91934e-06
4.4994e-05
-6.72024e-06
7.5677e-05
9.83945e-05
9.55736e-05
0.000107402
0.00010306
5.86723e-05
-5.091e-06
3.14506e-06
7.76229e-06
1.95569e-05
3.45682e-05
7.57943e-05
3.02827e-05
3.84174e-05
2.97326e-05
-3.37529e-05
-3.54575e-05
-6.26293e-05
-2.58812e-05
-3.35749e-05
-2.14948e-05
1.5292e-05
-1.76806e-05
-1.848e-05
-3.09443e-05
3.00345e-05
4.29278e-05
2.46151e-05
-4.52288e-05
-2.50164e-06
-3.37645e-05
-6.46139e-05
-5.65485e-05
4.38831e-06
-1.00588e-05
3.04378e-05
1.9059e-06
-4.72388e-06
-1.90006e-05
1.49757e-05
-1.41023e-05
4.1915e-06
-1.57185e-05
8.4364e-05
1.96781e-05
-3.2483e-05
-2.33595e-05
1.15596e-05
-1.47636e-05
3.23475e-05
2.43459e-05
6.96187e-06
2.80846e-06
2.58495e-05
2.02632e-05
6.08445e-06
1.94466e-05
6.61314e-06
-1.23365e-05
-2.82961e-05
-7.5852e-06
7.08612e-06
1.84532e-05
1.93861e-05
1.32997e-05
-7.1279e-06
-1.65625e-05
-1.85717e-05
-5.93166e-05
-5.63762e-05
4.42108e-05
-2.6066e-06
4.11955e-06
2.51164e-05
-9.92838e-06
1.9861e-05
9.85707e-06
-1.69099e-05
-2.01179e-05
-8.75503e-05
-1.22964e-05
-3.66602e-05
-6.41108e-05
-4.45144e-05
4.9963e-05
3.81305e-05
-3.81684e-06
3.54815e-05
2.80614e-05
1.50449e-05
3.78513e-05
1.73462e-05
3.26988e-06
-5.25866e-06
6.30198e-05
3.72133e-06
-9.44376e-06
9.38045e-06
2.1726e-06
5.712e-05
2.00865e-06
-3.53831e-05
-1.22576e-05
8.71809e-06
2.53328e-06
-5.09355e-05
-2.08441e-05
-3.52384e-05
-3.69453e-05
-2.01937e-05
-4.9548e-05
-3.13423e-05
1.7391e-05
3.03876e-05
3.17736e-05
6.04542e-05
4.72595e-05
-2.77637e-05
-3.56626e-05
-6.20212e-05
-4.2825e-06
2.05223e-05
2.02815e-05
3.1004e-05
-3.07559e-05
-1.04659e-05
-3.97077e-05
-8.83865e-05
-2.71253e-05
-5.15425e-05
2.06979e-05
1.03053e-05
9.57869e-06
-1.77805e-05
-9.3334e-05
-7.52013e-05
-4.58861e-05
-3.65819e-05
-4.38679e-05
-1.12553e-06
3.33042e-05
-1.53034e-05
-2.3938e-05
-7.35707e-06
-2.03196e-05
-8.63011e-06
1.43329e-05
1.03793e-05
-3.04125e-05
8.98852e-07
-4.18884e-07
4.88643e-05
-5.89418e-06
-1.24314e-05
1.88137e-05
6.34033e-05
-4.40876e-07
4.32692e-05
5.75778e-07
1.69628e-05
2.91933e-05
6.3355e-05
6.29733e-05
3.18733e-05
5.86755e-05
3.64776e-05
3.18227e-05
-1.03143e-05
3.29534e-05
-2.26758e-05
3.29929e-05
2.7306e-05
3.45172e-05
5.74621e-05
8.86252e-06
3.74158e-05
2.86798e-05
2.25547e-05
2.34376e-05
-3.90188e-06
1.04258e-06
6.7775e-06
1.66558e-06
7.84569e-06
-2.56218e-05
2.43881e-05
1.22708e-05
2.2104e-05
-3.27806e-07
-1.64042e-05
-6.9012e-06
2.90178e-05
4.83644e-05
3.69679e-05
6.36517e-05
1.63529e-05
1.66619e-05
3.53742e-05
-1.91358e-06
5.08306e-05
2.36034e-05
2.44629e-05
-1.91022e-05
-3.71173e-06
-6.728e-05
-3.19067e-05
3.93331e-05
-1.52714e-05
-2.32988e-05
-5.02156e-05
-2.24011e-05
-3.57982e-05
-3.49513e-05
-1.18852e-05
-6.48154e-05
-4.03298e-05
-1.0656e-05
-9.48338e-06
1.52844e-05
3.52894e-05
7.78973e-06
-1.54315e-05
-2.75525e-05
-2.45141e-05
4.08382e-05
8.99397e-05
0.000129863
0.000124436
0.000193351
0.000256986
0.000439333
0.000676963
0.00110914
0.00189362
0.00304405
0.00496675
0.00797906
0.0127866
0.0204784
0.0329371
0.05279
0.0848725
0.136134
0.218597
0.350409
0.562475
0.900091
1.44006
2.29153
3.6329
5.68229
8.76148
12.9695
18.1929
21.4478
16.5032
-24.8058
-140.595
-492.296
-1057.4
2.58047e-05
6.04982e-05
4.10648e-05
1.68787e-05
8.7436e-06
4.61778e-06
-2.70785e-05
-2.752e-05
-2.70207e-05
-5.15147e-05
-6.9822e-05
-2.92364e-05
-2.05675e-05
8.18161e-06
2.76525e-05
2.81142e-05
7.94826e-05
6.19907e-05
6.19881e-05
5.91126e-05
2.6228e-05
-3.34267e-06
4.78131e-05
3.63717e-05
1.37591e-05
-3.28277e-06
4.99074e-05
4.14296e-05
-9.70092e-07
6.38556e-05
7.61022e-07
2.9394e-05
-2.87908e-06
-1.44879e-05
2.74911e-06
-2.61653e-05
-5.3248e-05
-6.40929e-05
-6.06963e-05
-1.07173e-06
9.85672e-06
7.36529e-07
8.92772e-05
6.52853e-05
5.76003e-05
3.13685e-05
2.81504e-05
2.35541e-05
6.75398e-05
5.80906e-05
5.09595e-05
2.60863e-05
8.924e-05
3.98815e-05
7.97134e-05
6.24287e-05
7.21369e-05
3.35035e-06
2.85131e-05
6.62982e-05
3.33976e-05
5.34114e-05
2.07169e-05
1.80932e-05
-1.36102e-05
5.36604e-06
-9.57906e-06
-3.07075e-05
3.38672e-05
-1.3433e-05
1.92608e-05
-1.36445e-05
-2.51769e-05
-2.32007e-06
-1.3671e-05
-2.59422e-06
-6.14679e-06
-6.79661e-05
-6.76599e-05
-2.40406e-05
-3.99937e-05
-7.21948e-05
-7.67565e-05
-6.07538e-05
-2.93546e-05
-1.67945e-05
-3.68295e-05
8.02125e-06
-2.19482e-05
-4.71295e-05
-7.00565e-05
-7.53888e-05
-7.33526e-05
-8.42775e-05
-4.97146e-05
-1.55157e-05
3.11852e-05
3.3492e-05
2.4506e-05
4.05575e-05
7.87592e-05
7.27946e-05
6.84336e-05
4.67461e-05
9.34983e-06
-4.39125e-07
-8.01464e-05
-8.87856e-06
-1.92698e-05
-1.65669e-05
-3.13246e-05
-7.14051e-05
-3.85701e-05
2.55422e-05
5.61592e-05
3.67994e-05
1.82167e-05
-2.43644e-05
2.94843e-06
3.75856e-05
1.84888e-05
2.94843e-05
-4.93853e-06
2.64106e-05
2.8956e-05
3.19348e-05
2.37978e-05
7.28096e-06
1.47922e-05
4.09129e-05
1.62829e-05
-2.0397e-05
-6.86606e-05
-3.93443e-05
-5.96202e-05
-8.77022e-05
-5.26707e-05
-2.64877e-05
-1.15958e-05
-1.2573e-06
3.62596e-06
2.0571e-05
6.89426e-06
-2.98821e-05
2.70818e-06
1.25036e-05
-2.90907e-05
-3.67799e-05
-3.49296e-06
3.89549e-05
-1.58703e-05
-1.42982e-05
1.27375e-05
6.64501e-05
1.34642e-06
-3.21491e-05
-1.00999e-05
4.40407e-05
1.26051e-05
-3.54438e-06
-2.44366e-05
-1.06768e-05
3.86622e-05
3.28938e-05
-1.50746e-05
4.79953e-05
5.63395e-05
5.32132e-06
4.09024e-05
5.96016e-06
-1.72497e-05
2.23137e-05
4.94869e-05
7.31155e-05
4.42288e-05
3.49629e-05
-7.18576e-06
-1.22306e-06
2.64516e-05
5.78149e-05
8.6493e-05
6.05939e-05
-1.29693e-05
1.79274e-05
1.56315e-05
3.1621e-05
9.6359e-07
3.3275e-05
1.50709e-05
1.37297e-05
-2.56316e-05
1.73383e-05
2.03211e-05
-5.37034e-05
-8.92919e-06
-3.29083e-06
6.12778e-06
-3.30817e-06
-2.23305e-05
-3.70828e-05
-2.31229e-05
-7.1656e-05
4.65593e-06
-1.7302e-05
2.42892e-05
6.74157e-06
3.42089e-05
6.38124e-05
3.55225e-06
-1.71075e-07
-6.6361e-06
-1.16657e-05
4.17497e-05
2.75414e-06
3.42726e-05
1.04898e-05
-1.19941e-06
-2.29337e-05
-1.35207e-05
-2.53341e-05
-6.54458e-05
-7.24008e-05
-5.05666e-05
4.42271e-05
4.6862e-05
9.52046e-06
-3.30772e-05
-4.57659e-05
-2.58165e-05
-3.94432e-05
-2.80646e-05
-2.21354e-05
-1.17654e-06
3.88433e-06
5.14857e-05
8.17763e-06
-2.17108e-05
-4.67937e-05
-4.81244e-05
-3.69316e-08
-6.76453e-06
-9.42012e-06
-2.65924e-05
-3.29878e-06
-1.57839e-05
1.11777e-05
2.40817e-05
5.56552e-06
4.61314e-05
-3.5635e-05
-6.30586e-05
-7.19116e-05
-5.25598e-05
-5.90422e-05
3.34079e-05
-1.53108e-05
3.20979e-05
1.0714e-05
-4.12787e-05
-5.30008e-05
-5.96062e-06
-6.41656e-05
-2.6764e-05
-7.60173e-05
-1.45052e-05
2.79428e-06
6.242e-05
9.62163e-05
0.0001563
0.000257746
0.000392074
0.000713256
0.00114366
0.00189616
0.00302276
0.004798
0.0076879
0.0123236
0.0196925
0.0315767
0.0506003
0.0812992
0.130417
0.20951
0.33592
0.53918
0.8634
1.38285
2.20581
3.51139
5.5398
8.66372
13.23
19.6367
27.0114
32.866
23.7646
-20.6406
-183.26
-467.62
-2.6112e-05
1.37839e-06
1.52084e-06
6.75027e-05
2.63821e-05
-1.10085e-05
3.62458e-05
4.36541e-05
3.31427e-05
1.73941e-05
-1.01672e-05
-2.38182e-05
-7.33551e-05
-5.85569e-06
3.34476e-05
-1.8638e-05
7.04953e-06
2.18624e-05
7.89146e-07
-8.64032e-05
-9.61163e-05
-5.15371e-05
-3.9853e-05
1.06165e-05
3.18661e-05
4.18791e-05
-4.91858e-05
-2.67523e-05
2.4575e-06
-1.50528e-06
3.5154e-05
6.87507e-05
2.93263e-05
3.39873e-05
1.62971e-05
2.19244e-06
-4.04093e-05
5.22088e-05
3.17862e-05
3.71259e-05
3.90185e-05
1.53752e-05
2.44984e-05
3.16954e-05
2.39816e-05
4.6929e-05
-2.72116e-05
-4.87136e-05
-4.09575e-05
-1.90477e-05
-4.12027e-05
-2.09948e-05
-3.68969e-05
-7.17825e-05
-3.6936e-05
-2.39601e-05
-2.16109e-05
2.62394e-05
3.82741e-05
1.30516e-08
3.43804e-05
2.39149e-06
-3.23963e-05
-3.13732e-06
-6.00661e-06
3.53552e-05
-1.31938e-06
5.52373e-05
6.58936e-05
9.21586e-05
9.16845e-05
5.46925e-05
7.17795e-05
2.78297e-05
-1.97858e-06
-1.79611e-06
1.44749e-05
6.94265e-05
8.44818e-05
3.791e-06
2.85485e-06
2.04333e-05
2.30819e-05
4.6633e-05
3.68379e-05
3.38841e-05
3.71947e-05
5.64367e-05
1.48544e-06
2.6172e-05
-4.32992e-05
-7.00189e-05
-5.37781e-05
-7.54624e-05
-8.99548e-05
-6.61167e-05
-9.14054e-06
-3.6981e-05
-4.51075e-05
-7.25466e-05
-3.1496e-05
-2.52938e-05
-2.80236e-05
4.8911e-05
5.93128e-05
-7.62172e-06
-4.4472e-05
-1.97431e-05
1.03145e-05
-5.49243e-05
-5.47545e-05
-1.53455e-05
-2.59438e-05
1.16894e-05
-3.03763e-05
-7.00658e-06
-2.35582e-05
3.06736e-05
6.37287e-05
6.34556e-05
8.50709e-05
6.162e-06
1.95365e-05
4.38619e-05
4.92023e-05
4.37156e-05
-2.77438e-05
-1.54059e-05
-3.92493e-05
-3.34814e-05
-4.91635e-05
-2.03892e-05
-1.73696e-05
-6.73613e-05
-1.72199e-05
-8.63291e-06
-2.63166e-05
-2.97811e-06
-8.77275e-05
-5.05932e-05
1.01007e-05
-6.22693e-05
2.65875e-06
2.61677e-05
-7.11736e-06
-7.28779e-06
1.7826e-05
3.29309e-05
-1.7145e-05
-5.49617e-06
2.87588e-05
7.21732e-05
2.93055e-05
1.54719e-05
-5.17008e-05
-5.64051e-05
1.81224e-05
3.7797e-05
-2.71698e-06
7.81424e-06
-3.39017e-06
1.6732e-05
-6.83209e-06
2.08359e-05
8.05189e-06
1.898e-05
2.3944e-05
-2.12527e-05
-1.96858e-05
-1.50138e-05
-7.77427e-05
-1.03877e-05
-5.29135e-05
2.50798e-06
1.43294e-05
-1.85345e-05
5.53002e-06
-3.65679e-05
1.08722e-05
-1.96309e-05
-3.40023e-05
1.21834e-05
2.24303e-05
5.28306e-05
7.37867e-05
6.91313e-05
4.54247e-07
1.75319e-05
1.14115e-06
1.11879e-05
-2.10699e-05
-1.19303e-05
4.1053e-05
3.07273e-05
-1.79611e-05
1.42042e-05
2.90305e-05
-8.39126e-05
-5.21261e-05
1.10181e-05
-8.9216e-06
1.91408e-05
5.90798e-05
4.21214e-05
-2.10118e-05
-3.00377e-05
-5.59185e-05
-5.25691e-05
-3.52203e-05
-1.89601e-05
-1.51345e-05
3.76101e-06
-1.53549e-05
-4.31498e-05
-1.14904e-05
-1.2101e-05
-3.45682e-05
-6.92661e-06
-2.92682e-05
-5.62195e-05
1.11004e-05
2.91431e-05
-2.82284e-05
-3.24e-05
-5.65867e-05
-7.25628e-05
-8.78596e-05
-4.91194e-05
-1.90143e-05
5.82722e-06
5.15765e-05
2.87613e-05
-6.09607e-06
-3.35592e-05
-1.43818e-05
1.18678e-05
0.000114266
8.31601e-05
3.50139e-05
1.4726e-05
3.26927e-05
3.24001e-05
8.1385e-06
3.03529e-05
3.57895e-05
-1.61949e-05
2.44167e-05
3.29228e-05
3.17711e-05
5.31709e-05
4.33418e-05
3.6633e-05
3.20514e-05
-5.13955e-05
-3.47747e-05
1.2084e-06
-3.5019e-05
-2.52667e-05
-4.75122e-06
-6.1882e-05
-5.44914e-05
-5.65623e-05
-7.7476e-05
-2.07264e-05
-3.25387e-07
1.63454e-05
4.39992e-05
9.15719e-05
0.000144089
0.000222024
0.000415592
0.000655024
0.00106509
0.00174912
0.00279862
0.00441733
0.00706309
0.0113079
0.0180782
0.0290601
0.0464734
0.0745727
0.119429
0.191489
0.306542
0.491242
0.785631
1.25728
2.00511
3.19564
5.05905
7.97317
12.3606
18.909
27.6242
38.5838
44.3176
39.3389
-33.1726
-133.914
-9.70586e-06
4.1123e-05
2.00922e-05
4.97051e-06
1.72117e-06
-1.30912e-05
1.55993e-05
-1.9918e-05
-2.45608e-05
1.62662e-05
-2.50399e-05
-4.97481e-05
-5.94914e-05
-5.67449e-05
-6.06638e-05
-8.63896e-05
-0.000127527
-6.5432e-05
-3.82148e-05
-2.38782e-05
-1.11925e-05
-1.03653e-05
3.75932e-05
2.85069e-05
4.90954e-05
3.19842e-05
4.22659e-05
8.10319e-05
2.62183e-05
-1.6921e-05
-5.42617e-06
-9.25144e-06
-9.1437e-06
3.12783e-05
1.78063e-05
-5.30794e-05
-9.99512e-06
1.9875e-05
6.78423e-05
8.60405e-05
6.38191e-05
3.16712e-05
-1.09125e-05
-6.68409e-06
1.21302e-05
-2.14396e-06
1.34994e-05
-5.31364e-06
-1.48319e-05
-3.94348e-06
-1.2862e-05
2.6156e-05
2.0588e-05
-1.23352e-05
2.38026e-05
1.85502e-05
-2.92193e-05
2.50722e-05
-8.20553e-07
-5.33746e-05
-5.59366e-05
-6.33064e-05
-0.000113835
-4.9552e-05
-3.81063e-06
-1.30437e-05
-5.39431e-05
-1.82953e-05
1.14876e-06
2.3049e-05
5.79092e-07
2.39691e-05
3.90078e-05
-7.16847e-06
-3.55438e-06
-1.73751e-05
-3.40777e-05
1.96864e-05
1.08018e-05
2.63486e-05
-2.94365e-06
4.00811e-05
7.11776e-05
5.78614e-05
-2.01745e-05
-3.19449e-05
-8.13711e-05
-3.17546e-05
1.32627e-05
4.28139e-05
6.69288e-05
7.05335e-05
6.16213e-05
2.18084e-05
6.81402e-05
6.24519e-05
6.29196e-05
2.34317e-05
2.5312e-05
-5.59194e-05
-1.06676e-05
-2.86227e-05
-2.9494e-05
-1.68417e-05
-5.02304e-05
-3.98939e-05
-5.29369e-05
-7.85848e-05
-3.38891e-05
-3.63216e-05
7.52459e-06
-1.47955e-05
5.84075e-06
1.2463e-05
5.51845e-05
1.81841e-05
5.94343e-05
5.30674e-05
1.62379e-05
-1.54221e-05
2.68467e-05
5.90752e-05
1.22431e-05
-3.68363e-05
-6.9799e-05
-1.31588e-06
5.58522e-05
4.31638e-05
-6.01718e-06
6.62638e-05
9.93352e-05
7.66576e-05
4.07873e-05
2.76142e-05
1.02664e-05
5.39163e-05
0.000101123
8.34695e-05
2.5855e-05
9.46808e-06
4.4173e-05
5.86912e-05
3.88062e-05
2.45444e-05
-1.93389e-05
1.08906e-05
7.67075e-06
8.45595e-06
5.42468e-05
1.13628e-05
2.8109e-05
-1.41203e-05
-1.60869e-05
-3.35078e-05
-5.52417e-05
-4.14026e-05
2.00654e-05
-3.68853e-06
-3.82459e-05
-1.88419e-05
-8.52913e-06
3.87267e-05
-1.68316e-05
-5.58977e-05
-2.17706e-05
-2.057e-05
-2.17879e-06
1.11498e-05
4.3878e-06
2.87679e-05
2.53393e-05
8.83523e-06
-4.86695e-05
-2.22807e-05
-3.18405e-05
-2.30325e-06
-5.56089e-05
-3.17561e-05
-4.20312e-05
-2.44021e-05
-4.32523e-05
-2.59995e-05
-7.17652e-05
-8.1423e-05
-8.49523e-05
-5.13435e-05
-4.17804e-05
3.42118e-06
-3.61576e-05
-5.57551e-05
-7.94669e-06
-8.19521e-05
-5.55301e-05
-5.1793e-05
-1.35046e-05
4.34639e-07
-3.69851e-05
-4.87868e-05
5.97719e-06
7.35447e-06
9.88969e-06
3.50145e-05
3.68647e-05
8.92305e-05
6.46486e-05
8.58867e-05
8.69284e-05
6.9599e-05
9.85915e-05
9.50653e-05
6.66417e-05
5.04236e-05
1.03148e-05
4.11806e-05
1.28331e-05
1.03001e-05
6.58761e-06
-1.95355e-06
1.20892e-05
-9.10856e-06
3.38006e-05
-2.7228e-05
-4.78643e-05
-9.14862e-06
-8.71181e-06
1.96533e-05
3.34199e-05
-9.17688e-06
6.36074e-05
5.41259e-05
-8.63013e-06
3.6789e-05
1.89758e-05
3.8408e-05
3.2866e-05
-3.83298e-06
-3.29779e-05
-2.89345e-05
-4.81962e-06
-2.89178e-05
3.73953e-05
-6.12122e-06
-6.8258e-06
-2.80195e-05
-6.77692e-05
2.3104e-05
1.66892e-05
1.65595e-05
5.04434e-05
-3.45739e-05
-3.08109e-05
8.3609e-06
8.60084e-05
8.73676e-05
4.38519e-05
-1.82774e-05
-1.53058e-05
5.45451e-05
6.05653e-05
2.82678e-05
8.35485e-05
3.73949e-05
-7.79123e-06
4.06327e-05
1.03727e-05
-3.04685e-05
-4.00664e-06
1.95359e-06
0.000144777
0.000180778
0.000366233
0.000557856
0.00088703
0.00150402
0.00237005
0.00382851
0.00632891
0.0100805
0.0160951
0.0257615
0.0411285
0.0657214
0.105013
0.16813
0.268578
0.429708
0.686038
1.09618
1.7464
2.78288
4.41203
6.98246
10.9215
17.0006
25.6736
38.2355
50.9491
65.9692
46.8719
54.1783
1.20805e-06
-1.69198e-05
3.46854e-05
3.64945e-05
4.33414e-05
7.34772e-05
6.95549e-05
1.88837e-05
4.88704e-05
2.81818e-06
-4.04043e-05
-7.5206e-05
-6.5873e-05
-1.67085e-05
1.66133e-05
1.07059e-05
2.36604e-05
4.38019e-05
1.89195e-05
8.957e-05
5.2607e-05
6.97178e-05
0.000116286
6.83056e-05
1.92497e-05
8.61044e-06
-3.63931e-05
1.95785e-05
3.28043e-05
-3.28961e-06
2.07425e-05
-2.65271e-06
-5.69845e-05
-6.9949e-05
-8.42806e-05
-5.32625e-05
-4.70583e-05
-4.4701e-06
-8.36752e-06
-7.08002e-05
-1.47521e-05
1.69772e-05
-2.08377e-05
2.48695e-05
2.44563e-06
2.61493e-05
5.50062e-06
2.10392e-05
7.33579e-05
7.12816e-05
3.9985e-05
-5.39432e-06
3.57252e-05
-9.86091e-06
-3.06859e-05
-4.08531e-05
2.39845e-05
1.77583e-05
-1.34654e-05
-7.19184e-05
-2.1454e-05
-1.26696e-05
-6.6299e-05
-1.64811e-05
-8.20251e-05
-9.9962e-06
-9.59997e-06
-3.66183e-05
-4.59604e-05
-5.05934e-05
-8.21934e-05
-7.71919e-05
-3.20644e-05
3.62086e-06
-2.60791e-05
5.91512e-05
2.5333e-05
1.58745e-05
7.05829e-06
-2.23695e-05
2.43942e-05
3.68233e-05
1.21546e-06
-1.2392e-05
-1.8127e-05
-6.02596e-05
-5.92827e-05
-3.6036e-05
-4.95321e-05
-4.22988e-05
3.91182e-05
3.40419e-06
-7.55269e-06
4.45216e-05
3.97753e-05
1.28818e-05
2.6177e-05
1.85857e-06
3.33406e-05
4.83652e-05
4.29246e-05
-4.36846e-06
-2.20004e-05
8.55731e-06
1.22597e-05
-2.40399e-06
-2.97847e-05
-4.18598e-05
-1.6381e-05
-4.8299e-05
-2.14464e-06
8.47437e-06
-2.62181e-06
4.54206e-05
2.37616e-05
3.84373e-05
9.35477e-07
8.32265e-06
3.15241e-05
3.02436e-05
1.68851e-05
-8.72019e-06
-2.86114e-05
-9.1857e-05
-6.43026e-05
-4.02216e-05
-5.04283e-05
-5.93487e-05
-7.0442e-05
-3.13361e-05
-6.42269e-05
-2.36545e-05
-5.75052e-05
-2.93022e-05
-7.7626e-06
-1.02649e-05
-2.57593e-05
-3.57306e-06
-1.28458e-05
-5.52077e-06
5.52829e-05
5.50436e-05
-1.29187e-06
-3.51416e-06
-2.11166e-06
2.69319e-05
5.10742e-05
1.21107e-05
-2.00446e-06
-3.34542e-05
-2.02928e-06
4.93188e-06
-1.2612e-05
-3.1372e-06
4.91099e-05
-9.00654e-06
8.57922e-06
1.98968e-05
3.30876e-05
-6.3201e-06
5.60846e-05
3.60492e-05
1.97343e-05
-5.62209e-06
4.06627e-05
-2.95466e-05
3.52147e-05
-9.32722e-06
-2.67794e-05
3.77109e-05
-6.73562e-06
9.20547e-06
3.37035e-05
5.96376e-05
3.64205e-05
-4.01514e-07
7.94976e-06
1.9254e-05
3.30594e-05
1.29764e-05
5.17283e-05
-1.27665e-05
-8.06326e-06
-2.64349e-05
-4.70399e-05
-2.24473e-05
-1.54647e-05
-4.13154e-05
-2.20273e-05
3.26929e-05
6.2778e-05
2.04507e-05
-4.7751e-06
-7.80577e-06
-1.48987e-05
5.54943e-05
5.88621e-05
7.99278e-05
4.00465e-05
6.61791e-05
-2.26098e-05
-3.43051e-05
-1.71391e-05
-4.13241e-05
4.43836e-05
2.01551e-05
3.651e-05
2.63194e-06
4.21655e-06
-6.95492e-05
-0.00011118
3.952e-05
3.07437e-06
-2.95746e-05
5.47861e-05
3.56828e-05
-4.37879e-05
-3.37353e-05
-4.15871e-05
-9.31887e-07
3.70986e-05
3.95269e-06
1.41644e-06
3.56585e-06
-1.09618e-05
1.52436e-06
-3.15501e-05
8.81444e-06
4.04618e-05
-1.78012e-05
3.17379e-06
-1.20733e-05
-3.75198e-05
1.04436e-05
-1.28586e-05
6.63689e-05
-9.4286e-07
-8.47041e-05
-6.60247e-05
1.07093e-05
1.29417e-05
2.64324e-05
4.39411e-05
-1.42086e-05
2.66514e-05
1.14545e-05
-1.45187e-07
-2.28192e-05
-5.04051e-05
-5.08788e-05
-1.46746e-05
1.29176e-05
4.13338e-05
-2.32383e-05
3.15889e-06
-4.30172e-05
-3.21841e-05
2.26563e-05
-1.88734e-06
3.29302e-06
1.99948e-05
1.87079e-05
-4.74499e-05
4.50723e-06
2.68294e-05
7.50722e-05
6.80054e-05
0.000109448
0.000116499
0.000212236
0.000308841
0.000474877
0.000792777
0.00133154
0.00212167
0.0033853
0.00538647
0.00864184
0.0137793
0.02203
0.0351103
0.0561255
0.0894539
0.142932
0.227741
0.363563
0.579084
0.923391
1.46895
2.33814
3.70663
5.87486
9.22817
14.4924
22.2606
34.2021
48.5301
70.5355
76.8867
134.68
1.17422e-05
-1.95892e-05
-3.82859e-05
-6.4377e-05
-4.5925e-05
2.28748e-05
-3.38609e-05
-5.66824e-05
-7.35205e-05
4.24742e-06
-1.33583e-05
-4.13617e-05
-1.07587e-05
-4.15329e-05
8.43067e-05
2.53096e-05
4.54373e-05
1.89596e-07
3.90027e-05
-1.86806e-05
7.40165e-06
3.77265e-05
-6.84429e-06
9.54765e-06
1.26468e-05
1.85189e-06
-4.0306e-05
-2.70581e-05
-3.50544e-05
-2.50599e-05
3.37095e-05
-5.72644e-06
-5.99641e-05
7.51814e-06
-1.55019e-05
-1.78427e-05
-3.37808e-06
-3.58691e-05
-5.37398e-05
-6.36578e-05
-6.89121e-05
-2.83641e-05
-1.97883e-05
-1.50266e-05
2.52961e-05
1.28291e-05
5.82413e-06
-6.09002e-06
-9.45636e-06
7.79127e-06
-5.78095e-06
-4.023e-06
-1.02377e-05
-1.2051e-05
-3.78748e-05
-6.56752e-05
-3.06302e-06
4.67745e-06
1.75905e-05
3.21052e-05
2.52815e-05
3.54043e-05
4.70967e-05
5.38379e-05
3.82874e-05
1.9659e-05
-5.48265e-05
3.31867e-06
5.9041e-06
2.34615e-05
7.71241e-05
3.21935e-05
-1.08414e-05
3.98527e-05
2.41283e-05
-4.28107e-05
-4.97773e-06
-2.03169e-05
-2.47931e-05
1.45862e-05
-2.0312e-05
-1.73215e-05
-2.67024e-05
1.79393e-06
-1.59586e-06
-3.09516e-05
7.57879e-07
-8.15269e-05
-1.76953e-05
-4.30626e-05
-7.55981e-05
-1.04217e-05
-2.2898e-05
1.65717e-05
-1.74697e-05
-3.78343e-05
3.33738e-06
-1.01065e-05
-4.77981e-06
-3.29936e-05
-5.22207e-05
-1.54149e-05
2.39159e-05
2.50686e-05
1.93759e-05
-2.3352e-06
6.63917e-05
3.85324e-06
-6.2156e-05
-4.24467e-05
-7.07637e-06
4.05677e-05
-1.09427e-05
6.30988e-05
5.14228e-05
5.67936e-05
4.4095e-07
-5.17201e-05
-2.33702e-05
-3.66373e-06
1.70648e-05
4.85003e-05
1.24962e-06
-1.75755e-06
2.168e-05
1.88156e-05
2.80914e-05
4.41359e-05
5.37581e-05
5.24205e-05
3.07054e-05
1.8284e-05
-6.02542e-06
7.14087e-06
1.69374e-05
1.3023e-05
4.85477e-05
6.85491e-05
1.61513e-05
1.45845e-05
4.59839e-05
6.32474e-06
-3.82424e-05
-5.29134e-05
-8.00001e-05
-6.14626e-05
-3.93047e-05
-4.77354e-05
-3.16128e-06
9.46438e-06
2.17651e-05
-4.13969e-08
7.73334e-05
3.37351e-05
5.26677e-05
8.92601e-05
0.000101917
7.02929e-06
-6.69103e-06
2.35935e-05
5.03299e-06
1.40495e-05
-2.93247e-05
-1.29658e-05
-5.19227e-05
-9.94672e-05
-2.16626e-05
-6.76319e-05
-4.24699e-05
-4.92297e-05
1.55251e-05
-2.61548e-05
-3.72461e-06
-1.82239e-05
-3.33135e-05
3.48575e-05
-7.88933e-06
-4.3193e-05
-2.53825e-05
-4.06616e-06
1.35844e-05
1.10507e-05
-2.91272e-06
-1.2696e-05
1.44633e-05
4.73285e-06
-3.52711e-05
-7.94811e-06
2.50926e-05
2.53964e-05
-2.22938e-06
1.64447e-05
4.49525e-05
-3.7894e-06
-2.97418e-05
2.10647e-05
5.52458e-06
4.44805e-05
4.56543e-05
1.99086e-05
2.19059e-05
2.24123e-05
2.26658e-05
1.59117e-05
2.63494e-05
-3.45593e-05
-3.97464e-05
1.43772e-05
9.49186e-06
2.05968e-05
8.73074e-06
1.21397e-05
6.42192e-05
1.94141e-05
6.07295e-06
-7.52277e-06
-3.6989e-06
-1.09871e-05
3.62287e-05
-1.25915e-06
5.79446e-05
3.02935e-06
-4.735e-05
-2.17286e-05
-1.9844e-05
-3.60849e-05
-2.57545e-06
4.47385e-05
2.01761e-06
7.55728e-06
-1.3006e-05
1.90243e-05
1.37502e-05
5.14318e-05
3.88164e-05
6.13605e-06
3.01614e-05
2.26578e-05
1.78563e-05
-2.19011e-05
-2.90395e-05
-4.70652e-05
1.33245e-05
7.76306e-07
1.47776e-05
2.00191e-05
-3.16208e-05
4.49799e-06
8.84048e-06
-3.24463e-05
-2.50464e-05
-1.11172e-05
-3.27118e-05
-3.29128e-05
-1.1876e-05
-5.02148e-05
-5.76578e-05
-3.6476e-05
-3.63194e-05
-1.44685e-05
1.59001e-05
-2.5103e-05
1.93706e-05
4.99873e-05
-2.51771e-06
1.87223e-05
-1.07501e-05
-6.68188e-06
0.000132897
0.000217238
0.000295913
0.000444838
0.000701285
0.00111982
0.00173615
0.00284908
0.00452774
0.00718109
0.0115095
0.0183771
0.029244
0.0466908
0.0743161
0.118399
0.188283
0.299855
0.476628
0.758532
1.20445
1.91449
3.03267
4.80766
7.56601
11.9368
18.5041
28.9082
42.3573
64.8869
81.3417
155.641
9.4447e-06
-1.61446e-05
3.42174e-06
-2.55037e-05
-4.37407e-05
5.87964e-07
2.03206e-05
-7.62128e-06
1.35128e-05
1.51037e-05
-1.22739e-05
-6.93853e-06
-4.61434e-05
-5.67882e-05
-4.61575e-05
-5.17042e-05
-4.09467e-05
-3.83207e-05
-4.75419e-05
-7.20647e-05
-6.03613e-05
-2.00166e-05
-2.97003e-05
-9.10102e-06
3.8649e-06
-1.21203e-05
-3.241e-06
-3.57115e-06
8.67705e-07
3.24373e-05
-1.39095e-05
8.55537e-06
5.26984e-05
4.41658e-05
4.11862e-05
3.22908e-05
3.15879e-05
3.66869e-06
-7.71068e-06
-4.44257e-05
-5.08534e-05
-3.5021e-05
-3.50538e-06
-1.10469e-05
-7.96724e-06
4.48979e-05
5.87422e-05
3.94331e-05
0.000116625
5.84417e-05
6.11524e-05
1.31682e-05
-1.043e-05
-1.32086e-07
3.82775e-05
9.08378e-06
-5.87805e-05
-2.45201e-05
7.84975e-06
2.2819e-05
2.53203e-05
1.3853e-05
-3.03293e-05
-2.53897e-05
-6.7978e-05
-6.86531e-05
-2.46974e-05
-3.42112e-05
-7.77254e-05
-5.44539e-05
-7.47982e-05
-3.41354e-05
-2.03478e-05
-5.39434e-06
-1.91396e-05
1.7673e-05
-3.00899e-05
9.56812e-06
5.20324e-05
-4.65324e-05
-6.45085e-05
-3.46137e-05
-6.92967e-06
2.47429e-05
-1.05292e-05
-4.65014e-06
1.4087e-05
-1.67706e-06
-2.43003e-05
2.52609e-05
2.44991e-05
-3.32926e-05
-4.66744e-05
1.19463e-06
-4.82392e-05
-4.51142e-05
-3.33749e-06
2.87216e-05
5.30551e-05
3.22748e-05
-3.98874e-06
-9.1505e-06
-5.05678e-05
1.51204e-05
2.65121e-05
-7.2802e-06
-1.78698e-05
-3.14938e-07
-9.99695e-06
-8.98284e-06
-5.66853e-06
4.27539e-05
9.75055e-07
3.77881e-05
-3.09642e-05
-1.34239e-05
1.90694e-05
6.40111e-05
5.62491e-05
2.32599e-05
-5.79773e-06
-1.1719e-05
-2.34657e-05
1.91984e-05
6.15594e-06
7.52055e-06
3.02943e-05
1.7871e-05
1.45966e-05
7.26475e-06
5.13347e-05
5.37187e-05
2.42276e-05
-5.73701e-06
-5.80261e-05
-2.47502e-05
-2.51464e-05
-7.0652e-05
-5.2496e-05
-5.24937e-05
-3.60989e-05
1.00975e-05
-9.02257e-06
8.88887e-06
3.03828e-06
7.89142e-06
2.22438e-05
6.9929e-05
5.7464e-05
3.19749e-05
-1.04189e-05
2.39386e-05
1.43584e-05
-2.03716e-05
-1.84048e-05
-4.84604e-05
-8.07989e-06
-6.59848e-05
-5.4134e-05
-0.000123928
-6.75498e-05
-7.33973e-05
-5.25892e-05
-3.65435e-05
-2.43434e-05
-6.32047e-05
-3.67783e-05
-5.48211e-05
-3.84649e-05
-1.82909e-05
2.21889e-06
1.90796e-05
8.78988e-06
2.71205e-05
1.1569e-05
-3.37498e-05
-2.57395e-05
-2.90638e-05
-3.85615e-05
-5.47623e-05
-4.76741e-06
1.60221e-05
3.13086e-05
7.29755e-05
-3.64338e-06
-3.42224e-05
-7.60367e-05
-3.44666e-05
-1.21543e-05
-1.84708e-05
-2.69134e-05
-3.10734e-06
3.69817e-05
-6.4129e-06
1.04096e-05
4.08282e-05
5.38731e-05
3.56455e-05
-3.259e-05
-1.25611e-05
-2.7021e-05
1.50497e-05
-1.18885e-05
-6.50352e-05
-9.30555e-05
-3.93263e-05
-4.49459e-05
-8.39625e-06
-2.35233e-06
5.52247e-06
2.52006e-05
2.22453e-05
3.75499e-05
7.37374e-06
-3.96455e-05
5.05999e-05
4.87065e-05
-1.45528e-05
-2.47591e-05
-1.30599e-05
2.38016e-05
-2.45533e-05
2.00886e-05
-5.59322e-06
1.47781e-06
-2.83031e-05
-1.09624e-05
-4.15565e-05
-4.07196e-05
-3.29878e-05
-5.08425e-05
-4.27124e-05
-1.24808e-05
7.3533e-06
2.03173e-05
4.32942e-05
-4.26184e-05
-2.13451e-05
-6.22822e-05
-7.0977e-06
4.05331e-05
4.71108e-05
1.79601e-05
8.76103e-06
-1.9157e-05
3.13603e-05
1.136e-06
4.86526e-06
2.26063e-05
1.02712e-05
9.08698e-06
6.21747e-05
4.47957e-05
4.75409e-05
5.61238e-05
6.51585e-05
2.1356e-05
-1.48095e-05
-1.38221e-05
8.61179e-06
1.19387e-05
1.61057e-05
4.64991e-06
6.90155e-05
2.04097e-05
1.68247e-05
1.65188e-05
8.03724e-05
8.86534e-05
0.000173594
0.000216459
0.000329437
0.000578604
0.000978867
0.00147073
0.0023738
0.00376799
0.00600037
0.00951306
0.0150953
0.0240064
0.0380616
0.0605148
0.0961678
0.152573
0.242645
0.384939
0.611401
0.969369
1.53858
2.43484
3.85855
6.07677
9.60938
14.9723
23.6099
35.2169
55.4647
74.2639
147.63
-2.99575e-06
-5.64008e-06
-1.87956e-05
-3.02725e-05
1.95333e-05
-1.23079e-05
-1.34747e-05
-6.49415e-05
4.62923e-05
9.6593e-06
-4.19499e-05
-5.29374e-05
-2.54854e-05
-2.02446e-05
-1.33596e-05
-4.03849e-05
3.40933e-06
3.34479e-06
3.90619e-05
2.50681e-05
5.4554e-06
-2.70684e-05
-5.93737e-06
3.35644e-05
-1.8186e-05
3.87793e-06
2.47629e-05
-4.21712e-05
-3.31559e-05
-4.56424e-05
-5.71811e-05
-2.46144e-05
-1.19905e-05
-1.03373e-05
2.65685e-05
-1.81552e-05
-1.87097e-05
-5.33855e-06
1.27889e-05
-6.28771e-05
-2.42781e-05
-6.07011e-05
-2.10921e-05
-2.68863e-05
-5.63822e-05
-1.32864e-05
2.16522e-06
-5.64322e-05
-7.64914e-06
-2.5547e-06
3.3252e-05
5.9745e-05
3.00995e-05
3.70648e-05
1.05734e-05
3.23493e-05
4.95725e-05
3.539e-05
3.82395e-06
1.16508e-06
-4.8276e-05
-3.77371e-05
-1.76321e-05
-2.10132e-05
-7.12876e-05
-6.4105e-05
-2.99756e-05
-6.11594e-05
-3.86502e-05
-2.69394e-05
6.88435e-06
-5.05647e-07
2.4272e-07
3.59651e-05
7.05763e-06
-1.12305e-06
1.12595e-05
3.26453e-06
-9.9481e-07
6.49634e-06
-3.64878e-05
-4.23453e-05
-1.73558e-05
-2.40468e-05
-6.96401e-06
1.72639e-05
1.01253e-05
1.13722e-05
-1.0613e-06
3.58371e-05
4.30612e-05
1.29549e-05
-1.86767e-05
2.31472e-05
5.96915e-05
5.6387e-05
-2.36031e-05
-4.81278e-05
1.4629e-05
-5.62579e-06
3.2142e-05
3.53181e-06
-2.25512e-05
1.73317e-06
7.51153e-08
-1.17005e-05
-3.96507e-06
1.83135e-05
2.43615e-06
1.99969e-05
5.66273e-05
1.79789e-05
-1.08022e-05
-5.07369e-05
-5.20136e-05
-4.33948e-05
-8.41825e-06
2.94382e-05
-1.22364e-05
1.74026e-05
6.30395e-05
2.4349e-05
-5.3229e-05
-2.31522e-05
-3.97638e-06
-2.79349e-06
-4.98959e-06
3.81599e-05
1.36793e-05
-1.80012e-05
-2.21884e-05
-1.99464e-05
1.62855e-05
8.13684e-05
2.84073e-05
2.56781e-05
-2.59696e-05
-2.43185e-05
5.3954e-05
-5.1882e-05
-3.56875e-05
-6.60576e-06
1.93967e-05
-1.56637e-05
1.38605e-06
7.52736e-06
1.42557e-05
8.61105e-06
-2.66496e-05
-4.89564e-05
2.24377e-05
-4.65502e-06
9.69648e-06
-5.44204e-06
4.89487e-05
2.02072e-05
-1.51322e-05
3.87448e-05
5.55146e-05
3.60969e-05
8.23945e-07
2.11961e-05
2.31315e-05
8.6293e-05
7.98366e-05
5.13513e-05
4.96557e-05
7.00082e-05
3.6837e-05
-1.84941e-05
1.25942e-05
3.38824e-05
1.71653e-05
4.20027e-05
-6.17085e-06
2.90899e-07
-7.72827e-06
1.32527e-05
3.98849e-05
1.52088e-05
7.26266e-06
-9.93919e-06
-3.27467e-05
-2.36203e-05
2.68205e-05
1.88159e-05
4.92178e-05
1.94377e-05
1.89326e-05
-1.99761e-05
8.68414e-06
-1.6294e-05
-3.19736e-05
-1.25528e-06
3.33312e-05
1.66721e-05
-1.07016e-05
4.01091e-05
9.19586e-06
-9.17378e-06
3.46758e-05
4.46183e-05
2.16163e-05
-1.18511e-06
-2.0071e-05
3.0837e-05
1.36559e-05
1.9832e-06
-3.97239e-05
-1.5786e-05
-7.36731e-06
-3.27399e-05
3.988e-06
2.48287e-05
-7.58794e-06
-1.04682e-05
8.93577e-06
-4.91273e-05
-8.49831e-05
-1.96309e-05
-5.64161e-05
-5.16826e-05
-3.1452e-05
-5.78657e-05
-2.53447e-05
-6.66822e-06
-7.8395e-05
-1.43082e-05
3.17657e-05
4.8497e-05
3.75489e-05
-2.78202e-05
-1.14354e-06
-2.17241e-05
-6.21841e-05
-5.00295e-05
-5.81299e-05
-4.73646e-05
-5.25024e-05
-2.95123e-05
1.81526e-06
1.09388e-05
-4.87609e-06
-4.01306e-05
-2.4132e-05
-3.08909e-05
-5.46992e-07
-2.90971e-05
2.13991e-05
3.78323e-05
3.33155e-05
4.39236e-05
3.83659e-05
1.43182e-07
-5.69988e-05
1.11229e-05
-6.77527e-06
2.81839e-05
6.92139e-05
8.61126e-05
2.58982e-05
-2.84533e-05
4.67505e-05
7.01164e-05
3.32072e-05
6.03377e-05
5.11122e-05
8.12442e-05
0.000154308
0.00016488
0.000242468
0.000319284
0.000478978
0.000775144
0.00123226
0.00188288
0.0030393
0.0048158
0.00761264
0.0121665
0.0192435
0.0305654
0.0484547
0.0768484
0.121894
0.193375
0.306366
0.485927
0.769262
1.21955
1.92816
3.054
4.81036
7.61547
11.8996
18.8657
28.4372
45.4976
63.1419
128.052
1.30637e-05
-2.70262e-05
-4.17443e-05
-3.13838e-05
-3.58006e-05
-5.53709e-05
-5.33812e-05
-5.36769e-05
-5.49625e-05
-4.80809e-05
5.61968e-06