/*--------------------------------*- C++ -*----------------------------------*\
| =========                 |                                                 |
| \\      /  F ield         | OpenFOAM: The Open Source CFD Toolbox           |
|  \\    /   O peration     | Version:  2412                                  |
|   \\  /    A nd           | Website:  www.openfoam.com                      |
|    \\/     M anipulation  |                                                 |
\*---------------------------------------------------------------------------*/
FoamFile
{
    version     2.0;
    format      ascii;
    arch        "LSB;label=32;scalar=64";
    class       volScalarField;
    location    "0.0025";
    object      ddt0(rho,e);
}
// * * * * * * * * * * * * * * * * * * * * * * * * * * * * * * * * * * * * * //

dimensions      [1 -1 -3 0 0 0 0];

internalField   nonuniform List<scalar> 
180000
(
1.04346e-06
-7.62934e-06
1.74304e-05
4.61702e-05
-3.10796e-05
-2.59301e-05
-1.11774e-05
7.62784e-05
1.55625e-05
2.33096e-05
5.1701e-05
-4.07885e-05
-4.40567e-05
-4.4242e-05
6.59752e-05
-2.77915e-06
-1.16828e-05
1.38231e-06
2.79491e-05
1.82577e-05
-4.14343e-05
5.14884e-05
6.90008e-05
-3.2291e-05
-7.45451e-05
-3.93798e-05
-0.000109686
-3.30552e-05
-1.93277e-05
-6.60542e-06
2.58961e-05
2.22143e-05
2.25591e-05
-5.31361e-06
1.01795e-05
5.31044e-05
3.66438e-05
-2.53131e-05
4.75884e-05
-5.97577e-05
-5.13204e-05
1.84361e-05
2.27002e-05
4.84132e-05
-5.28887e-05
-5.43635e-05
-6.87511e-05
-3.51195e-05
-0.000100313
5.51247e-06
-3.42421e-05
3.66275e-05
8.81324e-05
3.20647e-05
-3.92827e-05
-3.87523e-05
-4.70302e-05
2.24216e-05
-2.10865e-05
-4.18835e-06
1.88149e-05
-9.79459e-05
-6.82949e-05
1.51397e-05
-4.94107e-05
-1.09076e-05
4.57821e-06
5.07697e-06
2.40094e-05
4.20033e-05
4.56601e-05
6.95789e-05
7.96317e-05
-2.05101e-05
5.85503e-05
2.91386e-05
1.78865e-05
-3.48032e-05
2.85807e-05
-8.71111e-05
-0.000121299
6.25964e-06
5.292e-05
-1.56309e-05
3.79864e-05
7.09231e-05
2.44224e-05
1.78368e-05
-1.09274e-05
1.2536e-05
4.50143e-05
8.431e-05
5.02148e-05
-1.84496e-05
-6.23021e-06
-5.6144e-05
-4.00139e-05
-2.67341e-05
-3.89601e-05
-8.12649e-06
2.94097e-05
5.07333e-05
3.51872e-05
3.05961e-05
5.67071e-07
3.91432e-05
6.39201e-05
-6.35432e-05
-5.19804e-05
2.22861e-05
-3.13165e-05
-3.21116e-05
7.42233e-05
-2.50408e-05
-5.0984e-05
-4.16966e-05
-3.86927e-05
-0.00010609
-0.000145177
1.98722e-05
0.000113039
-3.85149e-05
-0.000119908
-0.000102963
3.47804e-05
0.000134756
4.73064e-05
3.7655e-05
7.41638e-05
0.000123869
6.04971e-05
5.40997e-05
4.33561e-05
-5.95359e-06
4.69209e-05
-8.85058e-06
7.31388e-06
6.21792e-06
-3.63764e-05
1.48936e-05
-1.16551e-05
-3.28473e-06
-1.9769e-05
-1.93366e-05
-6.87669e-07
-5.81455e-06
9.05004e-05
9.18823e-05
6.70737e-05
-5.27507e-05
-1.73899e-05
-5.70063e-05
-2.09921e-05
6.03604e-05
-7.59418e-05
-9.46242e-05
-5.27038e-05
-0.000102213
-6.02056e-05
-0.000101551
-5.52568e-06
2.46146e-06
-4.19308e-05
6.90913e-06
5.78301e-05
7.64078e-06
-3.16963e-05
-2.08295e-05
1.15954e-05
4.61767e-05
1.44046e-05
1.09011e-05
-2.39698e-05
-2.29855e-05
-2.44271e-05
-9.92865e-05
2.81367e-05
4.17969e-05
2.34725e-05
5.60226e-05
-4.34233e-05
-9.93311e-05
-7.5666e-06
2.95076e-05
-2.68567e-05
1.31389e-05
4.84509e-05
4.50376e-05
-9.77788e-05
-8.90708e-05
-4.02029e-05
-1.15665e-05
0.000110002
0.000147101
6.32276e-05
1.88685e-05
2.46723e-05
3.35214e-05
-2.16119e-05
4.66003e-05
-3.25182e-05
-3.37011e-05
3.60404e-05
1.62179e-05
4.60282e-05
5.58748e-07
-3.96513e-05
-3.7621e-06
-8.70444e-05
9.80385e-05
0.000112687
7.67976e-05
1.51623e-06
-4.16362e-05
-4.47402e-05
-6.27036e-05
3.48355e-06
-7.46522e-05
-3.63926e-05
4.9437e-05
3.33086e-05
4.55536e-05
-1.67862e-05
2.93665e-05
1.87204e-05
-3.58392e-05
-3.08014e-06
5.68046e-05
-2.41548e-05
-0.000121509
-5.54513e-05
-9.73982e-05
-0.000113513
-1.42334e-05
4.27931e-06
7.56747e-05
0.000102824
1.63507e-05
2.32998e-06
-2.02709e-05
2.98695e-06
4.59171e-05
6.03151e-05
1.71312e-05
3.54847e-05
1.07404e-05
-3.37399e-05
-1.16566e-05
-3.83744e-06
3.69696e-05
3.05748e-05
7.2047e-05
0.000167079
0.000173481
0.000277242
0.000454386
0.00074545
0.00110636
0.00180016
0.00281339
0.00445882
0.00690161
0.0107492
0.0169139
0.0265173
0.0416944
0.0655627
0.10295
0.161751
0.25402
0.399367
0.627634
0.987159
1.55215
2.44276
3.8433
6.05207
9.52708
15.0121
23.6577
37.315
58.8379
92.878
146.608
231.606
366.282
580.499
918.01
1454.74
2315.52
3679.08
5853.41
9429.29
15152.6
24544.9
40436.7
67818.8
112847
195822
308442
9.75209e-06
-4.35144e-05
1.60028e-05
-6.6642e-06
-2.0598e-06
-2.59476e-05
3.31401e-05
-2.55908e-05
1.50503e-05
4.25368e-05
1.30679e-05
1.12602e-05
-2.22062e-05
4.65409e-06
-3.55226e-05
2.12135e-05
9.67702e-06
4.38386e-05
-1.1534e-05
-2.75109e-06
-4.77478e-05
-6.11513e-05
-5.41202e-05
6.72406e-05
-2.10627e-05
-4.72051e-05
-4.23146e-05
8.81966e-05
6.50925e-05
5.15999e-05
6.93484e-06
1.41735e-05
3.30918e-05
3.83736e-05
9.37249e-05
5.34125e-05
2.34446e-05
5.38881e-05
6.98161e-06
-3.69195e-05
8.4634e-06
2.03387e-05
-1.6084e-05
-6.18643e-05
-6.09172e-05
-5.30846e-05
-1.57214e-05
-2.60072e-05
7.44676e-06
-3.70461e-05
-0.000122953
-2.41336e-06
-6.80369e-05
-2.399e-05
7.94973e-05
2.09826e-05
4.33704e-05
6.98498e-05
5.29787e-05
4.4636e-05
-0.000101606
-0.000109101
-1.82871e-05
-2.48081e-05
-6.58359e-06
-5.06079e-05
-8.79225e-05
2.82378e-05
9.30916e-05
5.76433e-05
8.08439e-05
8.37644e-05
6.42816e-05
-4.85556e-05
-1.01968e-05
-5.89552e-06
-8.65144e-05
-8.10063e-05
0.000102611
6.88244e-05
-2.69304e-05
-5.39829e-06
-3.69704e-05
-1.42333e-05
8.98535e-05
1.14327e-05
6.26782e-05
4.04676e-05
-2.88932e-06
5.73105e-05
-1.77245e-05
-1.91544e-05
-7.77186e-05
-7.02451e-05
5.04544e-05
2.72434e-05
-6.80545e-06
5.02894e-05
5.36347e-05
-2.70757e-05
-1.9281e-05
5.049e-05
1.48865e-06
-3.73328e-05
-7.57669e-05
-4.28357e-05
5.69307e-05
4.20234e-05
-5.44489e-05
-2.01764e-06
2.53293e-05
6.07405e-05
0.000118905
-3.18166e-07
-3.4363e-05
9.96241e-06
4.63676e-05
-5.10206e-05
-3.35603e-05
-3.78197e-06
-2.88762e-05
-0.000105933
-3.1835e-05
-1.62318e-05
-4.96408e-05
1.00451e-05
3.16816e-05
0.000102404
2.67468e-05
5.31865e-06
-3.11628e-05
-1.09606e-05
1.25061e-05
1.26566e-05
-9.94257e-05
-8.54536e-05
-3.9451e-05
1.8862e-05
2.52959e-05
2.29886e-05
-2.12697e-05
6.25736e-05
5.5986e-05
6.94006e-05
8.35828e-05
1.40431e-05
4.50235e-05
2.12124e-05
-4.90892e-05
-6.60944e-05
1.76613e-05
1.81856e-05
-3.1941e-05
-3.73351e-06
-4.19211e-05
-3.98405e-05
-4.06153e-05
-0.000137906
-9.40405e-05
8.51535e-06
5.16835e-05
6.05518e-05
-1.35383e-05
0.000128877
0.00012713
-5.52052e-06
0.000117394
-2.07068e-05
-0.000110129
-2.50655e-05
-4.62921e-06
-8.66727e-05
-0.00011321
4.24192e-06
-1.24617e-05
7.30124e-05
5.86307e-05
6.50383e-05
3.91682e-05
-3.70748e-05
-5.58741e-05
-7.48104e-05
-7.13551e-06
4.97598e-05
4.09657e-05
-5.2526e-05
-7.24967e-05
-4.85471e-06
-5.05735e-05
7.8187e-05
-2.96617e-06
-9.93586e-06
8.26558e-06
7.54222e-06
8.51795e-05
7.53409e-05
-2.43409e-05
-1.71487e-05
-1.06288e-05
0.000114751
-5.61849e-06
3.44168e-06
-5.84945e-06
-2.1228e-06
1.98353e-05
2.10257e-05
3.0996e-05
0.000121114
0.000115426
9.64783e-05
-1.49289e-05
4.8066e-05
3.8308e-05
5.83568e-06
-6.71415e-05
-3.81473e-05
-1.23409e-05
-5.209e-05
-2.73551e-06
-3.8514e-05
-0.000103841
-7.66692e-05
3.6916e-05
5.96823e-05
-3.49263e-05
5.51087e-05
-6.87148e-05
-3.94835e-05
2.65447e-05
-5.33359e-05
6.51696e-06
7.61344e-05
3.58755e-05
6.84136e-06
2.89955e-06
-1.29071e-05
5.87986e-06
4.65474e-05
-4.36845e-05
1.56549e-05
4.73733e-05
-2.40197e-05
-1.47318e-05
-4.59989e-06
8.75691e-05
0.000160274
0.00011584
-5.27215e-05
2.3186e-05
0.000101287
8.00052e-05
8.20812e-07
0.000103241
0.000163272
0.000213907
0.000479023
0.000784992
0.00104675
0.00175425
0.0027883
0.00427351
0.00658277
0.0104377
0.0164026
0.0256121
0.0400377
0.0628442
0.0984785
0.154515
0.242442
0.380862
0.597973
0.939425
1.47551
2.3191
3.64342
5.72838
9.00354
14.1632
22.2766
35.0677
55.1804
86.8842
136.802
215.612
339.771
536.526
846.487
1335.02
2112.94
3346.53
5283.94
8429.06
13463
21452
34641.8
56980.3
92416.7
155039
244816
1.01946e-05
-2.63106e-06
-2.1135e-05
2.13335e-06
-4.61015e-06
-1.88873e-05
1.51127e-05
2.09605e-05
-3.52911e-07
-9.06038e-06
-3.08902e-05
-0.000108534
-1.16287e-05
9.3805e-05
2.1365e-05
1.93532e-05
-4.28444e-05
-9.81143e-05
-5.45125e-05
-1.01644e-05
-9.46018e-07
9.60468e-05
5.76984e-05
4.0927e-05
-1.6677e-05
-5.55219e-05
-3.78773e-05
6.53435e-06
-2.70548e-05
3.51717e-05
3.29979e-05
-1.40784e-05
3.19968e-05
8.44014e-05
2.85127e-05
6.38566e-05
4.81186e-05
1.51323e-05
-8.12238e-05
-2.10374e-05
-6.40291e-05
1.67032e-05
5.33807e-05
-6.01411e-05
-1.81295e-05
4.29057e-06
-7.57813e-05
-8.62742e-07
2.41667e-05
-7.98968e-05
-3.06427e-05
5.59458e-05
4.29658e-05
1.62736e-05
6.59161e-05
-5.00713e-06
-7.09456e-06
-1.20666e-05
-0.000100335
-8.70086e-05
-1.49717e-05
5.74555e-05
-4.54265e-05
-2.29037e-05
0.000103536
0.000125652
9.5092e-05
7.4198e-05
4.83921e-05
-2.70079e-05
-5.10458e-05
-4.19476e-05
-0.000100085
8.21971e-06
3.30903e-05
-2.30922e-05
-6.45216e-06
-1.26502e-05
7.78577e-05
4.06176e-05
-9.13051e-05
-0.000137795
-2.59286e-05
2.11135e-05
-1.85361e-06
2.52486e-05
5.39757e-05
-2.25964e-05
-5.73932e-05
-2.76548e-06
3.01039e-05
3.11615e-05
-2.48032e-05
-5.7825e-06
9.00372e-05
0.000139678
7.15479e-05
2.17547e-05
-2.44038e-05
-5.40102e-05
-9.76812e-05
-5.72117e-05
-1.13726e-06
4.38666e-05
3.87338e-05
6.30961e-05
2.32363e-06
2.70844e-05
-3.82928e-05
-7.05475e-06
-5.89183e-06
-1.92782e-05
4.70819e-05
2.14187e-06
-0.00011067
-7.04328e-05
-5.3201e-06
4.17538e-05
2.02091e-05
4.3549e-05
-6.85283e-06
-6.61714e-05
-4.61215e-05
-6.96763e-05
2.143e-05
-3.11606e-05
1.71586e-05
-9.15185e-05
-4.53459e-05
-9.51366e-06
2.38557e-05
2.97988e-06
-9.87521e-06
8.77559e-05
0.000112166
7.29692e-05
3.80782e-05
-0.000103989
-5.53992e-05
4.63608e-05
8.79081e-06
-7.78944e-05
-5.03308e-05
-4.20423e-05
-4.49826e-05
-1.02589e-05
3.22198e-05
6.53128e-05
-1.91562e-05
-5.28145e-06
2.71495e-05
-9.27151e-06
-1.07503e-05
5.22837e-05
-4.11276e-05
-2.35061e-05
-2.96787e-06
-1.96435e-05
2.90826e-05
7.47066e-05
2.8316e-05
-1.13433e-05
-2.99826e-05
-5.09577e-05
-1.87408e-05
-3.67183e-05
-1.07016e-05
5.2827e-05
4.50235e-05
-1.30948e-05
-4.53185e-05
-3.9893e-05
4.75882e-05
8.29371e-05
1.76481e-05
-7.39902e-05
2.06824e-06
-2.69783e-05
8.95909e-06
0.000101469
8.07613e-05
-4.72367e-05
-5.80491e-05
-5.00948e-05
-0.000113804
2.19015e-05
2.65914e-05
0.000159778
6.41341e-05
9.73496e-05
0.000112189
0.000113522
7.04551e-05
9.10225e-05
5.97555e-06
-0.000174005
-6.7952e-05
-4.95906e-05
1.22967e-05
-9.73765e-06
2.81646e-05
-3.57819e-05
3.95886e-05
2.10066e-06
2.31064e-05
2.99038e-05
1.74441e-07
5.12482e-05
3.65825e-05
7.55871e-05
2.31528e-05
-3.0408e-05
-3.77479e-05
3.2054e-05
-2.09322e-05
-3.24903e-06
-9.50908e-05
-2.86702e-05
5.85051e-05
-9.08515e-05
-1.50676e-05
3.25152e-05
4.62822e-05
4.31251e-05
8.19233e-06
7.38382e-05
5.25124e-06
5.01658e-05
2.47765e-05
1.11697e-05
1.21504e-05
1.93763e-05
5.50674e-05
7.85931e-05
-1.54276e-05
-2.56509e-05
-6.68748e-05
-4.40659e-05
1.34927e-05
-5.83049e-05
-0.000101147
2.48031e-06
-4.55029e-05
-8.03245e-05
1.21279e-05
6.53152e-05
1.4288e-05
5.81731e-05
1.22797e-05
-3.60056e-06
4.42363e-05
7.41823e-05
0.000111099
0.000190767
0.000275891
0.000432866
0.000644176
0.00107651
0.00160744
0.00248248
0.00394493
0.00614876
0.00959773
0.015202
0.0237224
0.0369069
0.0578022
0.0904815
0.141883
0.222234
0.348341
0.545753
0.855739
1.34146
2.10406
3.29851
5.17473
8.11468
12.7338
19.9754
31.3619
49.2045
77.22
121.228
190.518
299.024
470.222
739.618
1161.21
1827.1
2883.56
4529.43
7163.05
11360.7
17932.6
28519.4
46358.5
73736.4
122063
190174
1.14799e-05
2.33697e-05
-2.17478e-05
2.68894e-06
-2.094e-05
6.10073e-06
-2.35341e-06
-1.66746e-05
8.48971e-06
3.83779e-05
-4.42276e-06
1.97987e-05
4.11582e-05
2.77236e-05
4.85237e-05
-0.000105969
-3.52265e-05
6.88819e-05
2.83721e-05
-2.248e-05
3.10336e-05
-1.97652e-05
-2.19004e-05
-7.13337e-05
-2.83346e-05
6.36673e-05
2.43237e-05
3.66469e-05
3.9613e-05
-2.37874e-05
-1.32106e-06
-8.0531e-06
-3.8613e-05
-1.72912e-05
5.40425e-06
8.47182e-05
7.94563e-05
-1.60356e-05
-3.96154e-05
-5.07764e-05
-3.34991e-05
-1.70099e-06
1.62667e-05
2.99484e-05
-4.7884e-05
-9.68644e-05
-2.98806e-05
3.46969e-05
6.36572e-05
-3.84562e-05
-2.89336e-05
0.000103535
8.29484e-05
-1.44433e-05
-3.51966e-05
3.53092e-05
-1.70908e-05
-6.72451e-06
4.1479e-05
2.40114e-05
-5.15401e-05
-7.60901e-05
6.75858e-06
3.08145e-05
-2.31921e-05
-7.76736e-05
-2.55446e-05
2.26232e-05
-4.03471e-05
-1.63715e-05
-2.73507e-05
1.04517e-05
1.90726e-05
-4.41205e-05
4.62499e-05
3.7368e-05
5.06458e-05
-4.74613e-05
-1.42331e-05
-9.36964e-06
-9.81139e-06
7.99706e-05
0.000103649
3.70628e-05
9.55495e-06
-1.47921e-05
6.01077e-06
-6.9545e-05
-2.68513e-05
1.38913e-05
1.85478e-05
2.14726e-05
1.80755e-05
-1.33646e-05
-6.34996e-05
-5.385e-05
-6.52834e-05
-5.97461e-06
3.8897e-05
-1.73444e-05
-5.13634e-05
-8.86151e-06
-1.94999e-05
7.6767e-05
3.00997e-05
6.24999e-05
6.41572e-05
5.9165e-05
1.721e-05
4.43623e-05
-0.000109399
-3.03291e-05
-5.62834e-05
-1.68988e-05
-1.14748e-05
-1.17289e-05
6.53285e-05
4.41672e-05
-3.46135e-05
-0.000117698
-5.33566e-05
6.35216e-06
3.60331e-05
0.0001753
8.51013e-05
5.34847e-05
-4.41547e-05
1.67259e-05
1.66712e-05
-7.82879e-05
-8.71053e-05
-8.43413e-05
-4.65045e-05
1.12932e-05
-1.81416e-05
3.04269e-05
7.64521e-05
-7.25663e-06
2.08347e-05
-4.2382e-05
-1.99529e-05
-1.78227e-05
4.65516e-05
4.81681e-05
-7.51441e-05
-8.49807e-05
-2.08891e-05
7.88242e-05
7.96933e-05
2.97729e-05
8.29574e-05
2.63007e-05
-2.45375e-05
2.56182e-05
-1.77526e-05
-6.34915e-05
-5.01643e-05
3.42073e-06
-1.94093e-05
3.06982e-05
-3.30327e-05
1.55846e-05
2.89489e-05
7.07683e-06
6.94712e-05
-2.87493e-05
-9.32147e-06
-5.30398e-05
-5.04707e-05
-3.33623e-05
6.59235e-06
3.49617e-06
5.13878e-06
1.84298e-05
-2.39363e-05
6.425e-05
1.3585e-05
-2.98335e-05
2.88283e-05
-1.11901e-05
5.09901e-06
-5.74401e-06
-3.82059e-05
-8.75181e-07
-2.42283e-05
8.9428e-06
-4.95044e-05
-6.08044e-05
2.91949e-05
8.36798e-05
9.49233e-05
1.81198e-06
-7.41537e-05
-9.15414e-05
-4.24561e-05
-3.47219e-05
-3.70574e-06
9.84654e-05
2.38601e-05
1.97146e-05
0.000101551
5.62355e-05
-3.85069e-05
5.47052e-05
2.62011e-05
6.19823e-05
-5.17306e-05
-3.1843e-05
4.2408e-05
1.49477e-05
-3.45065e-05
0.000114841
6.97334e-05
-4.20384e-05
-8.11944e-06
2.48991e-05
6.944e-05
7.43662e-05
8.76224e-05
-6.43706e-06
-1.50063e-05
5.63695e-05
-1.91869e-05
-1.94929e-05
-2.98551e-05
-8.19303e-05
2.82491e-05
-2.58273e-05
3.02784e-05
5.5578e-05
4.54387e-07
6.04595e-05
6.17378e-06
-2.50429e-05
0.000118105
4.67465e-05
4.62088e-06
-3.38728e-05
-2.76805e-05
1.45388e-06
5.28282e-05
7.32392e-05
-2.10655e-05
-4.77342e-05
-9.15835e-05
-0.000101605
-0.000117104
1.27574e-05
-1.00425e-05
1.81816e-05
0.000118361
7.00657e-05
0.000130317
0.000202249
0.000308382
0.000421641
0.000669815
0.000971932
0.00139357
0.00224059
0.00354233
0.00555449
0.00852485
0.0133964
0.0210884
0.0328586
0.0513048
0.0802132
0.125482
0.196255
0.307196
0.480259
0.751531
1.17516
1.83869
2.87517
4.49895
7.03684
11.0129
17.2273
26.9693
42.1842
65.9819
103.235
161.76
253.004
396.137
621.1
971.749
1520.31
2389.96
3740.91
5873.26
9257.89
14524
22821.8
36752.7
57696.9
94308.2
144679
5.70743e-06
-6.2624e-06
1.18329e-05
1.18514e-05
2.64567e-05
-9.87762e-06
-2.94457e-05
1.14209e-05
4.34379e-05
5.10899e-05
-3.32923e-05
-2.32478e-05
5.71944e-05
5.51203e-05
-9.15136e-05
-4.26729e-05
1.35935e-05
2.76075e-05
9.74392e-05
-1.64264e-05
1.33295e-05
-7.17898e-06
9.60291e-05
-8.50581e-06
-4.50041e-05
-7.34374e-05
-8.92943e-05
-7.81106e-06
1.5643e-05
7.71121e-05
7.85702e-05
9.64431e-05
-1.2093e-05
-1.97106e-05
5.36697e-05
4.35292e-05
2.99241e-05
-3.08608e-05
-1.31343e-05
9.79349e-06
6.30786e-06
-8.32442e-06
-3.71339e-05
-0.000170789
-9.43809e-05
2.34925e-05
9.21518e-05
1.46841e-05
6.35843e-05
5.62784e-05
4.87885e-05
6.58835e-05
-1.40935e-05
-6.44228e-05
2.34286e-05
2.71088e-05
-8.6837e-05
-9.74261e-05
8.07215e-05
6.413e-05
-2.37616e-05
-1.89515e-05
-5.77762e-05
-8.88451e-05
-2.12999e-05
-4.5548e-05
8.09528e-05
-1.58925e-05
-2.3741e-05
3.34771e-05
6.9919e-05
-7.50523e-06
-7.83617e-05
8.19106e-05
7.16426e-05
3.75915e-05
3.28137e-05
9.99518e-06
-3.61445e-05
4.19907e-05
-8.74231e-06
-0.000115426
-5.98789e-05
-8.52509e-05
2.67194e-05
1.02819e-05
-3.40757e-05
5.55893e-05
2.45738e-05
7.85246e-05
8.82566e-05
5.99874e-06
-4.13708e-05
-4.51569e-05
-6.76868e-05
-1.13996e-05
-5.50791e-05
-0.000167001
-4.98378e-05
-6.62465e-06
3.52108e-05
-6.43983e-06
1.19772e-05
2.99859e-05
6.07808e-05
8.41538e-07
4.34016e-05
1.35335e-05
-4.09888e-05
3.8361e-05
5.04981e-05
-9.54602e-06
3.13192e-06
2.47366e-05
1.52872e-05
-3.02534e-05
-5.95932e-05
4.4463e-06
8.42818e-06
2.29678e-05
2.13007e-05
3.66145e-05
2.50803e-05
1.12838e-06
-4.39277e-05
1.10434e-06
-3.6915e-05
1.75948e-05
5.0949e-05
4.18116e-05
1.60702e-05
-1.58599e-05
8.06434e-05
7.61989e-06
-1.11578e-05
-4.5555e-05
-4.95175e-05
-3.49623e-05
-4.53913e-05
-6.45197e-05
4.65577e-05
5.27919e-05
2.29954e-05
-1.84359e-05
2.81194e-05
7.46583e-05
1.53558e-07
3.18406e-05
4.32683e-05
-6.32537e-05
4.62064e-05
6.24916e-05
3.08798e-05
4.9376e-05
-6.29304e-05
-1.90821e-05
-8.30069e-06
7.45994e-05
4.75407e-05
-4.17717e-05
-2.44237e-07
-7.30619e-05
-9.82309e-05
3.02741e-05
1.4555e-05
2.01331e-05
5.80847e-05
2.99122e-05
6.82531e-05
2.66157e-05
1.77785e-05
2.10159e-05
-1.88329e-05
-8.67783e-05
-2.57038e-05
-2.98417e-05
7.99696e-06
-1.8875e-05
-6.63755e-05
-7.43808e-05
-4.47333e-05
6.2141e-06
5.82633e-06
9.43096e-05
3.33489e-05
8.59049e-05
8.65417e-05
1.51684e-05
1.22303e-05
-4.3624e-05
-5.76976e-05
6.12346e-05
5.52801e-05
4.8195e-05
1.70203e-05
9.1453e-05
8.14874e-05
1.50161e-05
-2.57173e-05
3.56736e-05
-3.41642e-05
-3.89319e-06
4.78012e-06
1.80039e-05
1.27001e-05
-6.84125e-05
-4.58977e-05
4.89339e-05
3.9005e-05
-2.11792e-05
-6.46766e-05
-4.97444e-05
-1.50874e-05
-1.6637e-05
7.94259e-08
4.35812e-05
-2.01885e-05
1.90571e-05
5.24689e-05
8.29372e-05
4.92002e-05
-1.80087e-05
-1.27932e-06
4.22131e-05
4.88873e-05
-1.12114e-05
5.50137e-05
1.35584e-05
4.76293e-05
1.89284e-05
-1.79785e-05
2.01752e-05
-3.25369e-07
9.67011e-05
0.000117898
3.02818e-05
-2.10589e-05
-1.82828e-05
-0.000114903
-3.09014e-05
-5.08245e-05
-8.15769e-05
-3.79502e-05
2.00901e-05
8.97514e-05
3.31725e-05
-4.73794e-06
-9.0184e-06
-2.61098e-05
2.9432e-05
0.000105659
8.59112e-05
8.61499e-05
8.93692e-05
0.000134924
0.000283593
0.000487809
0.000797678
0.00128848
0.00199239
0.00314023
0.00487575
0.00753029
0.0116862
0.0182853
0.0283591
0.0441833
0.0689766
0.107762
0.168167
0.26272
0.409936
0.639916
0.998415
1.55855
2.43119
3.79461
5.92012
9.24107
14.4173
22.5091
35.1102
54.7541
85.405
133.457
208.11
324.636
507.578
791.975
1233.42
1932.69
3018.06
4712.15
7392.83
11559.8
18012.9
28803.7
44850.1
72621.3
109726
-1.38936e-05
2.40436e-06
3.07689e-05
1.76863e-06
-1.55609e-05
-1.85569e-05
-4.97553e-05
1.85007e-06
-3.11108e-06
-4.8957e-05
-2.57725e-05
4.70569e-05
-4.50204e-06
1.54848e-06
4.26386e-05
9.24655e-05
8.71867e-05
-0.000143088
-8.9143e-05
4.64741e-05
-2.90335e-05
4.81566e-05
2.68185e-05
-4.57475e-06
4.01626e-05
2.76658e-05
4.31053e-05
-6.5032e-05
-8.4886e-05
-3.5949e-05
-4.46684e-05
-6.91927e-06
-4.22839e-05
6.9846e-05
5.0952e-05
1.78418e-05
6.05325e-05
2.99519e-05
-1.66803e-05
2.70224e-05
-6.71648e-06
4.22855e-05
7.38081e-05
-6.43807e-05
-0.000115648
-0.000109904
-0.000107295
-2.44365e-05
1.57817e-05
2.19676e-05
7.93751e-05
7.91512e-06
3.97589e-05
5.49681e-05
-1.94726e-05
5.68368e-05
8.1163e-05
-5.7661e-06
-3.00715e-05
-6.51772e-05
-4.21798e-05
-2.23494e-05
-1.77468e-05
1.13371e-05
0.000104579
6.16973e-05
-3.58633e-05
3.10688e-05
1.45231e-05
1.28692e-06
-8.02517e-05
2.04538e-05
8.07458e-05
9.07415e-05
-1.53145e-06
-8.17462e-05
-0.000127724
-6.70422e-05
2.14625e-05
0.000128665
0.000112244
0.00012653
6.14364e-06
1.68405e-05
1.08915e-05
-3.50346e-06
-0.000116618
-2.64002e-05
-4.41074e-05
-3.71705e-05
1.9028e-05
-4.07186e-05
2.28581e-05
3.91887e-05
1.06091e-05
-7.63181e-05
-9.8999e-05
2.88875e-05
2.44935e-06
7.58641e-06
-7.34185e-05
5.96556e-05
3.66526e-05
-3.07425e-05
8.19751e-06
-2.11153e-05
-6.4005e-05
-1.33458e-05
-4.30157e-05
-7.13285e-05
5.28216e-05
5.29279e-06
-2.98282e-05
-4.38019e-05
-4.52987e-05
-7.95241e-06
6.03486e-05
-2.12125e-05
0.000108326
0.000107876
0.000125356
7.27424e-05
7.62958e-05
-6.84876e-05
-7.10905e-05
-0.00010076
-0.000101787
7.05443e-06
1.28285e-05
-3.14331e-05
2.49356e-05
-3.77862e-06
-2.68976e-05
2.74723e-05
8.58146e-06
-4.50313e-05
-8.33055e-05
5.78554e-05
-6.44929e-05
6.3471e-05
0.000162808
2.98474e-05
6.58936e-05
4.0004e-05
-1.46753e-05
6.96498e-06
3.06836e-06
-2.36646e-05
8.64135e-06
-1.67001e-05
-6.07681e-05
-7.78419e-05
3.91784e-05
2.6638e-05
-5.05116e-05
2.92375e-06
-7.72535e-05
-9.07867e-05
1.64336e-05
5.90711e-05
1.93308e-05
1.53872e-05
6.14362e-05
1.67476e-05
7.43743e-05
-2.1545e-05
-8.30641e-06
1.8771e-05
3.17784e-06
2.01267e-05
-4.34236e-05
1.58014e-05
-3.20569e-06
4.26423e-05
-6.5469e-05
-7.93036e-06
-4.66951e-06
-7.75208e-05
5.34264e-06
5.01447e-05
-4.27619e-06
-4.21478e-05
7.47502e-05
4.40961e-05
9.63326e-06
-2.88974e-05
-7.51468e-06
5.34577e-05
4.90871e-05
5.21522e-05
-2.77942e-05
-3.92254e-05
-4.27971e-05
3.22476e-05
-1.22443e-05
-9.9863e-05
-5.8525e-05
2.38107e-05
6.39326e-05
-2.56331e-05
2.26964e-05
2.6041e-05
4.02663e-05
9.87771e-06
1.20342e-06
-2.56067e-05
-2.40958e-05
5.21628e-05
-2.37136e-05
-3.51968e-05
8.67679e-06
1.27045e-05
-4.04508e-05
-4.61307e-05
-5.27115e-05
4.52258e-05
3.15823e-06
1.92859e-05
1.14997e-05
4.95029e-05
7.53091e-05
5.49291e-05
8.36973e-05
0.000133356
0.000107531
-4.69172e-05
-4.01363e-05
-7.60472e-05
-0.000113132
-5.0558e-05
4.85484e-06
4.71019e-05
8.28416e-05
4.9003e-05
2.18819e-05
4.45441e-05
6.37646e-05
8.73584e-05
0.000111973
2.11435e-05
3.47673e-05
-9.65402e-06
-6.9299e-05
-3.84994e-05
1.50747e-05
-0.000110162
-9.44572e-05
-9.0993e-05
-7.29086e-06
-5.97858e-05
-2.39057e-05
7.75173e-05
0.000139573
0.000224436
0.000229311
0.000338956
0.000427406
0.000732045
0.00114364
0.00163361
0.00254922
0.00392005
0.00625187
0.00995474
0.0154937
0.0240305
0.0373773
0.0580991
0.0904768
0.140699
0.219217
0.341298
0.531669
0.827649
1.2892
2.00659
3.12484
4.86396
7.57498
11.7902
18.3634
28.5748
44.4506
69.1529
107.809
167.709
260.829
406.842
633.468
983.172
1536.49
2395.43
3725.36
5824.09
9089.84
14085.1
22404.4
34705.4
55824.4
83261.8
-1.73487e-05
-1.19639e-06
4.67465e-05
4.87909e-06
-2.05689e-05
-1.67708e-05
-4.28587e-05
-1.56237e-05
0.000106016
-7.05262e-06
-9.06597e-06
9.25408e-05
-3.30287e-05
1.35831e-06
5.68976e-05
7.34704e-06
-4.99696e-05
-2.83283e-05
-3.42641e-05
-4.37845e-05
-1.34368e-05
-5.86007e-06
1.19755e-05
2.12488e-05
-4.93278e-05
-1.65941e-05
-8.07767e-05
-6.62327e-05
-1.98452e-05
3.48379e-05
6.22239e-05
6.8222e-05
5.36656e-05
-7.8784e-05
-4.92945e-05
6.88975e-06
-3.52449e-07
6.68024e-05
-2.136e-05
3.47901e-05
2.47399e-05
-8.49161e-05
-7.71829e-05
-5.35487e-05
-1.81028e-05
2.54908e-06
1.28121e-05
7.2503e-05
1.52707e-05
-3.00339e-05
2.8873e-06
-3.94429e-05
-5.00267e-05
1.10706e-05
5.56467e-05
0.000112289
8.31432e-05
5.57417e-05
6.86868e-05
-7.47714e-06
1.0923e-05
3.65466e-05
-6.2587e-05
4.0418e-05
6.17184e-05
6.94325e-05
-1.14378e-05
-0.000122196
-4.11046e-05
1.05188e-05
-9.31327e-06
8.70969e-05
-1.76184e-05
-7.18296e-05
-5.36787e-05
-5.78097e-05
-6.89171e-06
5.48693e-05
5.88903e-05
5.89818e-05
2.13631e-05
8.35534e-05
-2.84152e-05
-0.000100732
-0.000100409
-2.3235e-06
-3.23236e-05
-0.000128959
1.17185e-05
5.62034e-05
-1.42931e-05
4.04357e-05
-5.69561e-05
-2.38423e-05
2.72711e-05
-9.8354e-06
-3.05436e-05
7.04603e-06
6.43942e-05
2.00666e-05
-8.49539e-05
-5.97869e-05
8.62626e-05
6.2793e-05
-1.60612e-05
-4.42443e-05
-4.49045e-05
-6.265e-06
3.19249e-05
-3.08781e-05
-3.12874e-05
2.63081e-05
2.88637e-05
8.86869e-05
7.60874e-05
3.83749e-05
-4.25561e-05
-3.9989e-06
-1.30157e-05
3.6037e-05
-1.14324e-05
-3.39279e-05
-8.57981e-05
-3.17495e-06
-6.19211e-05
6.38589e-06
2.55864e-05
-6.08957e-05
-5.09366e-05
2.9703e-05
-7.52201e-05
3.1744e-05
8.66558e-05
4.66634e-05
1.92626e-05
-2.47311e-05
2.65701e-05
9.92266e-05
-5.17332e-05
-5.07582e-05
-1.43987e-05
-4.70774e-05
-8.36313e-05
-8.06216e-06
2.49889e-05
9.91361e-05
5.32517e-05
3.32234e-05
2.19304e-05
2.8e-05
-1.24394e-05
-4.03498e-05
-9.70427e-06
-0.000115792
-1.73539e-05
3.9478e-05
-2.38638e-05
-8.40617e-06
2.53213e-05
2.18396e-05
-1.88543e-05
-7.58799e-05
2.16199e-06
-2.94413e-05
9.30586e-05
3.65556e-05
5.54206e-05
5.03013e-05
-1.34893e-05
-5.57487e-05
-7.11682e-05
-8.58633e-06
-4.5091e-06
-4.97539e-05
-3.61471e-05
-4.76635e-05
-4.18145e-05
-6.94046e-05
7.67671e-05
0.000144264
4.71888e-05
4.86791e-05
3.08183e-05
-4.36923e-05
-6.5587e-05
-3.05227e-05
-3.47047e-05
2.56897e-05
5.03418e-05
5.24057e-05
6.67588e-05
1.68932e-05
5.38987e-05
6.22779e-05
6.90331e-05
9.92624e-06
-3.19947e-06
-3.76029e-05
-6.02601e-06
-9.25578e-05
-5.1709e-05
-5.28491e-05
-8.20397e-05
-3.96129e-05
-7.17555e-05
-4.14978e-05
6.58486e-05
0.000117843
8.81073e-05
9.70141e-05
6.07982e-06
-6.51756e-05
-2.10536e-05
-4.98058e-05
3.93051e-06
5.96339e-05
-6.21103e-05
-9.60518e-05
-1.2249e-05
7.79928e-05
2.25935e-05
6.21124e-05
6.89388e-05
4.56482e-05
5.08959e-05
3.00534e-05
5.20521e-05
-3.25721e-06
2.24234e-05
0.000108746
2.97781e-05
-3.22133e-05
-0.00010141
-9.47764e-05
-6.30434e-05
-1.9643e-05
-1.66072e-05
4.49545e-05
2.0689e-06
6.22123e-05
6.61521e-05
8.1429e-05
6.10394e-05
4.55837e-05
-5.10503e-05
-1.23884e-05
1.13854e-05
-8.707e-07
-2.5369e-08
-2.78072e-05
-5.11406e-05
-4.50957e-05
7.84929e-05
9.23557e-05
0.000134035
0.000227018
0.000390428
0.000632091
0.000957166
0.00149119
0.00228134
0.00337483
0.00530908
0.00825391
0.0126405
0.0197044
0.0306561
0.0477514
0.0741674
0.115179
0.179209
0.278369
0.432856
0.672576
1.0456
1.6243
2.52434
3.92165
6.09536
9.46851
14.7179
22.8562
35.4818
55.0835
85.7095
133.071
206.477
321.455
499.68
773.51
1206.39
1878.62
2913.18
4542.32
7082.14
10934.1
17323.6
26743.8
42831.4
63241.7
-1.34465e-05
1.5205e-05
5.87571e-05
-2.95364e-05
-2.47006e-05
-3.85932e-05
-3.48813e-05
-8.88517e-05
-1.19428e-05
8.18194e-05
4.91257e-06
1.30139e-05
1.74989e-05
2.97493e-05
3.33635e-05
-8.67201e-05
-9.4434e-05
-6.74167e-06
0.000134405
5.2693e-05
-2.12424e-06
-5.78274e-05
-1.65721e-05
4.59897e-05
-9.50966e-05
-7.55596e-05
2.31671e-05
5.81529e-06
0.000111218
0.000119492
5.90796e-05
4.59463e-06
-7.07523e-05
-9.31785e-05
-4.37762e-05
-7.68141e-05
-5.31599e-05
-5.40352e-05
-7.39721e-06
1.00047e-05
2.48873e-05
-1.19627e-05
1.68382e-05
4.12749e-05
-1.85619e-05
1.08928e-05
-1.44885e-05
2.68252e-05
8.67021e-05
-1.06349e-05
3.28195e-06
-2.09333e-05
-4.43209e-05
-7.88033e-05
-3.99432e-05
7.82787e-06
2.85942e-05
-2.77496e-05
3.69718e-05
3.69795e-05
0.000156119
5.34049e-05
-2.25363e-05
-1.20313e-05
9.4718e-05
3.50905e-05
-0.000103609
-0.000105954
-0.00011299
-3.28158e-05
2.06208e-05
3.57982e-05
4.85082e-05
1.94628e-05
3.04213e-05
0.000113579
9.08589e-05
-3.90101e-06
-4.61533e-05
-6.20691e-05
-1.22977e-05
-4.07083e-05
-5.34072e-05
3.45713e-07
-1.22214e-05
7.99895e-06
2.07528e-05
7.88274e-07
-2.86463e-05
-0.00011069
-9.40692e-05
2.95887e-05
4.1624e-05
5.40993e-05
1.25933e-05
3.24745e-05
-3.86571e-05
-0.000112917
-5.69423e-05
2.25383e-05
4.16273e-05
5.11847e-05
4.35491e-05
6.80088e-05
0.000100073
6.82325e-05
-6.09783e-05
-7.21153e-05
-6.32166e-05
-9.64555e-05
-1.18014e-05
-1.03798e-05
2.83201e-06
3.99946e-05
9.41161e-05
6.38209e-07
-1.11997e-05
5.76322e-05
-9.75606e-06
4.02038e-05
-1.05625e-05
5.13555e-05
-5.07462e-05
-7.80868e-05
2.60661e-05
-5.32507e-05
-0.000107258
5.27482e-05
0.000106724
0.000148643
4.52358e-05
-1.00661e-05
-3.49921e-05
-7.86529e-05
-6.25751e-05
-0.000110304
-8.52708e-05
-4.65682e-06
-9.69095e-06
-2.63985e-05
2.01456e-05
3.13155e-05
7.22035e-05
3.48041e-05
-1.00306e-05
7.35508e-05
1.56111e-05
-4.67323e-05
-3.18413e-05
1.7253e-05
-1.40333e-05
3.45247e-05
-3.75041e-05
5.48411e-05
5.40361e-06
-5.19877e-05
4.14038e-05
1.87775e-05
1.04311e-05
0.000100454
0.00015728
0.000132608
7.16614e-05
-1.23844e-05
-0.000143459
-0.000170617
-7.48426e-05
-5.69367e-05
-3.36505e-05
-1.37476e-05
1.45388e-05
6.68545e-05
-2.62381e-05
-4.61962e-05
6.28197e-05
3.15095e-05
4.57352e-05
-2.24937e-05
-7.93708e-05
-4.01818e-05
2.52919e-05
-9.2356e-05
-3.55462e-05
-4.0047e-05
8.79333e-05
-6.37274e-06
-4.996e-05
1.92495e-05
0.000100248
0.00014204
0.000137338
5.24717e-05
-1.56813e-05
4.01175e-05
9.92084e-06
-2.60985e-05
-2.26055e-05
1.94414e-06
6.0483e-05
2.3304e-06
-1.27843e-05
-5.84971e-05
-4.82153e-05
6.37405e-05
3.99057e-05
4.60599e-05
8.23476e-05
3.62081e-05
2.774e-05
8.41204e-05
2.01988e-05
3.54618e-06
-1.79795e-05
-5.26978e-07
3.52426e-05
-9.21482e-06
2.15184e-05
5.7448e-05
3.20183e-05
2.73512e-05
-1.24655e-05
9.07226e-06
-6.81195e-05
-4.37234e-05
3.4319e-05
6.82488e-05
4.67693e-05
-1.01515e-05
-6.15455e-05
-1.44464e-05
-2.22961e-06
-3.20824e-05
2.13417e-05
-2.0325e-05
4.45847e-05
-2.42033e-06
3.26108e-05
-2.94098e-05
-9.05301e-05
1.62636e-07
3.16477e-05
9.75343e-05
3.00157e-05
-2.727e-05
-4.72007e-06
-4.68713e-06
2.25827e-05
-5.59097e-06
-9.8585e-05
-6.70366e-05
-4.25441e-05
3.38707e-05
4.49677e-05
2.19013e-05
4.30117e-05
0.000145765
0.000340934
0.000528335
0.000897049
0.00122725
0.00175048
0.00273002
0.00422692
0.00659716
0.0102867
0.0158818
0.0247697
0.0386206
0.0598574
0.0928404
0.143957
0.22337
0.346728
0.537763
0.834599
1.2944
2.00844
3.11489
4.83343
7.49579
11.6325
18.0355
27.9525
43.3212
67.3033
104.336
161.601
251.201
389.978
602.55
938.221
1459.64
2258.98
3515.34
5476.58
8434.51
13325.5
20523.4
32771.8
48028.4
-1.435e-05
3.25178e-05
-3.74874e-05
-2.46678e-05
2.17739e-05
1.7548e-05
-3.59626e-05
7.84969e-05
1.8339e-05
-4.24263e-05
-2.01495e-05
3.97804e-05
9.36057e-05
-5.10761e-05
-5.26295e-05
-1.15991e-05
8.96171e-06
1.83914e-05
-1.57044e-05
7.68423e-06
6.473e-05
5.57669e-06
3.67978e-05
2.66953e-05
1.53198e-05
3.02417e-06
3.31697e-06
5.73381e-05
-1.32755e-06
-2.09947e-05
5.13708e-05
-1.25382e-05
-3.08854e-05
2.10134e-05
1.66776e-05
-3.68581e-05
-4.146e-06
9.16115e-06
-9.1802e-05
-1.1046e-05
7.37524e-05
1.2544e-05
-9.52287e-05
4.26889e-05
6.34559e-05
-6.42733e-06
-7.49697e-05
-0.00011685
-5.72571e-05
-8.12417e-05
3.95596e-06
3.97526e-05
-3.47628e-05