/*--------------------------------*- C++ -*----------------------------------*\
| =========                 |                                                 |
| \\      /  F ield         | OpenFOAM: The Open Source CFD Toolbox           |
|  \\    /   O peration     | Version:  2412                                  |
|   \\  /    A nd           | Website:  www.openfoam.com                      |
|    \\/     M anipulation  |                                                 |
\*---------------------------------------------------------------------------*/
FoamFile
{
    version     2.0;
    format      ascii;
    arch        "LSB;label=32;scalar=64";
    class       volScalarField;
    location    "0.0025";
    object      ddt0(rho,K);
}
// * * * * * * * * * * * * * * * * * * * * * * * * * * * * * * * * * * * * * //

dimensions      [1 -1 -3 0 0 0 0];

internalField   nonuniform List<scalar> 
180000
(
-8.73111e-06
-5.98711e-09
-1.64528e-05
-3.84981e-05
2.90114e-05
3.96725e-05
-1.63399e-05
-2.33357e-05
-9.11276e-06
1.72583e-05
6.23714e-06
8.29619e-06
-1.12508e-05
-3.49816e-05
7.9521e-06
-1.52167e-05
1.69405e-05
2.98102e-07
2.05337e-05
1.62322e-05
3.41656e-05
-1.94697e-05
-4.6456e-05
4.99361e-05
3.24159e-05
9.74105e-06
3.51063e-05
5.15798e-05
-3.77827e-05
-2.28824e-05
3.70108e-06
4.65187e-06
1.90316e-05
-2.49965e-05
3.76873e-06
1.84457e-05
-2.89428e-06
3.19879e-05
2.03741e-06
3.05804e-06
4.34581e-05
8.04773e-06
-4.76559e-06
-5.78752e-06
2.6873e-05
5.59357e-05
-2.02277e-05
1.32428e-05
-9.74985e-07
-1.85121e-05
-1.14877e-05
-5.4271e-06
-3.04866e-05
3.74468e-05
1.04023e-05
3.62724e-05
5.26469e-05
2.12559e-05
-4.45785e-05
2.92094e-05
2.6153e-05
-2.92282e-06
4.47388e-05
-2.64445e-05
-1.15375e-05
2.72682e-05
-3.61412e-05
1.67816e-05
-3.7477e-06
-2.35097e-05
2.37662e-06
-5.25742e-05
-1.79067e-06
-1.75162e-05
9.94145e-06
-3.73207e-05
4.30797e-06
1.93984e-05
6.45199e-06
2.30221e-05
1.83314e-05
-3.7877e-05
-3.56183e-05
6.52788e-06
-7.39599e-06
-6.85415e-05
-3.56026e-05
2.03324e-05
-1.01088e-05
-4.71023e-06
-2.67346e-05
-1.75997e-05
8.12749e-06
-9.45347e-06
2.57279e-05
1.93209e-05
-4.56729e-07
-1.62507e-05
1.60435e-05
-4.20273e-06
-3.00561e-05
-1.00697e-05
-1.07731e-05
1.65943e-05
3.96326e-05
-5.19694e-05
-3.04325e-05
3.38404e-05
3.40354e-05
-1.19625e-05
2.69047e-06
3.46884e-05
2.55539e-06
2.69568e-06
7.76757e-05
-2.05557e-05
-2.89408e-05
3.97788e-05
8.68146e-05
-2.95693e-05
-2.83033e-05
7.35216e-06
4.79486e-05
-3.05993e-06
-2.17503e-05
-7.78803e-05
-1.97682e-05
-1.71524e-06
-6.62239e-05
-5.77568e-05
-1.95431e-05
-2.23496e-05
-1.1557e-05
3.66e-05
-3.21421e-05
4.49166e-06
4.78051e-05
-1.42502e-05
1.69734e-05
-8.44469e-06
-1.57384e-05
1.6137e-06
-2.72145e-05
6.99073e-06
4.2442e-05
-2.25068e-06
-2.65816e-05
-2.91114e-05
-3.4364e-05
5.21871e-05
-1.78167e-05
1.70661e-05
4.17047e-05
-2.89772e-05
3.66263e-05
3.89465e-05
1.4034e-05
-8.17281e-06
-3.43302e-06
-2.46047e-06
2.59101e-05
3.07961e-05
-6.11613e-06
3.67807e-05
-2.11334e-05
1.44273e-05
3.5139e-05
1.85094e-05
8.2966e-06
-3.61381e-05
-6.71006e-06
-2.573e-05
3.99091e-06
-6.9375e-06
-4.77253e-06
7.06218e-05
-2.24022e-05
-6.52566e-05
-9.22927e-06
-3.92133e-05
3.35781e-05
4.48609e-05
-2.10972e-05
2.58922e-07
4.26851e-05
3.99167e-06
-2.88268e-05
-2.07969e-05
1.92495e-05
3.30134e-05
1.37636e-05
3.08505e-05
-7.01445e-05
-6.49153e-05
-9.18172e-06
-1.62167e-05
-1.19538e-06
-2.63746e-05
3.1275e-05
1.39987e-05
-3.13027e-05
5.05708e-05
-3.71004e-05
-2.61257e-05
-2.35762e-05
-8.77868e-07
5.66709e-06
2.00372e-05
7.0014e-06
-3.78949e-05
-4.28745e-05
-9.51327e-06
2.8881e-05
-7.40419e-06
4.69131e-06
1.79856e-05
1.34655e-05
3.20765e-05
4.47663e-06
-3.57403e-05
-1.68872e-05
-3.36792e-05
-1.30502e-06
1.29181e-05
2.56702e-05
3.02508e-05
8.757e-06
-2.77501e-05
2.99593e-05
6.18815e-05
4.50044e-05
-1.52721e-05
1.97017e-05
-3.9892e-05
-7.28805e-06
-2.51931e-05
-2.34398e-05
-3.52534e-06
5.52347e-05
-8.40937e-06
1.95791e-05
-3.6821e-05
4.5018e-05
-2.22461e-05
1.8927e-05
6.09639e-06
3.57664e-05
2.06703e-05
5.14773e-06
8.04178e-07
4.54401e-05
7.14637e-05
-9.57359e-06
4.5878e-05
8.13135e-05
7.78783e-05
0.000136693
0.000206468
0.00034247
0.000534256
0.000842426
0.00122943
0.00195181
0.00302271
0.00472793
0.00737859
0.0115246
0.0181405
0.0284471
0.0448341
0.0703143
0.110819
0.173796
0.274074
0.430108
0.678377
1.06504
1.68125
2.64405
4.17935
6.58182
10.4188
16.4104
25.9597
40.9797
64.9142
101.68
160.328
250.158
382.751
579.971
862.54
1148.2
1376.53
1018.17
-1319.79
-9512.15
-29362.6
-82713.8
-163739
1.59423e-07
-1.13154e-06
-3.28516e-05
-1.35961e-05
1.29357e-05
1.19242e-05
-9.1534e-06
5.16069e-06
-5.84513e-06
9.10109e-06
-8.28561e-06
-8.86884e-06
9.72274e-06
1.84566e-05
-9.66114e-06
4.73089e-05
2.58398e-05
2.15328e-05
1.7656e-05
1.60539e-05
2.90333e-05
3.11442e-05
6.39979e-06
-1.88884e-05
-1.30567e-05
1.24297e-05
-3.13576e-06
-7.12381e-05
-3.20408e-05
2.01393e-06
-1.47166e-05
1.43532e-05
-3.19446e-05
-1.93205e-05
3.10376e-06
-3.29358e-05
-2.2945e-05
5.46403e-05
9.38528e-06
2.69596e-05
4.35731e-05
-1.5622e-05
3.74168e-05
2.74533e-05
4.98745e-06
7.08809e-06
-1.28714e-05
2.85079e-06
-1.53842e-05
4.308e-06
1.6511e-05
-1.23257e-06
-4.04471e-05
2.59603e-05
-4.5582e-06
-3.59808e-05
-1.0257e-05
-2.94911e-05
-3.4218e-05
2.78467e-05
2.96863e-05
3.14146e-05
-2.09446e-05
-2.49171e-05
1.22769e-05
-1.49979e-05
-1.308e-05
-4.91963e-05
-6.24122e-05
-6.32338e-05
8.51438e-06
-3.68424e-05
2.79219e-05
1.2384e-05
9.23761e-06
3.14789e-05
2.0688e-05
1.04106e-05
-4.44783e-05
-4.24298e-05
7.42677e-05
-1.62923e-05
-2.53684e-06
-6.28216e-06
-3.76434e-06
-2.6552e-05
-1.74902e-05
-5.64869e-06
3.22462e-05
-1.25819e-05
-1.09819e-05
-7.09693e-06
2.88815e-05
-9.50735e-06
-5.27948e-05
-5.83222e-05
-2.00649e-05
-1.13787e-05
-2.21783e-05
-1.54425e-06
-2.59749e-05
-3.27319e-06
-5.44673e-05
3.09496e-06
2.97937e-05
-4.69687e-06
-2.85002e-06
-5.18712e-05
5.71173e-05
2.8312e-05
-4.17306e-06
-2.47877e-05
6.3877e-07
-4.12146e-05
1.55944e-05
3.9108e-05
1.2233e-05
3.82923e-05
-2.48302e-05
-1.4395e-05
1.66428e-05
1.35395e-05
-2.78126e-05
-3.71565e-05
-9.93011e-06
8.31458e-06
-4.8651e-05
-1.98135e-05
1.369e-05
6.39009e-05
-5.94863e-07
-2.848e-06
3.41448e-05
3.81795e-05
3.08051e-05
4.89554e-05
2.99613e-05
-4.41246e-05
-1.94067e-05
-4.71976e-05
2.47391e-05
-3.66724e-05
-2.24e-05
-1.77411e-05
-3.44758e-05
9.00098e-06
-8.76502e-06
-5.43778e-06
3.13676e-06
4.18014e-05
-2.32973e-06
-3.11642e-05
2.6956e-05
-2.94226e-05
2.39795e-05
6.27648e-05
3.2748e-05
2.51444e-05
2.30194e-05
-2.85968e-05
-7.8021e-05
-4.42656e-05
1.78981e-05
-4.44651e-05
-3.46613e-05
1.6072e-05
2.25321e-06
-2.75652e-05
5.2151e-05
3.29914e-05
-6.11785e-05
2.44693e-05
7.13936e-05
-3.56855e-05
-4.17024e-05
-2.68029e-05
-4.7369e-05
-4.55981e-05
-1.61654e-05
2.02469e-05
-6.7241e-06
8.83703e-06
-2.92552e-05
-1.60121e-05
-4.66999e-05
-1.42754e-05
4.84342e-06
-5.37651e-05
-2.8648e-07
-2.41682e-05
-9.78068e-06
-1.15107e-05
-2.63902e-05
1.69711e-05
-6.6037e-05
-2.90104e-05
7.58377e-06
-2.07657e-05
-1.10325e-05
-2.62616e-05
-5.17678e-05
3.85491e-06
9.28578e-06
4.64218e-06
-3.86324e-05
-5.4443e-05
-1.1589e-06
-1.42459e-05
-6.68881e-05
-3.9715e-05
1.19781e-05
1.37996e-05
-3.73018e-05
-9.0543e-06
9.48272e-06
-8.43791e-07
-1.30372e-05
2.35322e-06
1.21445e-05
3.15067e-05
4.85875e-05
5.3767e-05
-9.94354e-06
-4.65781e-05
4.89974e-06
2.32468e-05
4.68641e-05
4.26234e-05
-5.92166e-05
1.5634e-05
-5.09934e-05
-5.26678e-05
-1.37289e-05
5.52179e-05
1.09014e-05
3.32357e-05
7.40079e-06
7.83111e-06
1.93208e-05
3.0652e-05
-5.67808e-05
2.05525e-05
6.68254e-06
-9.94401e-06
-4.82e-05
-5.94937e-05
-2.02504e-05
5.1083e-05
-3.01467e-07
-2.25235e-05
-1.40308e-05
6.2759e-05
6.65745e-06
1.7579e-06
7.27608e-05
7.1808e-05
4.84319e-05
0.000188689
0.000301334
0.000399084
0.000730766
0.00116035
0.00186048
0.00287839
0.00450805
0.00719761
0.0112015
0.0175991
0.0277248
0.0436013
0.0682803
0.107541
0.168769
0.266066
0.417288
0.658097
1.03318
1.63048
2.56341
4.05177
6.37937
10.0923
15.9076
25.1782
39.704
63.0203
99.1116
156.126
245.314
380.626
581.112
890.392
1274.73
1711.35
2042.17
1514.36
-2121.45
-11609.1
-39991.3
-86423.4
1.47889e-05
2.35794e-06
1.72378e-05
6.3255e-06
-5.40287e-05
3.01835e-05
6.73824e-06
1.12935e-05
-3.93262e-08
5.95215e-06
8.70802e-06
1.67045e-05
2.55625e-05
-4.39785e-05
-2.03387e-05
2.49713e-05
-2.28031e-05
2.72194e-05
2.16877e-05
-3.63172e-05
-4.79927e-05
-3.40267e-05
-2.94956e-05
-1.64732e-05
2.4363e-05
-1.67155e-06
6.27728e-06
-4.94335e-05
-3.04319e-05
1.35854e-05
-1.03876e-05
1.58009e-05
2.64753e-06
-2.3062e-05
-3.91268e-05
-3.35207e-06
1.18314e-05
3.26667e-05
-2.59014e-05
-1.0788e-05
2.65302e-06
1.9533e-05
-1.72502e-05
3.79041e-05
5.72381e-05
-5.77304e-05
-4.90751e-06
-3.48665e-05
-1.17851e-05
8.91004e-06
4.12256e-05
-3.53502e-05
-3.84249e-05
2.168e-05
-4.35398e-05
2.11999e-05
2.14125e-05
1.21148e-05
2.75934e-05
2.3026e-05
-1.28967e-05
-3.10828e-05
-9.62833e-06
4.64112e-06
-6.13138e-05
-5.02455e-05
-5.25731e-05
-1.51226e-05
4.8467e-05
2.3417e-06
3.38063e-06
4.95159e-05
2.0477e-05
2.35115e-05
1.80623e-05
2.25164e-05
4.44375e-05
1.73523e-05
-1.04935e-05
3.32623e-06
3.16564e-05
5.90204e-05
-1.75987e-05
-4.12965e-05
-1.49544e-05
-9.01759e-06
-3.33048e-05
-5.83463e-06
1.52061e-06
-1.21818e-05
-2.24613e-05
-1.15837e-05
2.09854e-05
8.63898e-06
-2.09852e-05
-3.55576e-05
-2.97655e-05
1.605e-05
1.04954e-05
2.9703e-05
3.60021e-05
-3.57004e-05
-3.79361e-05
-2.54223e-05
-1.59674e-05
-5.56303e-05
3.85494e-06
3.50397e-05
-9.27961e-06
-7.9655e-06
1.68335e-05
3.14359e-05
3.4748e-06
2.26681e-05
5.54791e-05
1.77013e-05
7.71069e-06
-9.65827e-06
-2.02126e-05
-7.83099e-06
1.1141e-05
6.27753e-06
4.78401e-05
1.96121e-05
8.68094e-06
-3.94542e-05
-1.43134e-05
3.47791e-05
-2.01e-06
6.70299e-06
-7.35386e-06
-2.60544e-05
-2.52256e-06
-4.30248e-06
-2.08302e-05
-3.05393e-05
2.50774e-05
3.49787e-05
1.08771e-05
2.14245e-06
-1.93987e-05
2.53284e-05
5.69899e-05
3.41755e-05
-1.6293e-05
-2.63299e-05
1.591e-05
1.01539e-05
-1.17329e-05
1.70755e-05
3.67666e-05
8.28389e-06
1.47161e-05
7.1241e-06
-1.40966e-05
-2.9647e-06
-5.57313e-06
-3.16583e-07
-3.31227e-05
-3.45836e-05
-5.28803e-06
-2.91095e-06
-1.13442e-05
9.42548e-07
-3.24687e-05
-2.91792e-05
-7.60444e-06
-3.65523e-05
-1.84748e-05
2.12037e-05
5.71254e-06
1.19099e-06
-8.12527e-06
-2.74521e-05
-6.12135e-06
2.27124e-05
5.35982e-05
-2.98293e-05
2.7237e-05
-5.38221e-05
7.7194e-06
-7.91544e-06
5.2039e-06
1.62149e-05
2.07749e-05
-6.38262e-05
-3.99262e-05
-4.56981e-05
-1.36208e-05
-2.66828e-05
-5.26194e-05
-1.96165e-05
-2.26665e-05
-2.37859e-05
-3.09568e-06
7.46612e-05
1.91953e-05
1.94574e-05
1.41403e-05
-6.5688e-05
9.2335e-06
-8.49367e-07
-1.4092e-05
1.39152e-05
1.46745e-05
-2.08295e-05
-4.06594e-06
3.20994e-05
-4.26531e-05
-7.96847e-07
-6.19161e-06
8.65972e-07
-2.47642e-05
1.51549e-05
-9.5008e-06
-2.16921e-05
-2.9296e-05
2.7009e-05
6.48648e-07
3.15629e-05
-4.38365e-06
-3.14882e-05
-2.35385e-05
3.04779e-06
-1.45987e-05
-6.20816e-05
1.96175e-05
-2.27277e-05
-1.37217e-05
-2.45647e-05
-2.21995e-05
-1.64179e-05
1.26184e-05
-1.6905e-05
6.86173e-06
6.42372e-05
2.54561e-05
3.08759e-05
4.10923e-06
3.33598e-05
3.51351e-05
-1.0662e-05
3.05083e-05
4.86001e-05
-6.69518e-06
9.7733e-06
-1.08977e-05
6.20689e-06
1.9865e-05
2.06774e-05
-1.39627e-05
-1.22803e-05
-2.07918e-05
2.67446e-05
1.46957e-05
8.10914e-05
0.000136509
0.000141601
0.00024849
0.000485018
0.000669069
0.00104498
0.00172626
0.00268023
0.00424532
0.00678825
0.0105826
0.0166062
0.0260081
0.0410212
0.0642974
0.101331
0.158755
0.250002
0.391912
0.617348
0.968413
1.52658
2.39788
3.78619
5.95207
9.40083
14.8123
23.4202
36.8677
58.525
92.159
144.867
228.162
357.438
549.084
852.539
1270.49
1814.91
2482.27
3000.69
1923.95
-1366.05
-16282.6
-37724.2
-1.70522e-06
5.52373e-06
-9.62723e-07
-1.0734e-05
1.02348e-05
-2.91403e-05
-1.81235e-06
-7.55681e-06
-2.27249e-05
-4.22882e-06
-1.99206e-05
-2.47963e-05
-3.01308e-05
-3.11191e-05
5.89193e-06
5.53422e-05
-1.05976e-05
-5.96813e-05
-3.4267e-05
-3.30762e-05
-2.16474e-05
-8.19171e-06
-4.84038e-06
7.40558e-06
2.45813e-05
-4.26749e-05
2.47315e-06
2.04271e-05
4.39842e-05
1.38536e-05
-3.60412e-05
3.35864e-05
5.54293e-06
1.18524e-05
-2.7595e-05
-3.27139e-05
-6.28533e-05
-3.2164e-05
4.78063e-05
1.64616e-05
-1.06126e-05
2.76688e-06
-1.97928e-05
1.88535e-05
-2.26198e-05
2.03382e-05
-1.63221e-05
-2.59172e-05
-5.66186e-05
1.95686e-05
-1.51841e-05
-3.90995e-05
-5.49217e-05
1.42512e-05
5.377e-05
1.18457e-05
2.11169e-05
8.03573e-06
3.36249e-05
3.64219e-06
4.85887e-05
3.0118e-05
-2.25196e-05
3.31388e-05
7.59583e-06
3.02432e-06
2.42269e-05
-9.18754e-06
4.91853e-05
-8.8332e-06
-1.19119e-05
5.11493e-06
-1.26684e-05
1.79272e-05
-8.08628e-06
-5.03746e-05
8.54466e-06
1.26139e-05
6.80064e-07
8.47152e-06
-1.80956e-05
-2.01777e-05
-4.18615e-05
-2.09758e-05
3.51859e-05
-1.37213e-05
4.68009e-05
-9.46826e-06
5.77709e-06
-1.88483e-05
-3.12761e-05
-3.72623e-05
2.05015e-05
-7.4663e-06
9.89938e-06
-1.62792e-06
1.66218e-05
9.02806e-06
-7.60077e-05
4.36603e-05
-1.01331e-05
-1.05023e-05
-5.93852e-06
-9.8165e-06
-3.90658e-05
-6.46474e-06
-3.55889e-05
-6.54608e-05
-9.15148e-06
1.28627e-05
3.64404e-05
3.3727e-05
-4.34034e-05
2.93944e-05
8.03545e-06
2.50768e-05
-9.4304e-06
8.73297e-06
2.56101e-05
3.91497e-05
2.95705e-05
-2.96353e-05
1.40334e-05
-3.21624e-05
-2.15554e-05
1.88229e-05
-4.6994e-07
1.21173e-05
6.67796e-07
4.90472e-06
1.09139e-05
2.10163e-05
4.1485e-05
4.16141e-06
-3.856e-05
-3.71661e-05
-4.58075e-05
-5.15475e-05
-7.09645e-06
-3.04887e-05
3.09622e-05
1.14507e-05
2.66259e-06
-1.24076e-05
2.90298e-05
6.47168e-05
1.97157e-05
-3.26889e-05
-1.9082e-05
1.60487e-05
3.83935e-05
-5.30236e-05
2.8518e-05
4.46788e-05
9.35698e-06
4.3263e-05
1.20552e-05
-1.44151e-06
5.62999e-06
-2.47395e-05
-3.24073e-05
-3.3858e-05
-3.93841e-05
-4.92573e-06
2.3709e-05
-3.80199e-05
4.8241e-06
-2.38054e-05
1.36291e-05
-9.25709e-06
-5.17283e-05
1.35962e-05
7.14855e-06
1.29795e-05
5.55751e-07
-1.8922e-05
4.69325e-06
5.36857e-05
1.08419e-05
3.50782e-05
-1.16945e-06
3.80646e-05
4.1458e-05
5.28913e-06
-2.81708e-05
1.53547e-05
1.94802e-05
6.28866e-05
-1.41133e-05
-2.57097e-05
2.07022e-06
-3.1359e-06
6.19286e-05
7.33296e-05
1.44494e-05
-4.22294e-05
2.81322e-06
-2.90975e-05
2.76104e-05
8.94858e-06
-4.79841e-05
-4.40169e-05
3.79592e-05
-1.4082e-05
-5.44138e-05
-1.02691e-05
1.94393e-05
1.81206e-05
-1.72531e-05
-5.13997e-05
-3.99657e-05
-1.76955e-05
-5.93374e-05
3.99454e-05
4.72694e-05
-2.73793e-05
-1.60457e-05
-4.69077e-05
9.41113e-06
-2.54094e-05
-2.86546e-06
1.72033e-05
1.23432e-05
4.24996e-05
4.14661e-05
6.66322e-05
2.00815e-05
-5.8315e-06
-1.8456e-05
1.70368e-05
-2.4418e-06
2.33095e-05
-2.90859e-05
3.72727e-05
-2.807e-05
-2.59629e-05
2.13118e-05
-6.76407e-06
4.01064e-06
-1.69198e-05
3.3536e-05
-2.29153e-06
-1.34161e-05
6.07974e-05
4.79441e-05
-1.30296e-05
-2.84101e-06
-1.37288e-06
-6.26135e-05
2.25221e-05
-4.97426e-05
-1.85342e-05
2.56473e-06
-3.12375e-05
4.50835e-05
0.000105598
0.000108319
0.000215373
0.00027901
0.000479238
0.000642592
0.00100395
0.00164831
0.00254163
0.00390349
0.00618542
0.00973302
0.0151914
0.0238511
0.0374907
0.0586922
0.092301
0.144597
0.227445
0.356167
0.560153
0.877445
1.38083
2.16555
3.41333
5.35571
8.43864
13.2706
20.9514
32.9057
52.1272
82.1561
128.897
202.647
319.467
493.126
769.049
1173.63
1736.04
2514.83
3524.28
3836.74
3869.97
-2758.27
-8587.33
-1.84044e-09
4.4937e-06
1.00767e-06
-2.54796e-05
-1.14762e-05
1.69459e-05
-6.13755e-06
-1.06668e-05
-3.82978e-06
-3.47362e-05
-8.19868e-06
-2.75034e-07
-4.0632e-05
-3.39733e-05
1.2579e-06
-7.15981e-07
-4.53437e-05
-3.86406e-05
-1.29032e-05
-7.13696e-06
-2.62013e-05
-3.14185e-05
2.29909e-05
-3.48384e-05
1.6284e-05
1.61006e-05
1.6524e-05
-1.0517e-05
-2.11809e-05
-5.38567e-06
-1.53334e-05
-2.92413e-05
1.62525e-05
1.74247e-05
2.57913e-05
-1.47573e-05
-1.16655e-05
2.34561e-05
2.64103e-05
-2.31742e-05
2.29584e-05
1.14837e-05
5.65072e-05
4.52719e-05
4.67265e-05
-2.90161e-05
-3.42238e-05
-4.731e-05
2.74757e-05
-3.12112e-05
-7.47668e-06
-4.6631e-05
-4.0143e-06
3.00641e-05
-2.09723e-05
1.21578e-05
5.25274e-05
6.67124e-05
-5.25089e-05
-2.4247e-05
2.30091e-05
2.91919e-06
1.86887e-05
1.39434e-05
-2.58987e-06
-6.32899e-05
-2.33452e-05
4.22399e-06
3.35741e-05
-1.39852e-05
-1.55316e-05
1.65749e-05
9.67784e-09
-1.8901e-05
8.95882e-06
-5.96199e-06
2.75695e-05
2.74234e-05
-1.51021e-05
9.54892e-06
3.97196e-05
5.40025e-05
1.64941e-05
2.26606e-05
-5.22613e-06
-2.56516e-05
-8.02183e-06
-1.34632e-05
-4.41589e-05
-2.06519e-05
-3.81992e-05
3.14036e-05
-4.03601e-07
-4.6696e-06
2.84618e-05
-2.04047e-06
2.6299e-05
1.36141e-05
7.3279e-06
-2.50404e-05
-1.21482e-05
-2.17181e-05
1.63965e-05
-2.6243e-06
-1.2311e-06
2.08044e-06
-3.28829e-05
-3.49156e-05
-1.1119e-06
2.12318e-05
-2.83198e-06
-8.53954e-06
-7.60529e-07
-1.59541e-05
-7.44614e-06
2.33802e-05
3.0721e-06
2.31384e-05
8.5475e-06
-1.37972e-06
-8.24373e-06
-5.4401e-06
-3.18235e-05
3.72579e-05
-2.92667e-05
-1.20525e-06
3.74604e-05
3.33781e-06
-6.60556e-05
7.29526e-06
8.94271e-06
5.61776e-05
3.47237e-06
1.15646e-05
3.30305e-05
3.89442e-05
1.92101e-05
1.11594e-05
3.76957e-05
8.3933e-06
-1.62459e-05
-5.68205e-05
-6.42169e-06
2.97561e-05
1.97962e-05
-1.71824e-06
-1.22975e-05
-1.91683e-05
-2.39602e-05
-1.39697e-05
-1.27773e-05
-2.23694e-05
-4.61673e-05
-2.18102e-05
3.13845e-05
2.70714e-05
-1.64268e-06
-4.89083e-05
-5.35832e-05
1.78524e-05
-8.76053e-06
-4.09517e-06
2.93017e-05
-1.73857e-05
-2.71598e-05
1.49319e-05
-3.67107e-05
-1.81472e-05
-3.75361e-05
-6.21649e-06
2.4037e-05
4.87877e-06
2.25841e-05
1.28312e-05
3.0108e-05
2.19079e-05
-1.25028e-05
-2.07683e-05
1.95531e-06
4.77026e-06
1.28825e-05
3.68091e-06
-1.5801e-05
-4.49692e-05
-1.9625e-05
-4.02772e-05
-2.46605e-06
1.14224e-05
2.65928e-05
-1.39826e-05
5.12283e-05
-2.74175e-05
-5.01447e-05
8.657e-06
-4.14477e-05
5.47943e-06
1.1996e-05
6.12694e-05
2.7532e-05
3.79995e-06
2.43529e-05
4.85196e-05
-2.25478e-06
-2.39131e-05
-1.55704e-05
1.07484e-05
-9.38736e-06
-2.28388e-05
1.05585e-05
1.0154e-05
2.29285e-05
-1.13348e-05
2.98699e-05
-1.77279e-05
-4.35358e-05
9.84038e-07
-6.01368e-05
2.41454e-05
-2.5185e-05
-6.44176e-06
-1.47024e-05
2.46958e-05
9.27797e-06
1.70715e-05
-7.32294e-06
7.38948e-06
1.17888e-05
4.6274e-06
-5.41763e-06
3.19434e-05
3.18232e-05
3.74232e-05
9.36723e-06
-3.13855e-05
2.55365e-06
6.08806e-05
2.89817e-05
3.15668e-05
7.14948e-05
1.66348e-06
-5.18549e-06
3.07734e-05
-5.16603e-06
-5.37197e-05
-1.57816e-05
-3.76162e-05
2.95132e-05
7.93657e-06
2.94252e-05
-1.66993e-05
-5.77749e-05
1.673e-05
4.07526e-05
2.33916e-05
4.50263e-05
4.83427e-05
0.00011187
0.000186584
0.000246847
0.000373436
0.000557613
0.000958316
0.00141095
0.00230068
0.00351318
0.00553999
0.00872194
0.0136032
0.0212375
0.0332982
0.0520672
0.0817755
0.127856
0.200828
0.313939
0.49293
0.770816
1.21044
1.89472
2.97984
4.6653
7.33104
11.5008
18.1189
28.3817
44.8316
70.6322
110.579
173.398
274.23
424.411
662.17
1024.16
1544.81
2295.79
3425.82
4334.27
5819.46
3609.8
5979.73
9.95501e-06
5.71082e-06
-6.41924e-06
1.31536e-07
-3.94846e-06
2.77121e-05
1.1654e-05
1.13202e-05
-2.16144e-05
5.21008e-05
-1.71239e-05
-2.90234e-05
7.36334e-06
-2.82062e-05
-1.03433e-05
-3.85581e-05
-6.00956e-05
5.32952e-05
6.38705e-05
-3.87107e-05
6.41781e-06
2.23506e-05
1.05897e-05
1.31834e-05
-2.54723e-05
4.33677e-06
-1.69789e-05
4.85369e-05
-9.54674e-06
1.03348e-05
6.9077e-06
-1.27736e-05
-7.95087e-06
-1.93083e-05
-7.99554e-06
2.55223e-05
-1.10863e-05
1.36663e-05
1.65992e-05
-3.93647e-05
2.73748e-05
1.87961e-05
1.42787e-05
4.51306e-05
5.45032e-05
6.45696e-05
1.88677e-05
1.43321e-05
1.49083e-05
-7.2912e-06
-2.76759e-05
8.02303e-07
2.5031e-05
1.78633e-05
-3.44828e-05
-2.82871e-05
-2.60216e-05
-3.06584e-07
3.50379e-05
5.72657e-05
-5.95297e-05
-2.47221e-06
-2.28599e-05
-2.25358e-05
1.54006e-05
-1.91779e-06
-2.77332e-05
2.28496e-05
5.41628e-06
2.34649e-05
3.65229e-05
-1.0196e-05
-2.97586e-05
-1.76223e-05
4.63343e-05
1.09918e-05
5.78056e-05
2.72337e-05
-2.21598e-05
-3.15243e-05
-2.97519e-05
-2.12997e-06
-4.93908e-06
8.7017e-06
-3.00329e-05
1.65542e-05
1.21516e-05
-3.11601e-06
-2.17833e-05
-2.31613e-06
-3.57365e-05
-5.37868e-05
2.55928e-05
-1.63069e-05
5.06498e-07
1.03197e-05
4.51577e-06
-5.13735e-06
-4.82214e-06
2.09301e-06
-1.13557e-05
1.78137e-06
-2.0856e-05
3.36982e-05
-5.16136e-06
-1.25892e-05
8.30335e-05
6.35412e-05
3.02263e-05
-1.47534e-05
-7.59724e-06
1.78997e-05
3.76907e-05
-1.76669e-05
4.53163e-05
1.98297e-05
-3.77476e-05
-7.24418e-06
-1.47455e-05
-3.18889e-06
9.42401e-06
9.22496e-06
4.08927e-05
6.39305e-05
5.42402e-05
5.54165e-05
3.20018e-05
2.93232e-05
8.95898e-06
-9.51423e-06
-2.54458e-05
-7.19701e-06
-8.64401e-06
-1.782e-05
-5.82863e-06
3.69193e-05
3.38182e-05
-3.23615e-05
-8.72362e-06
-2.17286e-05
-8.15728e-05
3.35157e-06
9.64002e-07
-4.02167e-05
1.34685e-05
2.13604e-05
3.23263e-05
1.05754e-05
1.57296e-05
-5.26833e-06
1.32436e-05
-3.72342e-05
-4.56771e-05
1.47593e-05
-3.63628e-06
-6.49865e-06
-9.10165e-06
2.41655e-05
-3.61536e-05
-3.20023e-05
-1.31312e-05
4.60564e-06
-1.10281e-05
-2.40959e-05
-2.85305e-05
2.83317e-05
1.02889e-05
-1.03917e-05
2.77644e-07
4.00441e-05
1.56151e-05
9.45058e-06
-3.50898e-05
-3.00019e-05
2.18739e-05
3.01479e-05
-1.93542e-05
4.35665e-05
1.04994e-05
-2.18396e-05
1.00491e-05
3.11195e-05
2.04e-05
-2.85276e-05
3.94335e-06
7.26153e-06
-1.37662e-05
1.20495e-06
1.12217e-05
-2.21925e-05
1.95062e-05
2.62701e-05
2.28516e-05
-8.66534e-08
-3.89499e-07
6.70846e-05
2.5157e-05
-3.5842e-05
-1.08512e-05
-1.3931e-05
9.30391e-06
-1.75613e-05
2.1778e-05
3.42102e-05
7.48656e-06
2.65683e-05
-4.70118e-05
-6.54368e-06
3.28378e-05
3.33962e-07
2.36681e-05
-1.77427e-05
4.6512e-05
-3.09347e-07
-1.71939e-07
-1.38002e-05
-3.93724e-05
4.448e-05
1.17549e-05
-3.43322e-05
-1.2787e-05
-5.81634e-06
-1.76553e-05
-9.62698e-07
-7.56402e-06
-8.56997e-06
2.02733e-05
4.54719e-05
1.27031e-05
-2.14717e-05
-1.41288e-05
-7.10364e-05
-6.16371e-05
-3.00309e-06
-1.2838e-05
-1.58387e-05
-4.35113e-05
-4.49953e-05
-1.24536e-06
1.01997e-06
1.49782e-05
-9.50125e-06
1.78248e-05
1.09881e-05
-4.18773e-06
1.28446e-06
5.12088e-05
2.59713e-05
1.18769e-05
3.8269e-05
3.82289e-05
-3.02683e-05
-5.01081e-05
-1.86453e-05
2.51091e-05
4.4223e-05
8.07671e-05
0.000139077
0.000178947
0.000423587
0.000560258
0.000868973
0.00126705
0.00191226
0.00302271
0.00481384
0.00744528
0.0117685
0.0183658
0.028836
0.0450297
0.0705665
0.110114
0.172618
0.269449
0.422142
0.658871
1.03246
1.61257
2.53008
3.95219
6.19388
9.69137
15.2328
23.7976
37.4764
58.9707
92.1317
144.058
228.081
353.492
551.049
858.569
1310.27
1972.5
3037.82
4114.15
6063.95
6004.16
11906.6
5.04384e-06
-2.49493e-05
-3.72003e-05
-1.21682e-05
6.1204e-05
2.85756e-06
2.42862e-05
3.67872e-06
-1.63446e-05
-3.41999e-06
2.2012e-05
-4.20168e-05
8.68755e-06
7.13615e-06
-5.38417e-05
4.40473e-05
-2.22969e-05
-1.57993e-05
1.75412e-05
5.5274e-06
3.0355e-05
-1.72907e-05
3.34862e-05
5.08609e-05
-1.30369e-05
1.89642e-05
2.14617e-05
7.22307e-06
1.72401e-05
2.94359e-06
-5.72142e-05
-8.6456e-06
-2.59341e-05
5.75344e-05
-3.22656e-05
-7.43512e-06
-1.14629e-05
-2.96671e-05
1.70233e-05
-2.90769e-05
-2.40202e-05
2.55786e-05
2.31363e-05
-2.65289e-05
4.23842e-05
3.00705e-06
3.16524e-05
-8.06289e-05
4.07817e-06
5.09946e-05
1.0488e-05
4.55525e-05
1.78928e-05
5.05265e-06
2.35397e-05
-4.23056e-05
-1.22404e-06
-2.07956e-05
-2.785e-05
2.67244e-06
-7.54252e-06
-1.04208e-05
-9.95617e-06
-2.07695e-05
-3.83758e-05
-1.18096e-05
-2.12463e-05
2.27258e-05
2.32268e-06
8.50573e-08
-1.48556e-05
-4.85876e-05
-2.22799e-05
2.78578e-05
4.01358e-05
4.30954e-06
5.73451e-07
1.47668e-06
1.85072e-05
3.15419e-05
-9.67513e-07
-1.99386e-07
5.77007e-05
5.05188e-05
4.05539e-05
8.6608e-06
-2.32293e-06
1.1708e-05
-5.06269e-06
-5.62771e-05
-3.54068e-05
2.17502e-05
1.15491e-05
2.75057e-05
1.26621e-07
-3.32959e-05
4.0371e-05
-3.30665e-05
-4.21463e-06
1.3472e-05
3.35205e-05
-2.26394e-05
-3.25683e-05
-5.07986e-05
6.41511e-06
2.40003e-05
3.01445e-05
-2.5522e-05
-1.13795e-05
-7.865e-07
-4.40268e-06
-4.16864e-05
-7.10377e-05
-2.7748e-05
-2.17763e-05
4.40937e-06
2.49903e-05
1.58817e-05
2.32784e-05
-4.13675e-06
2.54477e-05
7.1558e-05
4.89843e-05
-1.00254e-05
7.88755e-06
2.63194e-05
-4.49048e-05
2.03387e-05
4.79516e-05
-2.27541e-05
2.81376e-05
-4.38995e-05
-4.12587e-05
-6.43719e-05
1.5536e-05
2.68731e-05
-1.74737e-05
-4.88633e-05
2.80681e-06
1.11496e-05
-9.08488e-06
2.81364e-05
1.82931e-05
-2.31311e-05
-3.17446e-05
-6.22645e-05
-4.26682e-05
1.16449e-05
-9.00953e-06
6.80004e-06
2.43691e-05
-3.325e-06
1.63803e-06
5.93382e-05
-1.49491e-05
4.67842e-06
8.08155e-06
1.55836e-05
2.42684e-05
2.45959e-05
6.30983e-07
-3.28816e-05
-5.5867e-07
1.72902e-05
-2.55177e-05
-2.76529e-06
-4.97906e-05
-9.83549e-06
-6.77059e-06
4.23704e-05
3.36169e-06
-5.88228e-06
7.26835e-06
4.09584e-05
2.77656e-05
2.52847e-05
6.16932e-07
1.59275e-05
3.65146e-05
-0.000112017
3.37568e-05
-1.72573e-05
1.50786e-05
3.0152e-05
4.61665e-05
4.63495e-05
-2.30306e-05
1.3888e-05
-2.32374e-05
-3.42819e-05
-8.88047e-06
-1.94863e-06
3.00565e-06
-1.99179e-05
1.22395e-05
7.09679e-06
1.03783e-05
3.54845e-05
2.35687e-05
3.82283e-05
4.01503e-05
8.37822e-06
1.75368e-05
-2.17911e-06
5.72011e-07
2.94385e-05
-8.52081e-05
-7.51827e-05
-4.08941e-05
-5.83231e-05
2.72652e-06
3.08711e-05
3.27465e-05
5.26127e-05
-1.40602e-05
1.47073e-05
2.34035e-05
1.61253e-05
-4.49376e-06
-7.59305e-05
-4.17703e-05
-2.25413e-05
-3.2315e-05
-3.56856e-05
-1.42686e-05
-1.44268e-05
-2.5858e-05
1.26839e-05
4.05954e-05
-1.1288e-05
4.57467e-05
4.1222e-05
5.11768e-05
2.33149e-05
-8.94392e-07
-7.09517e-06
9.34704e-06
1.64418e-05
-2.15668e-05
-2.80817e-05
1.52575e-05
-4.00438e-07
1.2504e-05
1.849e-05
1.71278e-05
3.04742e-05
-1.88837e-05
2.50343e-06
2.72821e-05
3.97953e-06
-1.19163e-05
-2.05942e-05
7.07147e-06
-7.15771e-06
-1.95057e-05
1.72044e-05
4.76389e-05
6.16694e-05
0.000168318
0.000253668
0.000416142
0.000704195
0.00106328
0.0016763
0.00264649
0.00412814
0.00637957
0.0100032
0.0155873
0.0244104
0.0380687
0.0595457
0.0928037
0.145182
0.226086
0.353527
0.550688
0.861135
1.34215
2.1009
3.27456
5.11905
7.98991
12.5286
19.5252
30.661
48.1685
75.0979
117.123
185.428
287.518
447.578
700.301
1076.5
1631.77
2556.81
3593.09
5530.56
6385.31
13230.5
-2.43227e-05
-8.69424e-06
-2.4415e-05
-1.45942e-07
3.39146e-05
2.41085e-05
7.42427e-06
2.99482e-05
-7.00593e-07
-7.97555e-05
-5.68453e-06
2.60063e-05
-3.16339e-06
-2.22986e-05
1.59794e-06
-5.08424e-06
3.40109e-05
-5.32688e-05
-9.90304e-06
-2.15853e-05
1.42619e-05
6.92983e-06
-1.89538e-05
-1.79214e-06
3.84184e-05
5.50127e-05
-3.28504e-05
-3.03439e-05
-4.20097e-05
-3.40053e-05
3.1331e-05
3.66406e-05
1.6999e-05
7.22917e-06
-6.81495e-07
1.96704e-05
3.92496e-05
-2.29172e-05
-1.52422e-05
-1.37349e-06
-2.93792e-05
-1.14204e-06
-1.56283e-05
-3.89535e-05
-8.79524e-07
-2.49207e-05
1.39094e-05
2.17647e-05
-3.42097e-05
3.24315e-06
3.5317e-05
1.60088e-05
-6.32766e-06
6.33594e-07
1.89143e-05
-1.3066e-05
-1.07716e-05
2.37194e-05
-2.68565e-05
-2.41068e-05
4.41815e-06
-6.23467e-05
5.87739e-05
8.64356e-07
-1.19914e-05
1.39989e-06
3.81697e-05
5.31972e-05
1.91183e-05
1.6247e-05
-3.98921e-05
-3.2732e-05
-5.35269e-05
-1.36875e-05
-2.70218e-05
-2.13819e-06
-2.97165e-05
-3.19132e-05
5.15647e-05
3.31379e-05
3.52629e-06
1.62795e-05
1.82444e-05
-2.87632e-05
-2.68576e-05
1.35783e-05
9.38043e-06
-1.0923e-05
-1.18453e-06
5.40414e-05
1.19145e-05
-2.4214e-05
-2.58545e-05
-4.2631e-05
5.31808e-05
-5.51141e-06
1.16223e-05
9.25673e-05
4.51434e-07
-4.01224e-05
-2.28886e-05
-1.58588e-06
-3.35858e-05
2.88385e-06
-4.35157e-05
-2.34638e-05
6.83071e-05
2.23855e-05
1.66449e-05
2.45141e-05
-4.37786e-06
-4.01798e-05
4.81673e-06
2.23358e-06
-6.47663e-05
1.43764e-05
2.21585e-05
-1.82223e-06
-6.00777e-06
2.6826e-05
-1.27955e-05
5.38171e-06
8.36463e-06
8.18272e-05
-2.44774e-05
-3.60373e-06
3.91349e-05
-8.11946e-05
-4.15331e-05
-1.74003e-05
8.64582e-06
6.42077e-05
5.51183e-05
2.12634e-05
2.26439e-05
-9.38422e-06
9.81868e-07
2.11696e-05
-1.67139e-05
-3.64297e-05
-4.85411e-05
-3.27196e-05
-3.66599e-05
-1.89622e-05
-6.29499e-06
-6.99276e-06
-1.73618e-05
2.86582e-05
2.77063e-05
2.41473e-06
3.28206e-06
-5.26212e-05
3.56637e-05
1.72128e-05
-3.37439e-06
2.43649e-05
-5.68691e-05
-1.42978e-05
-2.66329e-05
-3.66286e-05
-6.78677e-05
-9.11252e-06
-2.67295e-05
1.5994e-05
5.37811e-05
5.45979e-05
5.01477e-06
-6.21337e-06
1.44459e-05
-6.46852e-06
-2.23747e-05
-5.9274e-05
9.047e-07
2.19745e-05
-2.96562e-05
-1.35331e-05
3.50565e-05
2.32741e-07
7.00595e-05
-1.63001e-06
-1.84027e-05
1.08453e-05
4.07067e-05
1.15993e-05
-2.43042e-05
-2.98154e-05
-1.54694e-05
-1.15605e-05
-2.22657e-05
-4.74565e-05
-3.79705e-05
4.16966e-06
-2.17472e-05
1.16711e-05
3.8411e-06
-9.24279e-06
6.2955e-05
-5.25728e-06
-3.51139e-05
-7.28682e-06
1.3046e-05
-3.04249e-05
1.33379e-05
-1.6505e-05
-8.58957e-05
-2.14755e-05
-2.93427e-05
-3.25641e-05
1.46999e-05
-2.98971e-05
-8.42636e-06
1.1369e-05
-6.3272e-06
1.43166e-05
-4.13792e-05
-3.17841e-05
-3.77853e-05
-1.07265e-05
-5.61533e-06
-3.30671e-05
-1.63023e-05
6.24495e-06
-1.43482e-06
-6.53599e-06
-3.19328e-05
-3.74781e-05
1.57637e-05
-1.30727e-05
3.27601e-05
-5.10858e-06
5.12258e-06
-5.34981e-05
1.12326e-05
2.97441e-05
4.42927e-05
7.44713e-06
-1.752e-05
-1.60637e-05
7.20127e-05
3.92573e-05
-2.24516e-05
-8.22614e-06
-1.5126e-05
3.3103e-05
-1.4752e-06
2.3219e-05
5.25099e-05
3.26887e-05
6.27488e-05
5.87105e-06
3.896e-05
5.21521e-05
1.896e-05
4.71592e-05
6.50916e-05
1.89551e-05
5.33986e-05
6.28652e-05
0.000154989
0.000213675
0.000440958
0.00060872
0.000900571
0.00144374
0.00219464
0.0034781
0.00531128
0.00826728
0.0129193
0.0201991
0.0315366
0.0492609
0.0766038
0.119596
0.186047
0.290376
0.451456
0.704613
1.09617
1.71227
2.66349
4.15455
6.46975
10.1233
15.7419
24.6568
38.6675
60.1759
93.6286
148.116
229.655
357.031
559.742
864.247
1315.43
2081.74
2990.03
4712.12
5855.13
12369.3
-2.75065e-06
-6.4725e-06
4.51833e-05
5.17302e-05
-8.6955e-06
9.50165e-06
3.40676e-05
-3.26954e-05
-5.06829e-06
2.08942e-05
3.00112e-05
-4.2273e-05
-1.78089e-05
-1.62287e-05
1.77913e-05
5.10935e-07
-9.15411e-06
-7.14809e-06
-3.51574e-06
1.0687e-05
-3.61344e-05
-1.99069e-05
-4.59207e-06
-9.51039e-06
1.87274e-05
1.43235e-05
-9.36705e-06
9.25769e-06
3.97897e-06
2.90003e-05
-8.75547e-06
1.46404e-05
1.86017e-05
2.80304e-07
5.06289e-06
-3.59815e-06
2.55894e-05
-4.11358e-06
-2.04863e-05
1.53048e-05
-5.58551e-05