/*--------------------------------*- C++ -*----------------------------------*\
| =========                 |                                                 |
| \\      /  F ield         | OpenFOAM: The Open Source CFD Toolbox           |
|  \\    /   O peration     | Version:  2412                                  |
|   \\  /    A nd           | Website:  www.openfoam.com                      |
|    \\/     M anipulation  |                                                 |
\*---------------------------------------------------------------------------*/
FoamFile
{
    version     2.0;
    format      ascii;
    arch        "LSB;label=32;scalar=64";
    class       volScalarField;
    location    "0.0025";
    object      ddt0(thermo:psi,p);
}
// * * * * * * * * * * * * * * * * * * * * * * * * * * * * * * * * * * * * * //

dimensions      [1 -3 -1 0 0 0 0];

internalField   nonuniform List<scalar> 
180000
(
-3.33065e-11
-2.2839e-14
-1.11451e-10
-1.64214e-10
1.0471e-10
6.34015e-11
4.15152e-11
-1.4154e-10
6.84742e-11
-5.84595e-11
-1.38163e-10
8.09586e-11
8.06303e-11
1.17734e-11
-1.63011e-10
2.44241e-12
6.7217e-11
1.5235e-11
-8.71015e-11
1.3895e-11
1.84679e-10
-4.56709e-11
-8.22895e-11
1.00722e-10
1.41377e-10
2.60346e-11
2.64632e-10
9.75717e-11
3.86924e-11
1.22764e-11
3.42321e-11
5.33579e-12
4.01423e-11
-6.44714e-12
8.80209e-12
-4.14374e-11
3.39491e-11
1.34027e-10
-4.83006e-11
2.03557e-10
1.04736e-10
-5.92196e-11
4.63943e-12
-4.80392e-11
1.47694e-10
8.5344e-11
1.22032e-10
-6.70067e-11
1.51313e-10
-1.25874e-10
1.04517e-10
-4.04483e-11
-8.15121e-11
2.40164e-11
1.67914e-10
9.92147e-11
1.68393e-10
-6.61042e-11
-1.59753e-11
8.26633e-11
-1.03774e-11
2.03812e-10
1.1547e-10
-1.35829e-10
3.72498e-11
-6.38329e-11
-4.28793e-11
2.53513e-11
-8.5994e-13
-8.3152e-11
-4.08802e-11
-7.64646e-11
-1.61724e-10
8.61933e-11
-1.49994e-10
-5.6566e-11
-1.50227e-11
8.42945e-11
-1.55856e-10
1.53763e-10
7.52118e-11
-1.41604e-10
-1.94474e-10
9.21423e-11
-1.20764e-10
-1.46934e-10
-9.56587e-11
3.76636e-11
4.07715e-11
-1.65158e-11
-4.39607e-11
-4.25424e-11
-3.50508e-11
4.50232e-11
2.54064e-11
9.51177e-11
-1.67702e-11
-1.54812e-11
7.04405e-11
-2.48652e-11
-8.38346e-11
-9.31483e-11
-4.37793e-11
-4.54143e-11
7.88098e-11
-9.2982e-11
-1.56235e-10
2.05063e-10
1.73206e-10
7.04837e-11
5.46266e-11
1.51351e-10
-8.98162e-11
1.75333e-10
1.87321e-10
7.60502e-11
9.15084e-12
1.55703e-10
2.60216e-10
-1.6178e-10
-2.05116e-10
1.19795e-10
1.74931e-10
1.11067e-10
-1.61768e-10
-3.2561e-10
-8.99228e-11
-1.10932e-10
-1.94684e-10
-2.74883e-10
-1.0611e-11
-6.61708e-11
-1.84449e-11
1.25349e-10
-1.27181e-10
7.26265e-11
7.83969e-11
-5.67423e-11
9.65203e-11
-5.05665e-11
-1.53515e-11
5.20775e-11
5.2927e-11
6.45216e-11
1.00076e-10
8.94739e-11
-1.09758e-10
-1.01483e-10
-4.92492e-11
2.39385e-10
-2.22045e-11
1.76671e-10
7.24282e-11
-1.56481e-10
3.03126e-10
2.40899e-10
1.23068e-10
1.37898e-10
4.58048e-11
1.93927e-10
-1.78815e-11
5.89832e-11
1.55508e-10
6.14518e-11
-2.84174e-11
5.1513e-11
1.41482e-10
1.01991e-10
4.192e-11
-1.1916e-10
2.44285e-11
-1.0206e-10
7.30944e-11
6.19524e-11
-1.26051e-11
2.45532e-10
-1.60375e-10
-1.14034e-10
-5.68647e-11
-1.80744e-10
1.0283e-11
2.56254e-10
-5.15887e-11
-5.52748e-11
9.94076e-11
-2.11507e-11
-7.34164e-11
-8.96903e-11
1.89061e-10
3.88084e-11
-1.71766e-11
6.64204e-11
-3.32019e-10
-3.42907e-10
-1.08309e-10
-4.6125e-11
-7.9346e-11
-7.26401e-11
2.84405e-11
-3.70755e-11
1.27805e-10
5.40747e-11
-1.79875e-10
-9.04535e-11
-1.3802e-10
7.66328e-12
1.61247e-11
-4.48613e-11
1.7144e-10
-2.54419e-10
-2.19627e-10
-1.13431e-10
6.58076e-11
7.43922e-11
4.89885e-11
1.6822e-10
-5.68535e-11
1.53462e-10
5.68032e-11
-1.18694e-10
-5.13921e-11
-8.96854e-11
9.25827e-11
-4.04457e-12
3.66918e-11
1.32581e-10
2.35615e-11
-1.54481e-10
7.47398e-11
2.08187e-10
9.41668e-11
8.58869e-11
1.42207e-10
-1.56785e-10
1.85072e-11
-1.6455e-10
-1.60054e-10
1.23353e-10
-5.76768e-12
1.13439e-10
9.44842e-11
-6.42993e-11
2.406e-11
3.18189e-11
1.01609e-11
1.05708e-10
2.27714e-10
2.31506e-10
2.34381e-10
3.82905e-10
7.12322e-10
1.01274e-09
1.4065e-09
2.38858e-09
3.65606e-09
5.67537e-09
8.79247e-09
1.40041e-08
2.17683e-08
3.40725e-08
5.33837e-08
8.37476e-08
1.31293e-07
2.05758e-07
3.22835e-07
5.06491e-07
7.94807e-07
1.24829e-06
1.96046e-06
3.08074e-06
4.84078e-06
7.61081e-06
1.19652e-05
1.88218e-05
2.96065e-05
4.65975e-05
7.334e-05
0.000115507
0.000181942
0.000286783
0.000452114
0.000713291
0.00112552
0.00177745
0.00280838
0.00444054
0.0070202
0.011111
0.0175863
0.027823
0.0440472
0.0697512
0.110058
0.173678
0.273084
0.426551
0.658249
1.00871
1.47896
2.17128
-4.82528e-11
1.19773e-10
-1.31492e-10
-7.39436e-12
-1.85251e-11
5.32669e-11
-1.2589e-10
8.02546e-11
-6.5667e-11
-4.98167e-11
3.03192e-11
-1.8871e-11
6.14529e-11
-7.85189e-11
1.22884e-10
5.42065e-11
5.21962e-11
1.63541e-11
5.04862e-11
1.03389e-11
1.70392e-10
1.0078e-10
7.0379e-11
-1.44585e-10
5.83705e-11
7.44132e-11
1.03332e-10
-2.1592e-10
-1.08512e-10
-1.23038e-10
-2.09782e-11
-4.10419e-11
1.39879e-11
-1.10096e-11
-1.81446e-10
-1.39421e-10
1.96817e-11
-1.63387e-11
5.67223e-11
1.24449e-10
6.9495e-11
7.21469e-11
1.14331e-10
1.02534e-10
1.3838e-10
6.15947e-11
-4.26089e-11
2.91372e-11
-8.37914e-11
-2.7857e-11
1.96935e-10
-6.9658e-11
1.44102e-10
8.77573e-11
-1.24492e-10
-2.77286e-12
-8.35248e-11
-1.50212e-10
-8.1273e-11
-9.96431e-11
2.67472e-10
1.17884e-10
-8.37859e-11
1.99001e-13
-1.03899e-10
2.75525e-11
7.12147e-11
-2.57096e-10
-2.5801e-10
-1.71473e-10
-1.4975e-10
-8.95659e-11
-5.94407e-11
1.2994e-10
5.71688e-11
-6.71651e-13
1.25954e-10
1.18634e-10
-2.51498e-10
-1.89963e-10
9.34392e-11
-9.12756e-11
5.21262e-11
9.68503e-12
-1.70815e-10
4.86852e-11
-1.31355e-10
-3.18166e-11
9.57291e-11
-1.46155e-10
6.76027e-11
5.49944e-12
4.33224e-11
3.88101e-11
-2.22667e-10
-1.52964e-10
-5.59993e-12
-1.27859e-10
-1.41658e-10
-2.64177e-12
-8.13091e-11
-1.34623e-10
-4.99918e-11
3.93139e-11
1.85751e-10
8.41747e-11
-1.30092e-10
-7.82197e-11
2.60673e-10
4.3028e-11
-1.68569e-11
-4.50881e-11
-1.37477e-10
1.0693e-10
1.70535e-10
1.0891e-10
-7.3139e-13
1.60301e-10
3.39446e-11
9.65613e-12
-9.96364e-13
1.46553e-10
-3.93523e-11
-6.71504e-11
1.06369e-11
-2.18095e-11
7.02107e-12
-1.53972e-10
1.09556e-10
1.18243e-10
9.51002e-11
1.22702e-11
-2.34116e-11
-1.89535e-12
1.78221e-10
9.50546e-11
5.97163e-11
-8.60848e-11
-1.1443e-10
-2.07858e-11
3.69378e-11
-1.4346e-10
1.69355e-11
-1.92143e-10
-1.22126e-10
5.97898e-11
9.38363e-11
2.53806e-11
1.30293e-10
1.89716e-10
-6.33752e-11
1.7382e-11
1.3244e-10
-4.19688e-12
1.19099e-10
1.34295e-10
3.16098e-11
2.70016e-10
3.27401e-11
-1.18556e-10
-2.42201e-10
-2.27964e-10
7.51229e-11
-2.70207e-10
-1.26529e-10
2.41774e-10
-1.57311e-10
1.03664e-10
2.07019e-10
1.94011e-11
-1.09901e-10
2.1177e-10
2.63883e-10
-2.55371e-11
-1.03773e-11
-2.14478e-10
-1.74194e-10
-1.87714e-10
-9.53681e-11
7.40437e-11
3.80749e-11
4.46868e-11
-1.0324e-10
-1.42784e-10
-7.79814e-11
7.99204e-11
1.35481e-10
-5.58705e-11
7.56271e-11
-1.99431e-10
4.09314e-11
-7.95593e-11
-1.70993e-11
1.88863e-12
-2.35731e-10
-1.89674e-10
7.50193e-11
-4.24146e-11
4.25923e-11
-2.28364e-10
9.1443e-12
-6.04114e-12
7.02561e-11
-5.12765e-11
-1.46372e-10
-1.4682e-10
-6.80474e-11
-1.71779e-10
-1.92651e-10
-1.06696e-10
8.3715e-11
-1.08691e-10
-2.43009e-11
-7.30676e-11
1.44207e-10
-3.68276e-11
-6.34466e-11
4.93735e-11
-6.44653e-11
3.32126e-12
2.12841e-10
1.98116e-10
-8.42124e-11
-1.20028e-10
1.24401e-10
-8.48705e-11
2.23483e-10
1.20421e-10
-1.09632e-10
9.62579e-11
-9.16976e-11
-1.19169e-10
-8.88043e-12
9.3903e-11
4.52312e-11
1.83813e-10
4.54308e-11
1.34423e-11
1.18066e-10
-2.94474e-11
-1.04129e-10
5.15405e-11
-3.25258e-11
9.11086e-12
-1.54272e-10
-1.16073e-10
-5.55624e-11
4.44238e-10
2.57269e-10
2.38982e-10
4.86825e-10
1.04359e-09
1.41699e-09
2.19738e-09
3.63274e-09
5.38064e-09
8.25264e-09
1.34528e-08
2.08411e-08
3.25564e-08
5.12092e-08
8.06032e-08
1.2614e-07
1.97631e-07
3.1001e-07
4.86451e-07
7.62775e-07
1.19721e-06
1.8787e-06
2.94941e-06
4.62984e-06
7.27172e-06
1.14207e-05
1.79452e-05
2.81945e-05
4.43206e-05
6.96656e-05
0.000109566
0.000172323
0.000271188
0.000426785
0.000672062
0.00105841
0.00166793
0.00262897
0.0041471
0.00654011
0.0103194
0.0162873
0.0256949
0.0405208
0.0639633
0.100644
0.158136
0.248168
0.387332
0.598064
0.920026
1.37222
2.04203
9.02191e-12
4.21268e-11
2.44468e-11
3.749e-11
-7.2606e-11
-5.55619e-11
-4.7522e-11
-1.52236e-11
-3.62124e-11
-6.65672e-12
4.20239e-11
2.30034e-10
1.57995e-11
-1.55383e-10
2.21166e-11
-4.15629e-11
4.11709e-11
1.55745e-10
1.04101e-10
-8.01163e-11
-9.98941e-11
-3.2949e-10
-1.26945e-10
-1.35582e-10
2.55621e-11
3.91521e-11
1.90203e-11
-8.29626e-11
4.87794e-12
-7.1939e-11
-3.35239e-11
9.54555e-11
-9.79661e-11
-1.40776e-10
-4.69644e-11
-4.71796e-11
3.2535e-11
-6.45883e-12
8.68045e-11
1.99005e-12
8.69684e-11
-5.14791e-11
-9.56549e-11
2.13107e-10
8.17955e-11
-6.38729e-11
6.55361e-11
-1.25783e-10
-7.54902e-11
9.07223e-11
8.89806e-12
-9.61889e-11
-9.47515e-11
-5.72478e-11
-1.77975e-10
5.93513e-11
-3.23734e-12
4.06641e-11
1.87966e-10
9.53294e-11
-8.69703e-11
-2.66979e-10
3.39449e-11
2.92767e-11
-2.7837e-10
-2.91992e-10
-1.24587e-10
1.73362e-11
1.09563e-10
1.63737e-10
1.25223e-10
9.46249e-11
1.60858e-10
2.77263e-12
2.77942e-11
8.40327e-11
6.95883e-11
9.48382e-11
-9.70613e-11
-4.6996e-11
1.59205e-10
2.07016e-10
-1.31728e-10
-1.18727e-10
-1.42355e-11
-4.5345e-11
-1.67005e-10
5.0328e-11
1.00942e-10
-1.53353e-11
-1.05622e-10
4.01085e-12
1.341e-10
1.91121e-11
-1.07553e-10
-1.51272e-10
-4.54735e-11
1.36114e-11
1.01929e-10
5.4901e-11
1.03589e-10
6.90205e-11
-5.95646e-11
-4.5934e-11
-2.42678e-11
-4.38375e-11
8.48993e-11
1.13348e-11
6.22121e-11
-3.05646e-11
3.39491e-11
1.25229e-10
-5.28613e-11
7.09609e-11
2.34055e-10
1.09692e-10
3.24162e-11
-8.97766e-11
-1.39829e-11
-5.74767e-11
4.73715e-11
9.88068e-11
5.44566e-11
1.5939e-10
-5.74954e-11
1.29e-11
-1.43581e-10
1.52997e-10
4.13102e-11
5.05219e-11
-5.67045e-11
-1.21046e-11
-1.25209e-11
-1.748e-10
-4.56656e-11
-7.41894e-11
4.565e-11
2.58607e-10
4.01816e-11
-7.53457e-11
-3.34053e-11
1.50689e-10
1.41583e-10
1.42446e-10
9.95397e-11
4.06646e-11
-3.69905e-11
-5.00048e-11
1.54752e-10
2.52663e-11
-2.00373e-12
1.53075e-10
1.02806e-10
-3.40159e-11
2.07115e-10
-1.47592e-11
-8.59372e-12
3.75218e-11
-4.70396e-11
-2.21438e-10
-6.23051e-12
2.02603e-11
2.07764e-11
1.44016e-10
-3.29333e-11
-4.82723e-11
-1.05984e-10
-1.83161e-10
-6.17206e-11
3.79309e-11
8.34667e-11
4.08936e-12
-1.00603e-10
-1.09578e-10
2.35438e-11
2.5489e-10
-4.5141e-11
9.36838e-11
-1.76982e-11
-2.19943e-10
-1.30206e-10
5.20677e-11
9.17303e-11
1.20675e-10
1.61484e-10
-1.88568e-10
-6.95513e-12
-3.06876e-10
-1.83829e-11
-1.34611e-10
-9.10931e-11
-1.87895e-10
-3.54899e-11
-1.20096e-10
5.48424e-11
4.67536e-10
8.03338e-11
1.61775e-10
3.31004e-11
4.9226e-11
-1.26552e-10
7.65766e-11
-8.36513e-11
5.93219e-11
-1.94164e-11
-5.50967e-11
6.67182e-11
-3.72629e-11
3.26734e-11
-5.45989e-11
3.87107e-11
6.41998e-11
7.28634e-11
-9.38385e-11
4.59779e-11
-9.14091e-11
1.08994e-10
3.44844e-12
-1.58999e-10
2.11575e-10
-1.03105e-10
-1.26274e-10
-6.41754e-11
1.75706e-11
3.66997e-11
-1.19946e-10
9.97986e-11
-6.25275e-11
3.31054e-11
-2.85151e-11
-4.15008e-11
3.38244e-11
3.27468e-11
-4.5684e-11
1.2866e-10
1.38447e-10
1.60619e-10
1.12343e-10
-1.03188e-11
1.19771e-10
2.11274e-10
-6.3022e-11
9.19101e-11
2.53942e-10
1.31494e-11
-1.42538e-11
1.05978e-10
8.39333e-11
2.95152e-10
4.44597e-10
5.11784e-10
7.95929e-10
1.25798e-09
2.06466e-09
3.2764e-09
5.0838e-09
8.03837e-09
1.23311e-08
1.95387e-08
3.0665e-08
4.77572e-08
7.487e-08
1.17183e-07
1.83129e-07
2.86919e-07
4.50018e-07
7.04715e-07
1.10442e-06
1.73025e-06
2.7126e-06
4.25168e-06
6.6674e-06
1.04534e-05
1.63958e-05
2.57124e-05
4.034e-05
6.32797e-05
9.93103e-05
0.000155844
0.000244679
0.000384096
0.000603254
0.000947531
0.00148897
0.00233975
0.00367971
0.00578488
0.00909537
0.014307
0.0225006
0.0353485
0.0555928
0.0872163
0.136575
0.213744
0.333422
0.514687
0.795246
1.19633
1.81542
-8.02983e-12
-3.13069e-11
7.54947e-11
-2.33431e-13
2.95934e-11
-1.34439e-10
-5.41899e-12
1.32916e-11
-1.32413e-10
-3.33668e-11
5.80522e-11
-8.69638e-11
-1.38127e-10
-9.33224e-11
-1.45673e-10
2.15776e-10
-5.40331e-11
-1.97636e-10
-3.21634e-11
6.49447e-11
-9.82682e-11
4.18257e-11
-2.27867e-11
1.18653e-10
7.34125e-11
-1.21092e-10
1.11142e-10
-2.31624e-11
7.20153e-11
1.4212e-10
-2.03248e-11
5.24356e-11
1.02792e-10
-6.72812e-13
-1.0961e-11
-1.81583e-10
-1.74941e-10
6.39938e-11
2.539e-11
2.42306e-11
2.48486e-11
3.3427e-11
-9.25138e-12
-4.97308e-11
8.48087e-11
6.68247e-11
3.08278e-11
-1.22181e-10
-1.76042e-10
1.28242e-10
2.79141e-11
-1.9501e-10
-1.61421e-10
3.04688e-11
1.52506e-10
5.57404e-12
1.32935e-10
5.07914e-11
7.93011e-12
2.46706e-11
1.66699e-10
2.42498e-10
3.75675e-11
4.80063e-11
2.84688e-11
8.90076e-11
8.30466e-11
-1.09845e-10
1.2636e-10
-3.18377e-11
1.29499e-10
-1.32582e-11
-3.9047e-11
1.09008e-10
-8.78401e-11
-3.13587e-11
-7.71721e-11
1.56657e-10
6.36523e-11
2.05272e-11
-3.61076e-11
-1.33834e-10
-2.20877e-10
3.4565e-11
1.26363e-11
4.21578e-11
-1.659e-11
1.30577e-10
3.26965e-11
-1.24102e-10
-8.53592e-11
-8.32463e-11
-5.44245e-11
-1.72928e-11
5.2792e-11
-7.51334e-12
1.28108e-10
-4.93358e-12
-1.70725e-10
9.79706e-12
5.36743e-11
-2.25849e-11
6.79401e-11
-1.50402e-10
-3.41733e-11
-1.13192e-10
-1.15904e-10
-1.47096e-10
1.98928e-11
-3.97956e-11
2.98202e-10
5.57111e-11
1.26282e-10
5.80378e-12
6.27862e-11
1.01071e-10
-5.54169e-11
-1.3749e-11
1.18771e-10
2.62918e-10
4.19692e-11
2.03516e-11
-4.06898e-11
-2.33331e-10
-6.57213e-11
1.22209e-11
1.40923e-10
-1.23679e-10
-3.77532e-11
1.13714e-10
1.09837e-10
1.24117e-10
8.00076e-11
-8.21029e-11
4.4308e-11
-9.00364e-11
-2.14198e-10
-5.17738e-11
-1.0815e-10
9.05232e-11
1.34324e-10
1.59935e-10
-2.87811e-11
2.71127e-11
1.34145e-10
1.70935e-10
7.68344e-11
-1.25422e-10
-1.08945e-10
-1.62026e-11
-1.25013e-10
4.50517e-11
1.77143e-10
1.84307e-11
6.01611e-11
2.00264e-10
1.19366e-10
2.63909e-11
7.38964e-11
-1.22286e-10
3.31991e-11
-1.2722e-10
-9.38332e-11
-3.27362e-11
-8.44945e-11
6.19818e-11
-4.97842e-11
3.54003e-12
9.09479e-11
-4.31808e-11
-1.40321e-10
-8.22777e-12
-1.83488e-11
-1.3692e-11
1.50328e-10
-8.11658e-11
4.90885e-11
1.48726e-10
1.05778e-11
1.76625e-10
2.85855e-11
1.14254e-10
2.26263e-10
2.57388e-11
9.8629e-11
-2.26385e-11
8.67132e-11
1.97014e-10
1.21783e-11
-6.17307e-11
-9.42302e-11
1.21336e-10
1.56479e-10
2.25687e-10
9.71562e-11
4.41427e-11
-4.73776e-12
-2.29944e-10
1.09803e-10
1.5008e-10
-1.28237e-10
-7.2876e-11
2.0151e-10
-1.3644e-10
-4.27978e-11
-1.82272e-10
1.77525e-10
6.69576e-11
-8.84725e-11
-4.2173e-11
1.12788e-10
-2.18465e-10
-9.97763e-11
1.69696e-10
4.9502e-11
-7.28897e-11
-1.39481e-10
-1.87938e-10
-8.5739e-11
8.45978e-12
3.53686e-11
-8.55714e-11
1.15109e-10
2.09258e-10
1.84034e-10
2.8908e-10
-5.55232e-11
1.44832e-10
-2.15754e-11
-5.27318e-11
3.88512e-11
-7.70374e-11
1.98756e-11
9.07756e-11
-2.39243e-10
-6.51085e-11
-8.70272e-12
7.00387e-11
4.67351e-11
-2.99258e-11
-7.26748e-11
-5.97011e-11
9.18846e-11
1.57668e-10
2.16752e-10
1.28851e-10
1.62852e-10
-5.67711e-11
1.59675e-10
2.70169e-10
2.63331e-10
8.15287e-10
1.212e-09
1.79116e-09
2.88475e-09
4.72445e-09
7.21238e-09
1.14384e-08
1.78025e-08
2.77667e-08
4.31083e-08
6.72533e-08
1.05563e-07
1.64729e-07
2.57141e-07
4.02377e-07
6.29325e-07
9.84302e-07
1.53974e-06
2.40911e-06
3.76855e-06
5.89791e-06
9.228e-06
1.44438e-05
2.26015e-05
3.53788e-05
5.53672e-05
8.66802e-05
0.000135681
0.000212463
0.000332607
0.000520886
0.000815762
0.00127809
0.00200201
0.00313843
0.00491862
0.00770665
0.0120798
0.0189406
0.0296541
0.046468
0.0727031
0.113523
0.177182
0.276204
0.426244
0.660208
0.999658
1.53755
-1.39055e-14
4.69821e-11
-2.1875e-12
-3.06598e-11
-9.605e-11
-2.55401e-11
1.33989e-11
-4.66717e-11
-1.23199e-10
-1.86061e-10
6.91504e-11
9.40423e-12
-1.51693e-10
-1.7592e-10
2.028e-10
-2.13438e-11
-3.76432e-11
-6.41622e-11
-1.43702e-10
1.82563e-11
-9.54071e-11
-4.13129e-11
-2.42391e-10
-3.3606e-12
5.716e-11
5.38932e-11
1.31091e-10
-2.82285e-11
1.20899e-11
-7.42032e-11
-4.36632e-11
-1.23691e-10
1.16969e-10
1.3748e-10
4.06007e-11
6.81125e-11
3.88753e-12
1.1021e-10
4.15981e-11
-2.75956e-11
4.778e-11
3.48403e-11
6.3986e-11
3.38024e-10
1.23054e-10
-4.85767e-11
-2.00129e-10
-5.0087e-11
-7.52179e-11
-7.15598e-11
-7.69342e-11
-9.83902e-11
9.08408e-11
1.78998e-10
-9.88291e-12
7.04017e-12
2.07049e-10
2.4008e-10
-1.69225e-10
-6.11596e-11
3.97769e-12
4.70108e-11
8.51678e-11
9.95295e-11
-6.48685e-11
1.20103e-11
-2.72855e-10
6.3281e-11
7.68663e-11
-3.95926e-11
-1.08906e-10
-7.76215e-12
1.64437e-10
-1.37117e-10
-7.35834e-11
1.54409e-11
2.33796e-11
6.40141e-11
1.62047e-10
-2.22001e-11
1.31265e-10
2.8069e-10
7.39842e-11
1.63144e-10
-1.06543e-10
-8.47212e-11
-3.62163e-11
-1.88537e-10
-9.20416e-11
-1.48625e-10
-9.99753e-11
9.37476e-11
7.40894e-11
1.16388e-10
1.27635e-10
-6.50133e-12
4.41986e-11
2.69925e-10
9.4483e-12
1.98378e-11
-9.32658e-11
2.47916e-11
-6.12116e-12
-4.72931e-11
-1.4812e-10
2.86711e-11
-1.11933e-10
-1.70117e-10
-2.94745e-12
-6.20703e-11
-8.0553e-11
1.03304e-10
3.9347e-11
-3.22561e-13
5.25412e-11
7.7256e-11
1.25325e-10
-7.69341e-12
5.36076e-12
2.10607e-12
-9.61014e-12
-8.76346e-12
7.66522e-13
2.58155e-11
6.47029e-11
1.45126e-11
7.27957e-11
-5.32875e-12
-1.16956e-10
-6.58473e-11
-3.27754e-11
1.51024e-10
-6.18953e-11
1.37223e-10
8.13488e-11
1.20487e-10
8.92545e-11
1.35946e-10
1.2492e-10
1.50709e-10
-1.71604e-10
-7.94885e-11
-3.40895e-11
1.02599e-10
-9.08029e-13
-1.04136e-10
-1.29994e-11
-5.22096e-11
-5.93637e-11
1.38518e-10
-7.48228e-11
-9.7157e-11
4.68369e-12
-1.42194e-10
1.71684e-10
9.55418e-12
8.93908e-11
-1.35649e-10
-8.94036e-11
9.74721e-11
-6.07084e-11
1.08316e-10
1.18437e-10
-1.38789e-10
-1.21968e-10
-2.98601e-11
-4.71571e-11
2.18824e-11
-7.55468e-11
-3.55973e-12
7.66281e-11
3.30014e-11
8.02973e-11
2.05464e-10
5.3348e-11
3.14759e-11
1.84386e-12
4.41348e-11
1.02122e-10
1.18936e-10
8.85251e-11
3.47107e-11
-2.01317e-11
-2.69103e-10
2.12029e-11
-8.31054e-11
-7.75386e-11
8.25084e-11
4.75462e-11
5.24717e-11
1.46057e-10
-1.97101e-10
-6.47247e-11
-4.22997e-11
-2.15399e-12
-5.37776e-11
5.73726e-11
1.34452e-10
2.22894e-10
3.33525e-11
1.6615e-10
5.13269e-11
9.58531e-12
-7.91312e-12
-5.33597e-11
1.33218e-10
6.41128e-11
-6.59017e-11
-4.16445e-11
6.14698e-11
1.08492e-10
5.92223e-11
-5.79795e-11
-2.09959e-11
-3.25016e-11
-7.41804e-11
-1.67895e-12
5.68741e-12
-1.51252e-11
-5.02373e-11
3.226e-11
2.0316e-10
7.98107e-11
2.6663e-11
-1.33835e-11
1.80356e-10
-2.97411e-11
1.07282e-10
8.40918e-11
8.31931e-11
1.99983e-10
1.09545e-10
1.74268e-10
-7.44295e-11
-2.74261e-11
1.36925e-10
2.19087e-10
1.1582e-10
3.11488e-10
1.42251e-11
1.13496e-10
1.95214e-10
7.63818e-11
-3.93571e-11
-1.65415e-10
1.11735e-11
8.72607e-11
7.41477e-11
3.82816e-10
2.98571e-10
2.63442e-10
6.89397e-10
1.1479e-09
1.78651e-09
2.7442e-09
4.1059e-09
6.48485e-09
1.00704e-08
1.55473e-08
2.42295e-08
3.77383e-08
5.89481e-08
9.19878e-08
1.43683e-07
2.23877e-07
3.49695e-07
5.45954e-07
8.52091e-07
1.32991e-06
2.07678e-06
3.24203e-06
5.06318e-06
7.90549e-06
1.23465e-05
1.92763e-05
3.01046e-05
4.70021e-05
7.34061e-05
0.000114618
0.000179023
0.00027952
0.000436557
0.000681805
0.00106524
0.00166376
0.00260051
0.00406421
0.00634882
0.00992106
0.0155156
0.0242242
0.0378453
0.0590855
0.0920671
0.143378
0.223394
0.344761
0.534823
0.813503
1.26326
9.16679e-11
-6.09561e-11
-7.64785e-11
-8.19416e-12
5.46682e-12
4.84792e-13
7.27873e-11
-7.35931e-11
-7.3659e-11
1.80261e-10
1.32224e-11
-9.43353e-11
6.14559e-11
-1.1005e-10
-1.9409e-10
-1.68724e-10
-1.50571e-10
3.09115e-10
1.38828e-10
-1.71079e-10
5.43842e-11
-9.95667e-11
-4.4009e-11
1.01592e-10
-9.25152e-11
-5.67895e-11
-1.52994e-10
2.30938e-10
1.69212e-10
5.93973e-11
5.84751e-11
-1.3374e-10
2.03026e-11
-1.36183e-10
-3.75392e-11
4.79728e-11
-5.06733e-11
9.09611e-11
1.50003e-11
-8.84609e-12
8.90732e-11
1.63517e-11
-5.74666e-11
2.60728e-10
2.07231e-10
2.75485e-10
2.37445e-10
2.98299e-11
-1.39902e-11
1.40255e-11
-2.11904e-10
6.19163e-11
-1.24321e-11
-1.25568e-10
1.15576e-10
-1.178e-10
-1.35261e-10
1.03818e-10
9.21803e-11
1.25234e-10
-2.10594e-11
-6.2354e-11
-2.67266e-11
3.66724e-11
-2.06505e-10
-9.05702e-11
2.3925e-11
-2.05382e-13
7.09092e-11
-4.0286e-11
2.38271e-10
-8.25015e-12
-1.95259e-10
-1.26579e-10
9.61705e-11
2.25406e-10
2.67403e-10
5.4503e-11
3.99549e-11
-2.11148e-10
-1.21686e-10
-2.15019e-10
7.05634e-11
5.58534e-11
3.27948e-12
2.58613e-11
2.4289e-10
1.13567e-11
1.16766e-10
8.23116e-13
-1.66774e-10
7.10683e-11
-1.09574e-10
-1.19718e-10
3.06758e-11
1.09853e-10
1.39803e-10
-2.89017e-10
4.68604e-11
-2.72289e-12
1.53512e-10
-1.80412e-10
-1.79e-12
1.20021e-10
8.92162e-12
4.98896e-11
2.21435e-10
5.68229e-11
1.29484e-10
1.41641e-10
-1.1514e-10
5.10946e-11
8.59002e-11
-1.98288e-11
1.15039e-10
4.21743e-11
-1.33204e-10
1.1623e-10
-1.00565e-10
-2.23518e-11
-8.76889e-11
1.04767e-10
7.64848e-11
2.79785e-10
2.17446e-10
2.68746e-10
2.08626e-10
-1.15326e-11
-4.353e-11
1.26702e-10
-1.41838e-10
1.53461e-11
5.71434e-12
-9.73399e-11
-2.6967e-11
1.36163e-10
1.61115e-10
-3.03452e-10
1.66151e-10
-2.12978e-10
-3.52111e-10
-5.38914e-11
-4.7598e-11
8.15059e-11
1.12067e-10
8.53502e-11
9.66071e-11
1.36979e-10
-1.09911e-11
-2.02595e-11
1.22194e-10
2.39065e-11
-1.08791e-10
-9.21428e-11
4.85572e-12
-9.09934e-11
1.54923e-10
2.20033e-10
-1.19967e-10
-1.51387e-10
-1.04282e-10
1.20051e-11
-6.82693e-11
3.83935e-11
-2.25525e-10
7.90088e-11
5.50636e-11
-4.12975e-11
1.70677e-11
-7.47604e-12
1.29546e-10
2.05607e-11
4.52921e-11
-1.47596e-10
1.13575e-10
2.84816e-11
-8.30631e-12
1.4038e-10
-2.86477e-11
-8.07923e-11
-3.20283e-12
2.21687e-10
-1.00191e-10
7.63298e-12
1.23406e-10
9.49333e-11
8.62722e-11
-4.90765e-11
-4.40175e-12
-5.29127e-11
8.99016e-11
1.34613e-10
1.27995e-10
-7.59747e-11
3.82255e-11
2.81644e-10
1.2672e-10
2.59327e-12
-1.07578e-10
9.3113e-11
-8.33921e-11
-8.77057e-11
-3.58866e-11
2.03179e-11
5.1782e-11
9.88647e-11
8.69621e-11
-7.8738e-11
1.0552e-10
4.65979e-11
-1.93813e-11
-4.32086e-11
2.63286e-11
-1.80146e-11
7.38217e-11
-6.08106e-11
-7.07988e-12
-1.82402e-11
8.56006e-11
-5.52347e-11
-7.76782e-11
1.88293e-11
-2.70911e-11
-7.48026e-11
-6.99591e-11
2.24119e-10
5.46788e-11
1.23943e-10
1.24987e-10
-1.26162e-11
1.26141e-11
-1.20457e-10
-1.91003e-10
-5.12844e-11
4.06745e-12
-2.5864e-11
-1.0428e-10
-1.68796e-10
-1.13493e-10
6.47012e-11
5.93324e-12
-1.15715e-12
1.96742e-10
7.56299e-11
9.61611e-14
2.37701e-10
1.9672e-10
2.67369e-10
1.65295e-10
3.73937e-10
4.77952e-10
5.4494e-10
8.33692e-10
1.24947e-09
2.23201e-09
3.43388e-09
5.59286e-09
8.53946e-09
1.3275e-08
2.10942e-08
3.24528e-08
5.06273e-08
7.84043e-08
1.21864e-07
1.89847e-07
2.96068e-07
4.61235e-07
7.18967e-07
1.12005e-06
1.74592e-06
2.72036e-06
4.23993e-06
6.60614e-06
1.02959e-05
1.60407e-05
2.4997e-05
3.8942e-05
6.06823e-05
9.45349e-05
0.000147313
0.000229468
0.000357519
0.000557001
0.000868133
0.0013525
0.00210864
0.0032876
0.00512286
0.00798494
0.0124608
0.0194122
0.0302561
0.0471575
0.0733717
0.114077
0.177672
0.274257
0.425904
0.649872
1.01588
1.96381e-11
-8.15731e-11
-2.06359e-10
-4.98053e-11
1.06145e-10
9.44868e-11
1.14992e-10
1.26146e-10
-2.05815e-10
9.34034e-11
4.35921e-11
-2.41972e-10
1.64245e-10
-1.4418e-12
-1.22822e-10
7.38004e-11
8.41257e-11
-4.44054e-11
4.68945e-11
8.3223e-11
3.67122e-11
2.63412e-12
6.40067e-11
6.31225e-11
1.7088e-10
-5.38607e-11
5.74364e-11
1.96124e-11
6.74847e-11
3.35753e-11
-8.94291e-11
-1.17337e-10
-1.45126e-10
2.34679e-10
5.00934e-11
-7.71473e-11
-9.39526e-12
-2.0349e-10
1.00245e-10
-1.41287e-10
-1.3956e-10
8.83278e-11
1.27772e-10
1.37205e-10
3.50772e-12
-3.35078e-11
6.13919e-11
-1.23559e-10
4.43525e-11
2.23518e-10
2.81681e-12
1.19408e-10
6.92973e-11
8.0237e-12
-3.37271e-11
-1.78772e-10
-1.39821e-11
-3.25489e-11
-1.20154e-10
6.13947e-11
9.94287e-12
-7.99604e-11
1.50122e-10
-5.62552e-11
-8.84516e-11
-7.58363e-11
-3.01178e-11
2.02126e-10
8.9017e-13
-9.3174e-11
-1.3456e-11
-2.36419e-10
-2.07847e-12
5.81027e-11
9.97431e-11
1.19368e-10
-1.87382e-11
-1.72919e-11
5.90224e-11
6.51936e-11
8.22073e-11
-2.11569e-10
1.2048e-10
2.22999e-10
2.37972e-10
-4.61634e-11
4.00012e-11
2.05176e-10
-1.02769e-10
-1.60452e-10
-5.73488e-11
-8.46262e-11
1.12177e-10
6.22438e-11
-2.63288e-11
2.59705e-11
8.48691e-11
-4.61552e-11
-1.7352e-10
-4.01272e-11
2.02845e-10
4.46905e-11
-2.14848e-10
-1.47785e-10
-2.99399e-11
1.85668e-11
5.96265e-12
3.29882e-12
-2.16275e-10
-2.26923e-11
-1.20701e-10
-1.63696e-10
-1.20362e-10
-1.09741e-10
-1.12902e-10
9.45907e-12
1.9568e-10
5.70759e-11
1.01095e-10
-7.33264e-11
5.36081e-11
1.99838e-10
2.86435e-10
-4.28122e-12
1.81065e-10
-1.43611e-11
-1.30923e-10
1.5943e-10
1.15956e-10
-1.0633e-10
2.10278e-10
-1.74173e-10
-2.45176e-10
-1.22248e-10
2.42069e-11
1.21853e-10
1.85697e-11
-2.09322e-10
1.7586e-10
4.80641e-11
5.33381e-11
7.24968e-11
1.93687e-10
-1.11261e-10
-1.49591e-10
-2.6816e-10
-1.09246e-10
-4.78171e-11
8.91481e-11
4.45673e-11
7.3083e-11
1.11372e-10
-4.25374e-11
1.48334e-10
-8.60386e-11
-3.59789e-11
7.92255e-11
2.30947e-11
7.61948e-11
1.68438e-11
4.24399e-11
1.0469e-10
-5.50929e-11
4.17876e-11
-2.39275e-10
2.80125e-11
-5.19532e-11
-7.33843e-11
4.15303e-11
1.78343e-10
1.4156e-10
-2.36393e-11
-3.56165e-11
1.6909e-10
2.29457e-11
7.03609e-11
2.90436e-11
1.52869e-10
-1.33024e-10
-2.73124e-10
-8.8789e-12
-3.49343e-11
4.12461e-11
2.03726e-10
2.33466e-10
1.33189e-10
1.45999e-10
5.29488e-11
-7.3961e-11
-6.61801e-11
-3.1395e-11
3.79503e-11
-1.11997e-11
1.43916e-11
-6.98312e-11
1.34732e-10
4.88861e-12
1.52516e-10
2.56132e-11
2.96769e-10
4.02252e-11
1.22753e-10
1.53491e-10
-3.79789e-12
8.48872e-11
3.36638e-11
-1.89381e-10
-3.07295e-10
-1.44366e-10
-1.57285e-10
-3.17698e-11
1.74878e-10
6.3579e-12
1.56254e-10
4.67327e-11
-1.69869e-10
1.89348e-10
2.09142e-10
5.1501e-12
-2.5506e-10
-6.64247e-11
-2.03633e-10
-1.35437e-10
-7.47795e-11
-5.84119e-11
-6.23845e-11
-1.00833e-10
5.9033e-11
7.27928e-11
-5.25988e-11
1.7911e-10
1.98646e-10
3.15082e-10
1.44642e-10
1.19389e-10
1.07501e-11
2.80752e-11
-7.45124e-11
7.43203e-11
-4.4465e-11
-6.70169e-11
-2.99716e-11
-2.01707e-11
8.59434e-11
2.14196e-10
1.38544e-10
9.80306e-11
2.08476e-10
2.13886e-10
2.2408e-10
2.94607e-10
5.14417e-10
6.53303e-10
1.15103e-09
1.84789e-09
3.00191e-09
4.53289e-09
7.02314e-09
1.11003e-08
1.72619e-08
2.69323e-08
4.22202e-08
6.52816e-08
1.01383e-07
1.58006e-07
2.457e-07
3.82005e-07
5.9401e-07
9.24048e-07
1.43757e-06
2.23566e-06
3.47833e-06
5.40919e-06
8.41436e-06
1.3084e-05
2.03502e-05
3.16416e-05
4.92089e-05
7.65092e-05
0.000118985
0.000184966
0.00028759
0.00044713
0.000695459
0.00108122
0.00168217
0.00261747
0.00407034
0.00633139
0.00986306
0.0153386
0.0238625
0.0371439
0.0577286
0.0896448
0.139573
0.215499
0.334904
0.512101
0.804174
-1.74506e-11
-2.75067e-11
-1.36335e-10
5.66208e-11
3.62859e-11
1.04921e-10
2.42315e-11
1.50228e-10
-3.5342e-11
-2.21998e-10
-3.03458e-11
-1.79693e-11
-5.13121e-11
-7.58453e-11
-1.31661e-10
5.40836e-11
1.58001e-10
-1.24828e-10
-2.68501e-10
-5.49594e-11
-1.62016e-11
9.53476e-11
-2.7834e-11
-9.66953e-11
2.09422e-10
1.33695e-10
-7.00741e-11
-2.17518e-11
-2.69024e-10
-1.53057e-10
2.88764e-11
6.81338e-11
1.5534e-10
1.59544e-10
4.22484e-11
1.05373e-10
3.985e-11
4.46201e-11
-3.51011e-11
-1.96958e-11
-1.23664e-10
1.03716e-10
-1.12206e-10
-9.8653e-11
4.93758e-11
-1.01751e-10
6.61894e-11
-4.76402e-11
-1.0527e-10
5.50085e-11
3.53271e-11
7.57019e-11
1.79288e-11
1.74714e-10
4.86058e-11
3.74396e-11
-3.85806e-11
1.28432e-10
-1.41e-10
-2.69284e-11
-2.51384e-10
-4.84112e-11
8.81208e-11
1.2477e-10
-9.52105e-11
5.14033e-11
2.28354e-10
1.37907e-10
1.15194e-10
-5.30126e-11
-1.00007e-10
-1.84662e-10
-1.3849e-10
-5.53516e-11
-5.87819e-11
-2.01759e-10
-1.36458e-10
-3.32753e-11
1.0454e-10
9.22397e-11
-3.31021e-11
5.36478e-11
5.90985e-11
-8.24416e-11
1.25021e-11
-3.79151e-11
-5.25765e-11
9.01318e-12
-6.22359e-12
2.27258e-10
1.40552e-10
-1.54027e-10
-7.07837e-11
-7.97481e-11
1.81224e-11
-7.14196e-11
1.16766e-10
3.25032e-10
3.62623e-11
-8.17756e-11
-7.3119e-11
-3.81703e-11
-5.87152e-11
-2.89372e-11
-1.0615e-10
-1.15371e-11
2.77041e-10
1.00934e-10
9.5767e-11
1.42183e-10
-9.0198e-11
3.08645e-11
6.73274e-12
-3.54624e-11
-2.17999e-10
8.48711e-11
1.72028e-10
-3.83556e-11
1.70119e-10
-1.78709e-12
1.42727e-10
-1.05302e-10
7.49615e-11
2.34672e-10
-6.96247e-11
8.23921e-11
1.29534e-10
-2.11214e-10
-1.37992e-10
-2.29835e-10
1.10104e-10
1.68186e-10
1.59158e-10
1.3759e-10
5.41843e-11
1.19208e-10
6.77768e-11
-2.62341e-11
-5.09319e-11
-7.33388e-11
-1.91705e-10
-1.55626e-10
-1.67393e-10
-5.22397e-11
-1.84647e-11
-2.35116e-10
3.51794e-11
1.44984e-10
5.69075e-11
-3.68079e-12
1.40892e-10
-6.65445e-11
1.52177e-10
-1.36955e-10
3.5339e-11
1.43762e-10
-9.24577e-11
-6.89431e-11
-5.10394e-11
-1.35405e-10
-2.89578e-10
-2.41688e-10
-1.09924e-10
9.42446e-11
3.0073e-10
2.67281e-10
3.20328e-11
1.37668e-11
2.19975e-11
-2.26598e-11
-7.29989e-11
-2.0495e-10
9.42913e-11
6.83875e-11
-1.45956e-10
5.06434e-11
-6.38796e-12
7.04089e-11
1.89302e-10
-2.99261e-12
-8.96762e-11
1.7913e-10
5.57984e-11
2.04438e-10
-1.91624e-10
1.11457e-11
8.72211e-11
-1.07527e-10
-1.15921e-10
-1.67168e-10
-1.88412e-10
-4.28361e-11
9.51965e-11
3.25988e-11
3.25224e-11
8.53331e-11
6.38863e-11
4.98016e-11
-1.07105e-10
1.60932e-11
-7.34039e-11
-5.58703e-11
4.47069e-11
-2.27211e-10
-9.95114e-11
-1.27562e-10
-2.19156e-10
1.14644e-11
2.85394e-11
-9.68181e-11
2.90406e-11
3.71378e-11
2.65357e-11
-2.40061e-11
-1.58805e-10
-1.74084e-11
-8.53839e-11
-6.74081e-11
-5.92734e-11
-5.81892e-11
8.20842e-11
2.33868e-12
6.5862e-11
-4.21732e-11
-1.2689e-10
-2.2612e-10
-1.07222e-10
4.37361e-11
1.90523e-10
-1.65336e-12
-3.30414e-11
-3.60734e-11
-1.33241e-11
2.19417e-10
5.61919e-11
2.12413e-10
-5.83861e-11
7.99939e-11
2.42489e-10
1.21605e-11
2.54438e-11
-8.44103e-11
1.27307e-12
1.35628e-10
9.51774e-11
1.15368e-10
9.42359e-11
2.07582e-10
3.95853e-10
2.78926e-10
4.32687e-10
4.86803e-10
6.8885e-10
1.12377e-09
1.70806e-09
2.50763e-09
3.73596e-09
5.89745e-09
8.93123e-09
1.42303e-08
2.23635e-08
3.44614e-08
5.34585e-08
8.29851e-08
1.28636e-07
2.0018e-07
3.10461e-07
4.81951e-07
7.48674e-07
1.16274e-06
1.80588e-06
2.80455e-06
4.35439e-06
6.76246e-06
1.0498e-05
1.63008e-05
2.53028e-05
3.92855e-05
6.0978e-05
9.46716e-05
0.000146922
0.000228051
0.000353956
0.000549612
0.000853024
0.00132487
0.00205817
0.00319537
0.00496218
0.00771896
0.0119876