/*--------------------------------*- C++ -*----------------------------------*\
| =========                 |                                                 |
| \\      /  F ield         | OpenFOAM: The Open Source CFD Toolbox           |
|  \\    /   O peration     | Version:  2412                                  |
|   \\  /    A nd           | Website:  www.openfoam.com                      |
|    \\/     M anipulation  |                                                 |
\*---------------------------------------------------------------------------*/
FoamFile
{
    version     2.0;
    format      ascii;
    arch        "LSB;label=32;scalar=64";
    class       volScalarField;
    location    "0.0025";
    object      ddt0(rho,e);
}
// * * * * * * * * * * * * * * * * * * * * * * * * * * * * * * * * * * * * * //

dimensions      [1 -1 -3 0 0 0 0];

internalField   nonuniform List<scalar> 
180000
(
2.66628e-06
1.41275e-05
-1.02277e-05
-1.17075e-05
4.43656e-05
2.36723e-05
1.69619e-05
-5.36038e-06
-3.70052e-05
-8.08189e-06
-3.03953e-05
-1.71323e-05
2.71048e-06
1.51488e-05
4.70758e-06
2.18337e-05
8.43749e-06
-4.08405e-05
-5.82205e-05
-3.86237e-05
-2.1196e-05
-3.77267e-06
-1.69139e-06
-3.80472e-05
-1.74491e-05
3.12505e-05
3.52572e-05
2.19776e-05
-9.48838e-06
-2.39283e-05
3.55492e-06
7.38648e-06
-8.83877e-06
-3.93767e-05
-4.96156e-05
-3.391e-05
1.52493e-05
-7.76108e-06
-3.2466e-05
-4.4379e-06
-6.25847e-05
-5.88566e-05
-2.6112e-05
-5.95174e-07
7.05171e-06
1.33841e-06
1.05974e-05
-1.99203e-05
-8.11058e-06
-8.91752e-06
-1.10344e-05
-1.19417e-05
-5.99668e-06
-2.70222e-05
-3.37852e-05
2.41006e-05
2.9289e-05
3.56016e-05
2.19351e-05
1.66598e-05
1.12425e-05
-3.18394e-05
-4.49515e-06
6.39719e-06
3.0742e-05
2.42995e-05
-4.88377e-06
5.68489e-06
2.31025e-05
-6.52028e-06
1.79805e-05
3.06596e-05
5.45388e-05
9.39003e-06
-5.82925e-06
-5.51115e-05
-3.36426e-05
-1.6177e-05
-2.76708e-05
-5.20477e-05
-1.54005e-05
9.35058e-06
4.34629e-05
-3.28745e-05
1.32587e-05
3.34137e-05
2.25921e-05
1.19124e-05
2.48945e-05
-1.75785e-05
-2.72373e-05
-1.00322e-05
1.33759e-05
-9.03071e-06
-3.76994e-05
-2.76682e-05
-2.19263e-05
2.34632e-06
-2.62953e-05
-7.39128e-06
-2.43968e-05
-3.71674e-05
-3.32302e-05
-1.18584e-05
-1.77904e-05
9.66814e-06
3.62715e-05
4.35823e-05
3.8935e-05
8.08251e-05
6.55305e-05
4.53245e-05
1.94998e-05
1.18652e-05
3.87804e-05
2.18542e-05
1.53233e-06
2.05757e-05
4.9549e-05
7.91388e-05
3.07405e-05
6.53868e-05
0.000126039
7.61385e-05
-7.46155e-06
-2.70962e-05
1.21668e-05
-1.38508e-05
-6.64388e-06
-1.7275e-06
-2.86641e-05
-3.53853e-05
-3.38006e-05
-3.3485e-05
-4.29629e-05
2.46016e-05
3.79025e-05
1.89687e-05
4.12644e-06
-4.4466e-05
-2.42102e-05
-7.78187e-06
-2.11147e-05
-2.93202e-05
7.83832e-06
7.23444e-06
2.87776e-07
2.19629e-05
2.03134e-05
1.49399e-05
1.53353e-05
1.53502e-05
1.70471e-05
5.93698e-06
-1.23202e-05
-3.88487e-05
-5.78291e-06
5.57771e-05
4.7989e-05
3.21851e-05
2.79896e-05
9.18708e-06
1.7202e-07
9.7777e-06
-5.60454e-06
-2.27829e-05
1.44938e-05
3.63764e-05
2.1355e-05
7.99924e-05
4.13966e-05
3.28937e-05
2.94934e-05
2.67424e-05
3.85898e-05
3.07235e-05
-1.34067e-06
9.93489e-06
5.45929e-06
-1.47653e-05
-7.38304e-07
2.03248e-05
3.09566e-06
-1.8097e-05
-7.44036e-06
2.6404e-05
1.74647e-05
5.43964e-07
-1.2025e-05
-8.61831e-06
-1.8582e-05
-5.29852e-05
-7.05039e-07
-1.61853e-05
-3.3332e-05
-4.53391e-05
-4.21386e-05
-2.56789e-05
1.16736e-05
-1.15835e-05
-1.94305e-05
-6.3859e-05
-6.02586e-05
-3.7071e-05
-5.0783e-05
-3.2654e-05
-9.89386e-06
2.28631e-05
-1.59425e-05
4.22085e-06
-2.2465e-05
-1.93756e-05
-3.21305e-05
-1.94986e-05
1.23485e-05
-3.36303e-05
-2.51073e-05
-1.66628e-05
-3.83839e-06
1.77411e-05
-8.68778e-07
-3.21611e-05
-1.73344e-05
-3.67358e-05
2.15054e-05
-2.83321e-05
-2.74052e-05
-9.08388e-06
5.11728e-09
2.39505e-06
2.52208e-05
-3.03618e-05
-2.92865e-05
-6.40176e-06
-2.91358e-05
-1.38942e-05
-1.41136e-05
-2.03251e-05
-9.6003e-06
-2.91365e-05
2.49946e-05
-6.89512e-07
-1.35898e-05
-3.90296e-05
2.14585e-05
1.44153e-05
4.01258e-06
2.36986e-05
9.89212e-06
4.08266e-05
4.17552e-05
2.05579e-05
1.6618e-05
1.87804e-05
7.98209e-05
6.57024e-05
4.33088e-05
3.41628e-05
-1.36391e-05
-3.0272e-05
-3.08804e-05
3.52e-05
7.60886e-05
8.91056e-05
8.17839e-05
0.000126974
0.000156616
0.000336904
0.000543514
0.00090766
0.00143053
0.00238158
0.00380087
0.00603738
0.00973308
0.0155788
0.025042
0.0402992
0.0648763
0.104414
0.168189
0.270748
0.436217
0.702658
1.13286
1.82614
2.94701
4.756
7.68691
12.4301
20.1546
32.7294
53.4643
87.641
145.715
243.845
420.466
717.454
1276.76
2096.31
-1.30159e-05
-5.4289e-05
-3.10398e-05
-2.77753e-05
2.85795e-06
-1.47614e-05
4.85964e-06
1.54591e-05
2.05906e-05
2.26542e-05
2.09133e-05
2.97815e-05
3.3516e-05
-1.67301e-05
-3.19745e-05
-2.1692e-05
-4.62744e-05
-3.0361e-05
1.38793e-05
-1.23539e-05
-1.69046e-05
-1.41675e-06
-9.9326e-06
1.35034e-05
1.10394e-05
1.55874e-05
-1.59387e-05
-2.93918e-05
-2.78971e-05
-3.8748e-05
-2.44108e-05
-4.19448e-05
-4.88932e-05
-2.05251e-05
-1.14451e-06
-2.06558e-05
-4.37589e-05
-1.49091e-06
3.21277e-06
9.08511e-06
-1.82658e-05
-9.66643e-06
-2.27582e-05
-7.68695e-06
1.21016e-05
1.26369e-05
-8.04466e-06
7.31065e-06
2.2772e-05
-3.01213e-05
-6.50512e-05
-1.54667e-05
-4.61528e-05
-1.19124e-05
-1.93675e-05
-5.78634e-05
-4.12721e-05
-2.48052e-05
-3.57261e-05
-5.30014e-05
-3.55622e-05
-2.95675e-05
-4.10933e-05
-5.85718e-06
2.39997e-05
-9.97706e-06
-9.57808e-06
1.30434e-05
-1.14926e-05
1.3065e-06
-1.30986e-05
9.97965e-06
1.63405e-05
-6.14293e-06
2.01956e-05
-6.19585e-07
-1.47423e-06
4.79972e-05
3.1227e-06
-2.29876e-05
9.19202e-06
1.27189e-05
2.10824e-05
3.56868e-05
2.37431e-05
3.09111e-05
3.64855e-05
-8.86136e-07
1.9978e-05
3.7439e-05
4.26793e-05
3.63227e-05
5.86458e-05
6.79509e-05
4.33932e-05
9.73227e-06
-9.00518e-06
7.69523e-06
-5.20557e-06
-6.43244e-05
-5.85602e-05
-1.86031e-05
-1.39307e-05
-2.13429e-05
-7.35012e-06
-1.71124e-05
5.354e-06
7.62024e-06
-7.06471e-06
-2.73301e-05
1.87369e-05
5.60946e-05
4.49199e-05
2.10274e-05
-2.43312e-06
1.29509e-07
-5.53366e-06
-8.17123e-07
-2.16138e-05
-7.30026e-05
-1.49622e-05
-2.63241e-05
1.24991e-05
-3.5272e-06
-9.4509e-08
-2.86152e-05
-9.16564e-06
2.75717e-05
1.41327e-05
5.32263e-06
1.40286e-05
-2.59169e-06
3.09241e-05
7.53362e-06
4.55413e-05
5.62594e-05
3.11804e-05
4.95829e-05
2.63725e-05
1.13222e-05
-2.34883e-05
-3.8697e-05
-2.27943e-05
4.96013e-07
-2.48124e-05
-2.0717e-05
1.02936e-05
1.04903e-05
-1.93098e-05
-2.48641e-05
2.17988e-05
7.59395e-06
-6.91345e-06
-6.52619e-05
-4.90551e-05
2.15388e-05
2.14536e-05
6.52315e-06
-2.54373e-05
-3.13644e-05
-2.35901e-05
-2.18635e-05
-5.76001e-05
-3.45444e-05
7.06855e-06
-2.61714e-05
-5.48831e-05
-4.39423e-06
-3.36417e-05
-2.52437e-05
1.11261e-05
-1.91557e-05
-2.24459e-05
-5.753e-05
-4.51513e-05
-3.3074e-05
-3.13007e-05
-2.82713e-05
-2.46358e-05
-3.30823e-05
-5.49804e-05
-7.93792e-05
-2.238e-05
-5.18477e-05
-3.919e-05
-2.4199e-05
-1.65806e-05
-2.56738e-05
3.81772e-06
4.65278e-05
8.53672e-05
1.87977e-05
2.0111e-05
5.56975e-05
1.02158e-05
2.10511e-06
1.85982e-05
9.11968e-06
2.14465e-05
4.67164e-05
3.2468e-05
4.19024e-05
5.04289e-05
5.13713e-05
-7.26733e-06
3.70708e-05
-2.03912e-05
-6.33077e-05
-2.69665e-05
-1.98942e-05
-1.99699e-05
-6.67113e-07
-1.76046e-05
-2.15941e-05
-4.8246e-05
-3.58743e-05
-2.38794e-05
1.86674e-05
1.17977e-05
5.8318e-07
4.53074e-05
4.61907e-05
2.66893e-05
-3.56379e-05
-7.50897e-05
-4.21442e-05
-3.1278e-05
-2.75542e-05
-4.37396e-06
6.29508e-05
5.58986e-06
6.78815e-06
-1.01414e-05
-1.47811e-05
-5.63069e-05
-1.83405e-05
-3.64555e-06
2.23391e-05
4.76939e-06
6.22124e-07
6.27692e-06
1.87775e-05
1.97492e-05
1.30412e-05
-4.35725e-06
9.32776e-06
-1.63518e-05
-3.17955e-06
-5.52653e-05
9.6799e-06
5.32274e-05
4.18882e-05
1.69501e-05
2.14175e-05
3.58427e-06
3.00524e-05
-3.07776e-05
1.69241e-05
1.93173e-05
6.72469e-05
3.69514e-05
4.62039e-05
2.75195e-05
8.75407e-05
0.000100174
0.00017941
0.000216251
0.000343672
0.00054959
0.000911047
0.00144337
0.00226604
0.00355484
0.00566502
0.00912923
0.0146844
0.0235609
0.0378341
0.0608559
0.0977742
0.157171
0.252424
0.405658
0.65158
1.04739
1.68287
2.70595
4.3497
6.99902
11.2615
18.1509
29.2756
47.3887
76.8476
125.663
206.503
345.853
575.104
982.23
1595.38
1.3447e-05
1.44924e-05
4.09144e-05
-4.01376e-06
4.81801e-06
2.40787e-07
3.80832e-06
-3.4442e-05
-1.49744e-06
-5.43724e-06
-2.66269e-05
-1.36289e-05
6.63275e-06
2.72295e-05
-8.07147e-06
2.84793e-05
3.19922e-06
-4.06187e-05
1.30814e-05
6.36127e-05
5.67133e-05
6.96094e-06
2.40953e-05
-8.92684e-06
-1.8517e-05
-2.06663e-05
-2.13027e-05
-2.75677e-05
-4.87286e-05
-2.11737e-06
-2.69317e-05
-3.11445e-05
-6.14392e-05
-3.8196e-05
-1.93633e-05
3.87837e-06
4.22907e-06
-5.18125e-05
-3.63752e-05
-4.71039e-05
-3.64895e-05
-3.41607e-05
-2.96701e-05
-4.27249e-05
-3.49733e-05
-5.47933e-05
1.28445e-05
3.93394e-05
4.37573e-05
5.55959e-05
2.89848e-05
4.0739e-05
4.65755e-05
8.22907e-05
4.00662e-05
1.88819e-05
3.1122e-05
5.8717e-06
-1.72671e-06
3.12608e-05
-4.50195e-07
1.43031e-05
1.01452e-05
1.48176e-05
5.47612e-06
2.88129e-06
-2.7739e-06
-3.15789e-05
-3.6073e-05
-4.5302e-05
-5.83896e-05
-5.9137e-05
-5.98292e-05
-4.65746e-06
1.14252e-05
1.56884e-05
1.2152e-05
-2.77322e-05
-4.4043e-05
5.1076e-06
-8.43104e-06
-2.98351e-05
-1.65345e-05
-2.41665e-05
1.28569e-07
-3.39318e-05
-3.98463e-05
-6.22667e-05
-3.37682e-05
-5.74704e-05
-4.32487e-06
3.89885e-05
5.55237e-05
4.11941e-05
3.13895e-05
6.23135e-05
7.41063e-06
4.80879e-05
6.43427e-05
3.3789e-05
1.76949e-05
7.11757e-06
1.87919e-05
-1.73461e-05
-5.65716e-05
2.54186e-05
4.88546e-05
3.37191e-05
1.45972e-05
7.03529e-05
5.61535e-05
2.02765e-05
4.29654e-05
2.47456e-05
1.40771e-05
-3.12919e-07
4.72245e-05
-4.55124e-06
-3.1806e-05
-3.33002e-05
-2.74884e-05
2.12936e-05
1.18371e-05
3.43528e-06
-1.15817e-05
-2.58146e-05
1.18647e-05
-3.39375e-06
-5.30483e-06
-1.28057e-05
2.39131e-05
2.29467e-05
-6.34194e-06
1.08973e-05
-1.30906e-05
-3.20811e-05
-4.95995e-05
-5.7729e-06
6.59617e-05
3.22823e-05
-2.14552e-05
5.52411e-05
1.74068e-05
-1.00956e-06
-9.22176e-07
-1.01232e-05
-1.31225e-05
-4.69707e-05
4.08597e-06
1.38612e-05
-1.111e-05
-4.7565e-05
-6.05513e-05
-4.40574e-05
1.62925e-05
-1.85103e-06
-1.4253e-05
-4.40566e-05
-1.89338e-05
-1.57518e-05
-2.00054e-05
-3.47571e-05
1.26418e-05
-8.94443e-06
-1.64847e-05
-2.77651e-05
-1.34511e-05
5.90811e-06
1.07513e-05
2.00872e-05
4.81264e-05
-1.10854e-05
2.91515e-05
2.92619e-05
3.45333e-05
1.69182e-05
-2.73901e-05
9.21383e-06
-3.58539e-07
1.71542e-05
6.39454e-06
-1.42873e-05
-1.24757e-05
-1.85216e-05
-4.32005e-05
-7.44877e-05
-2.56455e-05
-3.43113e-05
-1.61344e-05
-3.48323e-05
-1.80893e-05
-4.40063e-06
-3.1074e-05
-1.13538e-05
8.48575e-06
-3.0924e-05
-3.51359e-05
4.27057e-05
5.36304e-05
1.26234e-05
3.84579e-05
2.03818e-05
-3.18758e-05
-4.27154e-05
-5.69443e-05
-3.57836e-05
3.3667e-06
4.466e-05
4.88681e-05
1.58752e-05
1.47192e-05
-1.03421e-05
9.75234e-06
1.69002e-05
1.6762e-05
3.73561e-05
3.79305e-05
-5.45414e-06
-1.2953e-05
1.88419e-05
-4.16346e-05
-2.73456e-05
2.22333e-05
-8.46216e-07
2.732e-05
5.80362e-05
4.77545e-05
1.0962e-05
-2.5379e-05
-3.64937e-05
-5.81685e-05
-1.03636e-05
-1.45399e-05
3.69798e-05
3.68585e-05
1.30623e-05
-6.72016e-05
-5.71744e-05
-1.36267e-05
-7.42899e-06
-1.98089e-05
-2.41014e-05
-2.96337e-05
-2.7314e-05
-3.62686e-05
1.99392e-05
1.88371e-05
-1.35742e-07
-2.24609e-05
-2.68424e-05
-3.06625e-05
-5.95024e-05
-8.02827e-05
-3.61648e-06
-2.75424e-06
4.90048e-06
4.36405e-05
2.22961e-05
1.94414e-05
5.35084e-05
5.39132e-05
7.71759e-05
7.2809e-05
4.57223e-05
8.43809e-05
0.0001365
0.00021732
0.000302008
0.000511614
0.000810256
0.00123428
0.00202739
0.00324235
0.00510539
0.00821626
0.0132216
0.0212112
0.0339247
0.0544041
0.0871567
0.139667
0.223727
0.358474
0.574015
0.919771
1.47277
2.35968
3.77877
6.05587
9.70106
15.5607
24.9582
40.1425
64.5651
104.558
169.488
279.911
455.843
769.099
1225.17
4.98919e-06
-9.04515e-06
-3.37927e-05
-1.70066e-05
-2.59606e-05
-5.86547e-06
-1.15783e-05
3.70153e-05
2.38786e-05
3.84726e-05
3.67368e-05
3.97245e-05
5.54751e-05
4.29796e-05
7.45238e-06
1.85507e-05
3.51024e-05
6.20338e-05
1.65783e-05
-5.31226e-06
-2.02863e-05
8.75672e-06
1.22597e-05
2.34295e-05
7.2762e-07
4.01676e-05
3.5018e-05
-3.20876e-06
3.31969e-05
-4.65273e-07
6.54117e-06
2.03058e-05
-2.5508e-05
-1.38639e-05
-2.4629e-05
5.93965e-06
-1.26964e-05
-1.57394e-05
-3.7217e-05
-7.7653e-05
-7.31459e-05
-3.60297e-05
6.98692e-06
-6.67592e-06
-3.22109e-05
-6.80016e-06
-5.61704e-06
1.27622e-05
3.56724e-06
2.396e-05
9.15144e-06
-2.27272e-05
-7.33646e-06
-7.49412e-06
-1.94991e-05
1.85856e-05
3.12834e-05
-2.69973e-05
-3.71955e-05
3.24532e-06
-1.9418e-05
3.44447e-05
0.000101802
5.42852e-05
3.01198e-05
2.68802e-05
2.8564e-05
-1.60759e-05
-2.38153e-05
5.24834e-06
1.84337e-05
-1.29667e-05
-1.8288e-05
8.35801e-06
-3.9324e-06
2.60804e-05
3.90025e-06
-2.25736e-05
-2.42396e-05
-2.8044e-05
-2.65716e-05
-7.25046e-05
-0.000101937
-6.49652e-05
2.58217e-05
1.23127e-05
-8.43153e-06
-3.22598e-05
-2.04914e-05
-5.47792e-05
-8.60432e-05
-8.13688e-05
-5.97199e-05
-3.13606e-05
-3.82315e-05
-3.91133e-05
-5.10666e-05
-5.52658e-06
-2.34379e-05
3.72737e-05
5.07076e-06
2.77334e-05
3.49252e-05
1.48022e-05
3.13162e-05
1.24434e-05
3.0739e-05
3.14514e-05
-1.70593e-05
-1.1937e-05
-1.99876e-05
1.56809e-08
-9.18806e-06
9.76033e-06
7.96889e-06
2.75148e-05
-2.89528e-05
-3.66445e-05
-3.53713e-05
8.85352e-06
-1.20291e-05
-4.07636e-05
-9.64211e-06
2.98383e-05
4.35911e-05
8.83861e-06
-5.61755e-05
-1.66299e-05
5.02312e-06
-3.3072e-05
-7.04045e-05
-4.354e-05
-2.99204e-05
3.26911e-05
2.67945e-05
-1.36863e-05
-3.34633e-05
-5.08789e-05
-3.04329e-05
-2.49882e-05
-4.60428e-06
-3.80679e-05
-6.79383e-05
-2.41573e-05
-2.61243e-06
-2.9711e-05
-1.06151e-05
-5.41398e-05
-9.24978e-05
-8.67085e-05
-5.37387e-05
-4.17067e-06
2.07055e-05
4.09922e-05
4.50704e-05
3.88135e-05
1.21973e-05
1.07836e-05
2.47943e-05
-1.81013e-05
-1.74959e-05
-3.88229e-05
-3.30052e-06
1.37002e-05
-2.08857e-05
-7.57026e-06
-3.65097e-05
-5.92607e-05
-3.73557e-05
-4.62729e-05
-1.21564e-05
8.44294e-06
5.01067e-05
1.44097e-05
9.94925e-06
-1.33063e-05
5.45687e-06
-3.29159e-06
1.30206e-05
2.44256e-05
2.69019e-05
1.6482e-05
6.50067e-05
7.60202e-05
9.66481e-05
4.16475e-05
4.40896e-05
4.66004e-05
6.49094e-05
7.19525e-05
3.33515e-05
3.51479e-05
1.52783e-05
2.50864e-05
1.07608e-05
1.72829e-05
3.11423e-05
4.69823e-05
-1.09596e-05
2.16798e-05
-1.47513e-06
-2.93986e-05
-4.55522e-05
-6.50903e-05
-4.76173e-05
-4.22578e-05
-3.8482e-05
-3.99086e-05
-6.69172e-05
-0.000106255
-7.76366e-05
-7.90681e-05
-2.95541e-05
-5.50556e-05
1.18939e-05
1.53082e-05
3.26185e-06
-3.0696e-06
-8.68045e-07
-1.74363e-05
-7.5667e-06
7.57616e-06
1.97946e-05
-1.7521e-05
7.29508e-06
-3.38818e-05
-1.13476e-05
1.99107e-05
-5.77581e-05
-2.00737e-05
-3.71686e-06
-3.55358e-05
-2.03212e-05
5.10824e-06
-8.18296e-06
9.32262e-06
2.53264e-05
3.47033e-05
1.93176e-05
4.05838e-05
-2.23377e-05
2.18928e-05
1.26663e-05
3.3454e-05
4.72971e-05
8.0868e-06
1.92346e-05
2.23893e-05
-2.38188e-05
1.65628e-05
1.67214e-05
-4.04437e-05
-6.80345e-05
-3.22919e-05
-3.05645e-05
-4.84889e-07
-1.62661e-05
-5.90949e-05
-1.74202e-05
-4.96917e-05
-3.2805e-05
4.14378e-06
2.61581e-05
2.42988e-05
3.93205e-05
0.000115958
0.000192894
0.000308111
0.000413397
0.00071485
0.00110635
0.00176445
0.00284716
0.00450567
0.00723877
0.0115018
0.0182748
0.0292249
0.0467471
0.0746462
0.11926
0.19049
0.304357
0.485808
0.775827
1.23808
1.97663
3.15364
5.03453
8.0318
12.8264
20.4717
32.746
52.3154
84.059
134.837
220.203
352.752
587.21
915.695
7.70276e-06
-5.02646e-06
-3.22927e-05
-2.5096e-05
-2.14347e-05
-7.01067e-05
-4.52734e-05
-3.40187e-05
-4.92253e-05
-2.19216e-05
5.49659e-05
7.91186e-05
5.94934e-05
4.97965e-05
3.19959e-05
1.21707e-05
-2.74863e-05
-9.66197e-06
2.96416e-05
-3.29103e-05
-2.63744e-05
-3.42835e-05
-8.25091e-05
-3.95869e-05
-1.40482e-05
-4.06504e-06
8.11408e-06
-4.95302e-05
-1.52908e-05
2.42354e-06
-3.43466e-05
-3.47765e-05
-2.78658e-05
-9.18431e-06
5.60474e-05
6.73294e-05
4.84292e-05
8.74729e-06
-1.47988e-05
4.36424e-05
1.62437e-05
-6.38835e-06
5.92167e-06
-1.4808e-05
-2.06853e-05
-3.63775e-05
-4.11894e-05
-4.20204e-05
-7.90963e-05
-3.32316e-05
3.53379e-06
-1.35271e-05
-4.26177e-05
3.77914e-05
6.60717e-05
5.55755e-05
1.91733e-05
2.43512e-05
3.84059e-05
4.69993e-05
1.20108e-05
-2.56551e-05
2.10321e-05
9.58819e-06
2.7086e-05
8.9634e-06
-2.5249e-05
1.56361e-05
6.69352e-05
3.87563e-05
5.92802e-05
6.76005e-05
2.34628e-05
-6.78685e-07
2.50872e-05
-1.82032e-05
-1.96657e-05
-4.75662e-05
-1.82621e-05
2.2742e-05
-7.55282e-06
-1.89461e-05
-1.1069e-05
-2.4249e-06
-3.92171e-06
2.07565e-05
1.96297e-05
1.98576e-06
2.52522e-05
-6.176e-06
-2.44927e-05
2.61629e-05
3.56675e-05
-2.65017e-05
-8.44455e-06
2.90672e-05
1.83697e-05
6.03096e-05
3.24567e-06
-5.31673e-05
-1.39487e-05
2.85012e-05
5.29292e-05
7.75616e-06
-4.77865e-05
-4.29822e-05
-1.23412e-05
-2.06054e-05
-1.76371e-05
-1.17299e-06
-5.40397e-06
2.35068e-05
1.92201e-05
-5.65581e-07
-1.18911e-05
-3.20327e-07
-3.21014e-05
-9.88016e-06
-1.85134e-05
-4.60128e-05
3.59926e-06
1.48354e-05
1.67411e-05
6.77503e-05
7.20954e-05
4.70212e-05
6.65672e-05
7.31334e-05
7.08147e-05
3.34413e-05
5.28809e-05
1.43033e-05
6.0702e-05
5.4605e-05
2.03854e-05
1.63059e-05
2.6434e-06
-3.26135e-06
2.17507e-05
1.37286e-05
-3.05058e-05
-2.45883e-05
2.23115e-06
-1.63356e-05
-2.60791e-06
-3.81819e-06
-8.21338e-07
6.56043e-06
1.72435e-05
1.96984e-05
-1.40743e-05
-1.92898e-05
-7.86196e-06
-5.98515e-06
-2.95004e-05
5.08447e-05
2.50937e-05
1.48063e-05
1.42145e-05
1.97979e-05
-8.24855e-06
1.27755e-06
5.54893e-06
1.20997e-05
2.70806e-06
5.61214e-05
6.47305e-07
4.21955e-05
1.92468e-05
-2.20205e-05
1.24455e-05
-1.20345e-05
-5.54205e-05
-4.52769e-05
1.16578e-05
-3.89452e-06
1.41859e-06
-2.06425e-05
-3.82421e-05
-2.38283e-05
-5.50658e-05
-3.33811e-06
-2.10304e-05
6.5172e-06
2.54306e-05
-3.24455e-07
-1.47853e-05
3.1498e-05
1.04498e-05
-1.22408e-05
-6.49435e-05
-4.50333e-05
-2.72376e-05
9.57994e-06
6.81018e-06
-1.65625e-05
7.97033e-06
-1.68484e-05
-3.36961e-05
-5.00284e-05
2.38428e-05
2.63493e-05
8.52695e-07
1.21047e-05
9.94112e-06
1.68644e-05
-4.48462e-05
-1.67568e-05
1.57721e-05
5.00781e-05
3.13969e-05
-1.4199e-05
2.34455e-05
2.911e-06
-1.26379e-05
-3.14294e-05
1.55313e-05
3.68014e-05
4.18225e-05
2.04703e-06
-2.90659e-05
4.85546e-06
2.25268e-06
7.31863e-06
2.05944e-05
1.26701e-05
3.22752e-05
3.6469e-06
-1.19824e-05
3.2915e-06
3.93491e-06
1.63323e-05
2.39528e-05
1.09749e-05
1.91487e-05
-2.78841e-05
2.65285e-06
2.4048e-05
4.8453e-07
-2.67492e-05
2.78141e-05
-1.14843e-05
-2.97908e-05
1.75564e-05
-1.2217e-06
-1.96751e-06
-8.68215e-06
2.52007e-05
1.74646e-05
4.96973e-05
8.61924e-06
-6.58364e-06
-2.60993e-05
3.09277e-05
9.60229e-06
2.2774e-05
3.21826e-05
2.69544e-05
-1.33033e-05
1.57753e-05
2.1163e-05
3.65131e-05
7.02992e-05
9.38433e-05
0.000106466
5.17851e-05
9.91819e-05
0.000215328
0.000334606
0.000568323
0.000915526
0.00148949
0.00244475
0.00380207
0.00604233
0.00958745
0.015344
0.0244425
0.0389774
0.0620948
0.099003
0.157688
0.251247
0.399908
0.636861
1.01335
1.61333
2.56646
4.08462
6.49566
10.3389
16.4423
26.1981
41.6612
66.5885
106.071
171.951
272.329
448.666
686.319
-4.17573e-05
1.18326e-05
2.7016e-05
3.34704e-05
3.99624e-05
-3.32908e-05
-9.16394e-06
-1.06421e-05
2.70179e-05
6.35201e-06
-1.87393e-05
1.49344e-05
1.4971e-05
5.04271e-05
1.38741e-05
8.95722e-06
-2.17622e-05
-8.30952e-06
-1.35889e-05
1.44394e-06
-4.99584e-05
-2.40012e-05
2.07451e-06
-2.53369e-05
-9.4422e-06
-1.72615e-05
3.48113e-05
5.82308e-05
2.85822e-05
4.00213e-05
-5.58183e-05
-1.7213e-05
4.77259e-05
1.80988e-05
4.07594e-05
1.67156e-05
-5.89302e-06
4.44323e-05
5.77809e-05
6.77636e-05
6.56667e-05
4.8589e-05
4.78155e-05
4.34167e-05
3.13121e-05
1.84113e-07
4.41604e-05
3.80665e-05
3.03829e-05
1.91824e-05
1.67005e-05
3.47105e-05
3.64027e-05
3.66751e-06
2.49525e-05
6.65198e-05
-3.59564e-05
-2.24063e-05
-1.49513e-05
-3.20987e-05
2.02034e-06
-8.20893e-06
-5.21143e-05
-4.3001e-05
-2.72796e-05
4.54265e-06
1.95893e-05
-1.94889e-05
2.40459e-05
-1.82508e-05
-7.11072e-05
-2.91615e-05
-3.6877e-06
-3.60169e-05
-3.16391e-05
4.73843e-06
-2.46047e-05
-1.66696e-05
-6.73111e-06
-4.60754e-05
-2.3259e-05
-1.52716e-06
-1.16256e-05
1.69669e-05
1.35147e-05
1.001e-05
1.00698e-05
2.76372e-05
-1.68574e-05
-1.45842e-05
2.33331e-05
2.56399e-06
8.90162e-06
3.31942e-06
1.2504e-05
-7.29212e-06
-2.73267e-05
3.23338e-06
9.32952e-06
3.14666e-05
3.47443e-05
-8.20699e-06
-1.55591e-05
5.77101e-06
1.47414e-05
8.92285e-06
-1.78986e-05
2.7429e-05
5.0371e-05
3.1867e-05
2.74789e-06
-2.02644e-05
2.7478e-05
-2.50123e-05
-2.17988e-05
-4.88686e-05
-1.07633e-07
2.38422e-05
3.56842e-05
-4.5134e-06
-3.14493e-05
-1.40696e-05
4.12112e-05
5.36189e-05
3.76898e-05
1.49553e-05
1.38235e-05
1.87502e-05
-7.57708e-06
-7.73103e-06
-2.08021e-05
-3.54784e-05
-6.37793e-06
3.3289e-06
2.73161e-06
2.41865e-05
-1.42246e-05
-2.36103e-05
-9.84472e-06
-1.96705e-05
-5.01919e-05
-2.59309e-05
-7.92272e-06
-9.96033e-06
-5.0732e-06
-2.78301e-06
-1.49506e-05
-6.44484e-06
-1.30888e-05
-9.13691e-06
-2.42733e-05
-1.46223e-05
-6.22498e-05
-4.25275e-05
-6.0648e-05
-9.09765e-05
-9.14201e-05
-2.55796e-05
9.42022e-06
-1.61891e-05
-4.27752e-05
-1.16549e-05
-8.62429e-07
2.41057e-05
4.30766e-05
2.68033e-05
1.03545e-05
3.0596e-05
5.80654e-05
5.67319e-05
-9.52816e-06
-2.82256e-06
-7.85721e-06
2.43561e-05
1.52375e-05
-1.97925e-05
1.74023e-05
1.74237e-05
2.35328e-05
-7.47537e-06
-2.90258e-05
-5.19548e-05
-2.39793e-05
-1.60782e-05
-4.01955e-05
-1.50357e-05
2.69848e-05
-6.71587e-07
1.44679e-06
-3.11967e-05
3.92979e-06
-1.60711e-05
4.82578e-07
4.47638e-05
3.76956e-05
-1.6062e-05
-2.04072e-05
-2.54623e-05
-5.77206e-05
-3.90346e-05
-3.51464e-05
-7.46332e-05
-6.24197e-05
-7.67711e-05
-5.51288e-05
-1.72473e-06
2.10851e-05
-5.78151e-06
1.53687e-05
1.98116e-05
-1.43871e-05
-2.83707e-05
-5.46679e-05
-3.4249e-05
-1.0573e-05
1.02389e-05
1.77339e-08
-3.50125e-06
-9.8458e-06
8.7743e-06
-1.04765e-05
9.57624e-06
9.35152e-06
-1.26756e-05
2.19686e-05
5.24435e-05
2.98118e-05
-3.95793e-06
-1.25272e-05
-2.97945e-05
7.37659e-06
-3.14675e-05
-2.18475e-05
-5.15821e-05
-4.27254e-05
-1.41254e-07
-1.43025e-05
-4.22849e-05
-3.84257e-05
3.93538e-05
2.4637e-05
2.03888e-05
9.83992e-06
7.88839e-06
9.90864e-06
1.53543e-05
3.76393e-05
6.49182e-06
2.30729e-05
8.78711e-05
6.46374e-05
2.54036e-05
2.23981e-05
5.40659e-05
5.95445e-05
0.000115006
0.000116297
8.95035e-05
3.82405e-05
-4.37158e-05
1.67233e-05
5.707e-05
3.61537e-06
1.69329e-05
3.88806e-05
8.2496e-05
0.000131352
0.00018239
0.000257859
0.000433992
0.000734233
0.001216
0.00198576
0.00313619
0.00495814
0.00785784
0.0126006
0.0200213
0.0318088
0.0506201
0.0804861
0.127823
0.203196
0.322716
0.512669
0.813949
1.29282
2.05172
3.25777
5.16839
8.20607
13.0164
20.6825
32.7854
52.2163
82.7911
133.55
209.869
343.11
516.695
2.64038e-05
4.28928e-05
-7.58596e-06
1.87507e-05
1.55509e-05
-2.58921e-05
2.86152e-06
1.65134e-05
1.69991e-05
1.13442e-05
2.13289e-05
7.26155e-06
3.41509e-05
1.71922e-05
-8.61662e-06
-1.73545e-05
-1.53492e-06
2.72708e-05
1.42177e-05
5.26243e-05
7.299e-05
-3.63426e-06
2.12629e-05
-1.81051e-05
-5.07168e-05
-1.29082e-05
-1.31841e-05
-1.81207e-05
-1.9867e-05
-4.12747e-05
1.15373e-05
6.60475e-06
-3.70933e-05
-4.42775e-05
-1.60535e-05
-2.39377e-05
1.16164e-05
1.75792e-05
4.95546e-06
3.83783e-05
1.35369e-05
-1.15503e-05
-6.63535e-06
-7.25335e-06
2.69836e-05
-1.97914e-05
-2.86692e-05
1.80778e-05
-2.10642e-05
-1.74372e-05
-1.66066e-05
1.81848e-06
-4.33283e-06
-8.04574e-07
-3.98704e-05
-1.9862e-05
2.95616e-05
2.77113e-05
-6.61649e-06
-4.67792e-05
-3.90584e-05
-2.26353e-05
-9.55103e-06
4.01136e-06
2.69237e-05
6.41366e-05
1.76425e-05
2.9131e-06
2.60416e-05
3.16063e-05
5.64506e-05
2.69038e-05
4.95918e-07
6.66413e-06
5.42338e-06
1.81974e-05
4.18944e-05
1.1873e-05
3.04745e-05
5.17516e-05
2.35378e-05
5.84961e-06
3.21619e-05
-2.14139e-05
1.85769e-05
-9.16786e-07
-2.20673e-05
1.65293e-05
2.13029e-05
-1.61734e-05
-9.59447e-06
6.26289e-05
5.16171e-05
2.91814e-05
7.9377e-05
5.65007e-05
-1.03033e-05
-2.44031e-05
-1.94532e-05
-6.56923e-06
3.23909e-06
1.07354e-05
6.92293e-06
-2.47961e-05
2.31425e-05
3.69567e-06
4.48642e-05
6.31274e-06
7.78883e-06
3.17253e-05
2.74367e-05
1.03072e-05
2.23964e-05
-2.96729e-05
-1.81204e-05
-4.95993e-05
-2.9556e-05
-3.86966e-05
-1.96937e-05
-1.70857e-06
-2.8123e-05
-1.30285e-05
8.11404e-06
-8.27903e-06
-4.23591e-06
-1.38752e-05
-2.76539e-05
-1.01417e-05
-2.63689e-05
-1.36154e-05
-2.15629e-05
-2.9578e-05
-2.27424e-05
-4.85979e-06
5.14264e-05
2.06581e-05
3.60996e-07
4.86731e-05
3.24412e-05
2.14286e-05
5.34432e-05
-1.27768e-05
2.43885e-05
9.02214e-06
-1.6961e-05
-3.54239e-05
-4.79621e-05
-5.16248e-05
-2.46771e-05
-2.10747e-05
7.14023e-06
-3.3264e-05
-2.69655e-05
-4.29585e-06
2.02388e-05
6.3876e-05
4.12493e-05
4.24988e-05
6.18626e-05
6.65085e-05
6.07216e-05
5.43969e-05
7.7036e-05
4.16353e-05
-8.8636e-06
3.53335e-05
8.42557e-06
2.81244e-05
2.7794e-05
3.68046e-05
-3.39178e-06
-3.15271e-05
-2.4933e-05
-6.65968e-05
-3.28358e-05
-8.22932e-07
3.16179e-05
4.48239e-05
1.6374e-05
2.82562e-05
9.68864e-06
3.23157e-05
-1.88165e-05
-2.11888e-05
4.35959e-05
5.5004e-06
6.00384e-05
4.03671e-05
1.65591e-06
2.36517e-05
3.74911e-05
1.28546e-05
2.66273e-05
3.60483e-05
-4.37579e-06
-4.25514e-05
-4.97881e-05
-1.66908e-05
2.23462e-06
1.61255e-06
-5.16134e-07
-8.8189e-06
-1.90491e-05
1.36034e-05
2.68986e-05
-1.40854e-05
-1.17499e-05
-1.62631e-05
-9.49344e-07
-5.4399e-07
7.27282e-07
-2.90464e-05
-1.33122e-05
3.01593e-05
1.39513e-05
-2.78572e-05
-5.73727e-05
-3.81822e-05
-1.66163e-05
-4.40446e-05
-5.00752e-05
1.50488e-06
-4.87343e-05
-2.27151e-05
-1.13244e-07
3.2269e-05
7.55227e-06
5.8343e-05
2.32828e-05
2.09238e-05
2.93955e-05
4.91365e-05
3.1784e-05
4.00142e-05
2.38998e-05
-1.18722e-05
1.07736e-05
1.27758e-05
2.60248e-05
-6.3447e-06
-6.32836e-05
-2.8176e-05
-3.01928e-06
8.66328e-06
9.20739e-06
1.92372e-05
2.33183e-05
-3.44382e-05
-2.75457e-05
9.5834e-08
-1.93628e-05
-3.71126e-05
-2.8268e-05
4.15908e-07
-3.85596e-05
-6.89345e-05
2.21068e-06
2.27365e-05
4.38471e-05
4.32824e-06
-2.39756e-05
9.90968e-06
2.27846e-05
-1.23085e-05
4.41094e-05
3.9193e-05
7.83495e-05
0.000147316
0.000262011
0.000434833
0.000687022
0.00101366
0.00160085
0.00247469
0.00401981
0.00637835
0.0101269
0.0160746
0.0255412
0.0405033
0.0643064
0.102023
0.161837
0.256591
0.406966
0.64496
1.02256
1.61998
2.56767
4.06638
6.44487
10.2039
16.1821
25.5957
40.6674
64.2805
103.349
161.556
262.66
390.883
-2.18008e-06
-2.91527e-07
-3.83183e-07
1.81889e-05
2.304e-06
2.02223e-05
6.10698e-06
4.95593e-05
-3.72761e-05
7.03335e-06
4.69394e-06
-1.05926e-05
-4.94236e-06
-3.64161e-06
9.46481e-06
3.58745e-05
1.22891e-05
6.29704e-06
-1.19934e-05
-4.23875e-05
-1.6313e-05
-1.8611e-05
-4.80236e-05
-2.70998e-05
-3.28981e-06
-4.56206e-05
-7.57776e-05
-1.74908e-06
2.1643e-05
1.2384e-05
2.72985e-05
4.0098e-05
2.28698e-05
1.31811e-05
6.54541e-06
1.83982e-05
6.90931e-05
6.10312e-05
2.20362e-06
7.2585e-05
3.69227e-05
1.15994e-05
-1.39941e-05
1.17607e-05
3.57539e-05
6.76246e-06
-3.11751e-06
5.49106e-05
5.04284e-05
3.16747e-05
8.77508e-06
-2.36688e-05
3.64233e-06
-1.59669e-05
-2.3074e-05
-4.28197e-05
-4.95311e-05
-2.95153e-05
-1.33751e-05
-1.59363e-05
-2.90426e-05
-2.54988e-05
-1.69809e-05
-2.06119e-06
3.75619e-05
-1.09355e-05
-2.30102e-05
1.57506e-05
9.41629e-06
2.28387e-05
7.94202e-06
2.18474e-05
-1.00058e-05
-3.01897e-05
-1.28488e-05
-4.66439e-06
-1.57492e-05
3.4791e-06
-1.92819e-05
-1.60211e-05
3.82876e-05
4.50723e-05
3.61565e-05
1.03385e-05
2.31527e-05
2.3528e-05
1.39279e-05
1.31471e-05
-6.33793e-06
-3.75698e-05
-3.80328e-05
-3.53957e-05
3.18659e-05
3.35112e-05
-3.92505e-05
3.7791e-06
7.03674e-05
7.41312e-05
2.76019e-05
-4.15859e-06
-2.07362e-05
2.40542e-05
7.0539e-05
2.1455e-05
1.76445e-05
5.91858e-06
1.83702e-05
-4.65788e-06
-1.77103e-05
-5.2263e-05
-7.26978e-05
-1.33338e-05
-2.83406e-06
3.31907e-05
3.70037e-05
5.4846e-05
5.64181e-06
-3.53855e-05
1.78764e-05
-3.27985e-05
-5.47962e-05
-1.97336e-05
2.51275e-05
1.48164e-05
-1.88491e-06
1.21008e-05
9.78572e-06
-2.81459e-05
-1.82878e-05
-3.55363e-06
1.69181e-05
3.20969e-05
3.69557e-05
-2.86466e-05
-1.96469e-05
5.19374e-06
5.95025e-05
3.83598e-05
-3.83333e-05
1.07475e-05
7.23583e-06
1.38944e-05
8.90723e-06
1.38813e-05
1.75736e-05
9.71547e-06
1.93923e-06
-2.73368e-05
-4.13127e-05
1.70592e-05
-3.423e-05
1.4815e-05
2.36307e-05
3.23387e-05
2.23574e-05
5.58802e-05
4.8267e-05
-1.54532e-05
-1.56335e-05
-1.31884e-06
2.04137e-05
-1.50608e-05
-4.17481e-05
-5.37862e-05
-5.8212e-05
-1.77224e-05
-1.17355e-05
-7.24295e-05
-1.06838e-05
1.28808e-05
-5.14542e-06
-5.44892e-05
-1.21136e-05
-4.98932e-05
-2.4286e-05
1.0569e-05
2.13047e-05
2.16692e-05
2.03698e-05
-1.16437e-05
1.21994e-05
-1.31155e-05
2.42588e-05
1.40998e-05
-4.13654e-05
-8.67244e-06
-3.09411e-05
-4.06506e-05
-7.04811e-06
-4.741e-06
-4.25538e-05
-1.73757e-05
3.00196e-05
2.21936e-05
-6.25407e-06
1.35799e-05
3.75371e-05
2.45212e-05
9.79594e-06
-3.16872e-06
-6.60028e-05
-3.45603e-05
-7.61505e-06
1.773e-05
2.58432e-05
4.67521e-06
1.4617e-05
3.24953e-05
5.84933e-05
2.19995e-05
-7.87144e-06
2.11694e-07
-3.17654e-05
-3.14597e-05
9.51853e-06
-8.33746e-06
-2.39737e-05
8.12151e-06
3.9596e-05
2.12354e-05
3.45174e-05
3.72127e-05
3.55734e-05
4.68419e-05
4.87014e-05
6.9926e-05
0.000104018
1.89927e-05
-1.31582e-06
-1.6329e-05
2.19716e-06
-7.67911e-06
-2.3531e-05
7.22465e-06
6.47599e-05
6.37955e-05
2.56776e-05
2.57576e-05
7.63055e-05
4.26608e-05
6.96435e-06
2.68664e-05
3.54483e-05
2.14205e-05
7.88239e-06
3.10522e-05
2.23885e-05
4.86038e-05
1.06692e-05
1.93906e-05
2.85449e-05
1.49973e-05
-1.06218e-05
8.23884e-06
2.75776e-05
-3.4087e-05
4.41714e-06
-3.37323e-05
-1.64596e-05
-4.36703e-05
6.93852e-06
6.67461e-05
5.34095e-06
5.65456e-06
4.38469e-05
3.78642e-05
8.59177e-05
9.84307e-05
0.000145224
0.00027365
0.000447738
0.000797205
0.00126399
0.00198419
0.00318113
0.00509304
0.00804027
0.0127848
0.0202295
0.0320615
0.0508541
0.0805149
0.127525
0.201925
0.319788
0.506031
0.801179
1.26753
2.00637
3.1732
5.02254
7.94109
12.576
19.8612
31.5034
49.69
79.7084
124.157
201.063
296.664
-1.04171e-05
-6.51918e-06
2.43847e-05
1.23901e-05
3.42765e-06
4.40411e-05
2.54759e-05
3.99801e-05
3.38655e-05
4.78912e-05
1.7478e-05
-2.03717e-05
-4.91287e-05
-3.28462e-07
-9.05103e-06
-3.65546e-05
-3.80202e-05
-4.63444e-05