/*--------------------------------*- C++ -*----------------------------------*\
| =========                 |                                                 |
| \\      /  F ield         | OpenFOAM: The Open Source CFD Toolbox           |
|  \\    /   O peration     | Version:  2412                                  |
|   \\  /    A nd           | Website:  www.openfoam.com                      |
|    \\/     M anipulation  |                                                 |
\*---------------------------------------------------------------------------*/
FoamFile
{
    version     2.0;
    format      ascii;
    arch        "LSB;label=32;scalar=64";
    class       volScalarField;
    location    "0.0025";
    object      ddt0(thermo:psi,p);
}
// * * * * * * * * * * * * * * * * * * * * * * * * * * * * * * * * * * * * * //

dimensions      [1 -3 -1 0 0 0 0];

internalField   nonuniform List<scalar> 
180000
(
6.92096e-11
2.29088e-12
2.8322e-11
5.25808e-11
-1.01248e-10
-4.21938e-12
-8.72303e-11
-1.23546e-11
1.26221e-11
-2.29535e-11
1.30104e-10
5.72105e-11
-4.58197e-11
1.99107e-11
1.16873e-10
2.99733e-11
-1.32767e-11
8.42174e-11
2.2117e-10
8.37789e-11
2.38482e-11
1.02802e-11
-1.16087e-10
-6.53193e-11
8.74752e-13
1.12243e-11
-6.97853e-11
-2.72866e-11
8.86388e-13
3.96324e-11
-3.02543e-11
-1.13555e-10
-1.59262e-10
-4.02776e-11
-5.53336e-11
-7.65188e-11
-1.12107e-10
1.871e-11
8.62712e-11
-1.23039e-10
9.54364e-11
2.29336e-10
2.18239e-10
2.44026e-10
3.26917e-10
1.69746e-10
7.22711e-11
9.95703e-11
4.09093e-11
1.59229e-10
1.0183e-10
2.14954e-10
1.44279e-10
1.7088e-10
2.16226e-10
7.24055e-11
6.12116e-11
-8.95515e-11
-6.32629e-12
3.47022e-11
5.09112e-11
8.69198e-11
-1.23081e-11
9.04914e-11
4.73535e-12
4.61048e-11
5.64559e-11
2.55607e-11
-1.54903e-10
1.15291e-11
-7.44769e-11
-1.25955e-10
-5.66991e-11
5.12052e-11
-4.38621e-11
1.23369e-10
2.29051e-11
2.26243e-12
-4.50744e-11
7.52778e-11
-3.26032e-11
2.88722e-11
-1.07958e-10
2.1508e-10
9.53939e-11
-7.27296e-11
-1.32173e-10
-7.00263e-11
-6.36596e-11
7.38707e-11
1.09353e-10
1.33723e-10
4.06695e-11
4.4569e-11
5.95719e-11
1.38724e-11
-1.7039e-12
-7.56123e-11
-9.88801e-12
-4.22513e-11
-5.05296e-11
-4.52456e-11
1.61156e-11
2.6594e-11
6.0839e-11
-1.58378e-11
-9.82232e-11
-9.34427e-11
-1.57487e-10
-1.6408e-10
6.35203e-11
-5.41563e-11
-2.12321e-11
1.3876e-12
-1.33685e-10
-8.05682e-11
3.55237e-11
-1.33217e-11
-7.7865e-11
-2.57219e-10
-2.58417e-11
4.10776e-11
-1.95203e-10
-1.69471e-10
9.1333e-11
3.5733e-11
-1.32192e-11
1.01027e-10
5.81425e-11
-5.61992e-12
7.31083e-11
1.08361e-10
1.06483e-10
8.59614e-11
2.08739e-10
8.09969e-11
6.19134e-11
1.09964e-10
6.90829e-12
1.86475e-10
6.71854e-11
5.72756e-11
8.63217e-11
1.22787e-10
1.32809e-10
-3.24781e-11
1.19702e-10
1.54519e-11
-4.76173e-11
-1.31242e-10
-1.26262e-10
-7.49191e-11
-5.44642e-11
1.82548e-11
1.28099e-10
2.40268e-10
1.65492e-10
-5.78321e-11
5.10019e-12
-9.77584e-11
-6.61003e-11
6.01034e-11
6.29912e-11
1.06032e-10
1.16365e-11
4.74781e-11
2.66805e-11
-8.32019e-11
3.1271e-11
-1.18029e-10
-4.83278e-12
-1.78639e-11
-4.95459e-11
-7.85226e-11
-1.18196e-10
-1.20122e-10
-7.17857e-11
-1.08378e-10
-1.68489e-10
2.71114e-11
6.01321e-11
-7.17992e-11
-1.93489e-10
-3.24953e-11
-5.50229e-11
8.16837e-11
4.48234e-11
1.51511e-10
8.93962e-11
3.81354e-11
3.62552e-11
1.16452e-10
3.12031e-11
2.03352e-11
1.02164e-10
1.37214e-10
7.28875e-11
1.5825e-10
2.09712e-11
9.42196e-11
-1.20743e-11
1.58241e-10
2.25014e-10
7.32297e-11
1.70497e-10
9.46731e-11
9.22856e-11
-3.67448e-11
9.39716e-11
-9.35177e-11
4.04637e-11
6.56072e-11
3.16183e-11
5.59672e-11
-3.32693e-11
7.57593e-11
3.85349e-12
-1.63226e-11
-8.93122e-12
-5.28976e-11
-3.12855e-11
1.01666e-10
5.56171e-12
1.16885e-10
-4.73434e-11
8.54759e-11
6.96552e-11
1.20917e-10
-5.81005e-12
2.18685e-11
-1.02566e-10
2.8865e-11
2.84525e-11
1.02247e-12
3.75603e-12
8.82298e-11
2.28332e-12
1.0213e-10
-3.7772e-12
1.49626e-10
1.78702e-11
5.52769e-11
-3.35443e-12
5.7674e-11
-1.52052e-10
-6.85899e-11
-2.11325e-11
-1.63969e-10
-1.09251e-10
-1.77127e-10
-9.31751e-11
-5.2728e-11
-3.76317e-11
-5.96896e-11
-1.44547e-10
-9.07021e-11
-1.46154e-11
-7.21323e-11
2.43532e-11
1.43923e-10
3.05631e-10
3.32408e-10
3.65823e-10
5.75996e-10
1.22585e-09
1.96735e-09
3.23952e-09
5.03703e-09
7.99388e-09
1.27937e-08
2.0708e-08
3.3046e-08
5.29993e-08
8.53185e-08
1.37238e-07
2.20825e-07
3.55069e-07
5.70901e-07
9.18001e-07
1.47686e-06
2.37591e-06
3.82369e-06
6.15426e-06
9.90865e-06
1.59545e-05
2.56995e-05
4.13979e-05
6.67093e-05
0.000107491
0.000173245
0.000279108
0.000449624
0.00072325
0.00116239
0.00185954
0.00296521
0.00466202
0.00729357
0.0109886
0.0164862
-5.54348e-11
6.34137e-11
4.5057e-11
1.17745e-11
-7.82472e-11
-4.58142e-11
-6.7597e-11
-1.44014e-10
-7.30945e-11
-1.27816e-10
-1.75346e-10
-8.91325e-11
-9.70553e-11
6.32743e-11
8.18232e-11
8.4928e-11
1.65659e-10
7.6788e-11
-2.4709e-12
7.26264e-11
1.48325e-10
9.55242e-11
8.37706e-11
1.56673e-10
6.20595e-11
-1.68826e-11
1.28897e-10
9.47435e-11
-6.91791e-11
1.72079e-10
2.46698e-11
4.2801e-11
6.91188e-11
3.46005e-11
-4.77535e-11
-7.58754e-11
6.11939e-11
-1.22334e-10
-3.6871e-11
-4.06195e-11
4.71167e-11
5.02559e-11
1.16077e-10
2.04155e-11
1.02572e-10
9.3562e-11
1.40594e-10
3.08718e-11
1.25271e-10
4.06821e-11
1.06846e-10
9.42667e-11
2.87999e-10
1.13276e-10
1.35481e-10
1.96184e-10
2.46326e-10
1.95809e-10
9.64033e-11
6.83829e-11
4.57108e-11
3.71361e-11
5.67384e-11
8.4853e-11
1.67864e-11
-1.80431e-11
-4.15991e-11
-1.15142e-10
-1.73882e-11
-7.63898e-11
5.94459e-11
4.76262e-11
5.86218e-11
5.13501e-11
-4.44578e-11
-2.62075e-11
-2.45644e-11
-2.00224e-10
-2.25681e-10
-1.23054e-10
-1.53808e-10
-1.76328e-10
-2.13359e-10
-1.7287e-10
-1.30859e-10
-1.01402e-10
-1.11952e-10
3.69478e-11
-4.10544e-11
-3.24692e-11
-7.4521e-11
-7.56756e-11
-7.62914e-11
-2.1386e-10
-2.30016e-10
-1.63463e-11
1.2948e-10
1.09477e-10
7.80756e-11
4.19357e-11
1.09307e-10
1.34914e-10
2.45303e-10
2.17431e-10
8.27119e-11
7.82934e-11
-4.11946e-11
-5.44436e-11
-8.67075e-11
-2.69206e-11
-7.61805e-11
-2.39025e-10
-1.43254e-10
-1.49569e-11
7.18299e-11
-7.67888e-11
-8.43676e-11
-1.01392e-10
-2.81267e-11
1.39747e-10
4.93075e-11
7.13898e-11
-5.71367e-11
-5.15332e-11
-3.49444e-11
-2.2311e-11
-3.8367e-11
-8.00746e-11
-6.20716e-11
7.41141e-12
-1.60078e-11
-1.96292e-11
-1.37995e-10
-1.01357e-11
-8.26088e-11
-1.66196e-10
-5.93106e-11
-1.42712e-10
-7.53286e-11
-9.4159e-11
8.91515e-12
4.26691e-11
-8.40172e-12
-3.47495e-11
1.73553e-10
7.71552e-11
-1.45942e-11
-5.4795e-11
-8.63349e-12
9.18441e-11
1.30544e-11
-7.93393e-11
-8.54634e-11
1.75174e-10
1.58554e-10
-2.03992e-11
2.09356e-11
1.10155e-10
2.33217e-11
3.97301e-11
-3.53167e-11
1.09607e-12
1.47878e-10
3.55773e-11
-9.30152e-11
2.61852e-11
1.48429e-10
5.61168e-11
1.78746e-10
1.71827e-10
1.14745e-10
1.34482e-10
-4.93978e-12
1.46112e-11
5.04392e-13
-1.2524e-11
3.63369e-11
6.16554e-11
1.08696e-10
7.51462e-11
9.80997e-11
1.43551e-10
8.2581e-11
8.0517e-11
-3.73143e-12
4.41099e-11
2.87981e-11
4.92522e-11
2.66548e-11
-1.14373e-11
-1.7866e-10
-3.73855e-11
4.17187e-11
-1.85865e-10
-9.81853e-11
-7.40633e-11
-4.8496e-11
6.59664e-11
-2.75652e-11
-5.6692e-11
-3.64352e-11
-1.03479e-10
-6.45882e-12
-2.01908e-11
1.38729e-10
5.40349e-12
1.17189e-10
2.05918e-10
7.14429e-11
5.14522e-11
1.02497e-11
-1.2268e-10
-4.45478e-11
-5.19893e-11
8.30102e-11
1.95508e-11
1.80326e-11
-3.61153e-11
-1.06159e-10
-1.25218e-10
-2.26161e-10
-2.15313e-10
-9.09292e-11
4.77258e-11
1.0645e-10
1.05988e-10
3.48168e-11
-6.15095e-11
-8.26544e-11
-3.03968e-10
-9.54339e-11
-1.2061e-10
-2.13325e-11
-1.25637e-11
1.5016e-10
-5.79974e-11
7.34144e-13
-1.17362e-10
-1.43693e-10
-1.21349e-11
-6.9939e-11
-9.72387e-11
-1.65365e-10
-9.33286e-11
-7.04542e-11
-1.12872e-10
-1.46137e-10
-7.34277e-11
-1.64215e-11
-6.48605e-11
-2.14074e-10
-1.29671e-10
-9.21095e-11
-6.9342e-11
5.07935e-11
-1.23984e-10
1.40084e-10
-1.85802e-12
-4.11015e-11
-1.45683e-10
1.3908e-10
8.59945e-11
4.56546e-10
5.07905e-10
9.95914e-10
1.68598e-09
2.90176e-09
4.72443e-09
7.6291e-09
1.21867e-08
1.95343e-08
3.14754e-08
5.05555e-08
8.13329e-08
1.30436e-07
2.09269e-07
3.35925e-07
5.39445e-07
8.66084e-07
1.39091e-06
2.23345e-06
3.5875e-06
5.76217e-06
9.25723e-06
1.48705e-05
2.38924e-05
3.83823e-05
6.1669e-05
9.90592e-05
0.000159123
0.000255469
0.000410019
0.000657212
0.00105241
0.00167968
0.00267235
0.00421016
0.00660103
0.0101219
0.015478
2.49836e-11
7.87458e-11
-9.35661e-11
-2.82593e-11
-9.57334e-11
-1.53092e-10
5.40408e-12
9.58887e-11
1.01855e-10
1.53377e-10
9.12954e-11
3.20163e-11
-1.85602e-10
-1.30182e-10
1.25996e-11
-1.00551e-10
-7.67545e-11
1.86363e-11
1.7276e-12
-1.46852e-10
-2.67888e-10
-8.33485e-11
-1.73836e-10
3.00501e-11
3.99969e-11
5.06344e-11
5.64153e-11
-9.97297e-12
5.05388e-11
-8.36102e-11
4.33859e-11
1.12489e-11
-1.70116e-11
3.75654e-11
-4.10904e-12
-9.2102e-11
-2.08503e-10
3.66678e-11
-4.44197e-12
5.23973e-11
5.55743e-11
4.6991e-11
9.47909e-11
1.87398e-10
7.0778e-11
1.80233e-10
5.51408e-11
-2.8026e-11
-6.04246e-11
-1.01017e-10
-2.81606e-11
-8.22024e-11
-6.1489e-11
-2.2766e-10
-1.07566e-10
-2.88817e-12
-7.39644e-11
3.71458e-11
1.90445e-11
-7.40695e-11
-1.1291e-11
5.79197e-11
8.42848e-11
-1.20361e-11
6.57014e-11
2.85146e-11
2.77005e-12
5.33562e-11
9.39195e-11
1.8482e-10
1.73028e-10
1.87493e-10
2.77593e-10
1.11228e-10
6.57982e-11
4.38449e-12
-2.47604e-11
1.85176e-10
7.55792e-11
-9.10139e-11
-1.14567e-10
-1.51441e-11
7.04925e-12
-7.52083e-13
4.89181e-11
1.17369e-10
1.01447e-10
1.8692e-10
4.8907e-11
2.30546e-10
8.39944e-11
1.78374e-11
-9.79174e-11
-7.64451e-11
-4.63387e-11
-1.13094e-10
-3.0913e-11
-4.80284e-11
-1.77153e-10
-2.04358e-10
-1.85068e-10
-7.7927e-11
-1.25997e-10
8.28658e-11
1.42549e-10
3.29328e-11
-4.97194e-11
-1.06344e-10
3.1785e-11
-1.05207e-10
-1.89736e-10
-5.37085e-11
-8.51041e-11
3.04493e-11
-7.8577e-11
-1.28487e-11
-1.04524e-10
-3.34024e-11
5.94195e-11
6.61141e-11
1.39883e-10
-1.06957e-11
-3.76441e-12
1.36095e-12
-3.97718e-11
4.73826e-11
-1.06128e-10
-2.92954e-11
-9.82515e-11
-2.48802e-11
-1.25396e-10
1.49751e-11
1.52014e-11
-1.38913e-10
3.86926e-11
2.61638e-11
9.14359e-11
-7.02588e-11
-2.33095e-10
-1.94011e-10
5.12923e-11
-7.75484e-11
4.22364e-11
9.14908e-11
-5.15747e-12
-3.62057e-11
2.68977e-11
1.42543e-10
-4.40775e-12
-3.14683e-12
1.0229e-10
1.18185e-10
8.64293e-11
9.88445e-11
-7.90568e-11
-1.22824e-10
-3.16652e-13
4.59151e-11
1.0927e-11
3.19813e-12
5.07796e-11
1.59049e-10
-1.50715e-11
-9.42828e-12
-3.71208e-11
-8.3487e-11
-1.90699e-11
-8.39453e-11
-2.03462e-11
-7.99871e-11
-1.92954e-10
-1.09715e-10
-2.07949e-10
-4.22452e-11
-1.27375e-10
-1.79974e-10
6.07161e-11
-5.72024e-11
-2.06476e-11
-9.56494e-11
-9.96606e-11
-5.90207e-11
-3.15136e-11
3.20579e-11
5.32957e-11
1.9865e-10
-1.90511e-11
-7.21516e-11
-1.59343e-11
1.17426e-11
-1.42503e-11
-9.65382e-11
4.38554e-11
1.53652e-11
-6.8361e-11
3.61302e-11
8.97591e-11
-1.33742e-10
-1.21973e-10
4.6908e-11
-9.42066e-11
-1.09256e-10
9.15562e-11
1.08351e-10
3.58329e-11
-1.20253e-11
-1.00201e-10
-1.45561e-10
-1.57456e-10
-8.62712e-11
-7.94129e-11
-9.19844e-12
2.7639e-11
-6.14434e-11
-4.46256e-11
-1.18412e-10
-3.18312e-10
-1.53358e-10
-8.73719e-11
-2.53127e-10
5.52254e-11
1.4179e-10
-1.88307e-11
-3.84349e-11
-1.7233e-10
-2.59224e-10
-2.68287e-10
-2.83697e-10
-7.744e-11
-2.88851e-11
2.82042e-11
1.00867e-10
6.23331e-11
-7.97916e-11
-3.06237e-11
-4.50064e-11
1.78851e-10
2.29796e-10
1.60057e-10
3.31269e-11
7.40437e-11
1.05375e-10
8.13387e-11
1.25527e-10
1.30632e-10
8.08361e-12
6.49111e-11
6.77513e-11
4.53724e-11
8.65898e-11
5.14242e-11
1.15832e-10
1.69289e-10
-2.73139e-12
1.01443e-11
6.68634e-11
-5.72928e-11
6.90104e-11
1.44617e-10
3.53689e-11
7.00082e-11
4.62964e-11
2.36571e-10
5.76943e-10
7.95383e-10
1.57615e-09
2.48972e-09
4.30297e-09
6.87068e-09
1.10411e-08
1.80403e-08
2.88152e-08
4.60271e-08
7.39082e-08
1.18353e-07
1.89515e-07
3.03548e-07
4.86331e-07
7.79069e-07
1.24834e-06
1.99982e-06
3.20398e-06
5.13252e-06
8.22281e-06
1.31706e-05
2.10979e-05
3.37878e-05
5.4112e-05
8.66309e-05
0.000138684
0.00022188
0.000354881
0.000566902
0.000905059
0.00144078
0.00228962
0.00360684
0.0056779
0.00876649
0.013663
-6.8432e-11
3.83433e-11
3.25387e-11
-2.88453e-11
-1.99599e-11
-5.49634e-11
1.04858e-10
-6.05177e-11
-8.20581e-11
6.19953e-12
-3.69977e-11
-7.09492e-11
-6.07797e-11
-5.23407e-11
-5.9052e-11
-1.90764e-10
-2.09294e-10
-2.41051e-10
-5.80444e-11
-2.40855e-11
4.2497e-11
-2.96206e-11
2.57241e-11
-1.00763e-10
-1.60877e-11
-3.72003e-11
-3.81928e-11
1.01429e-10
4.92409e-11
5.22245e-11
-4.04938e-12
-9.63822e-11
-1.45888e-11
7.8782e-11
5.20756e-11
-8.09143e-11
-9.48238e-12
2.41107e-11
8.25212e-11
1.47452e-10
2.32706e-10
1.0334e-10
1.79759e-11
3.74612e-11
5.35085e-11
3.838e-11
3.72161e-11
-3.29983e-11
-1.44714e-10
-9.99491e-11
-3.68585e-11
-5.18082e-12
2.93828e-11
5.21731e-11
1.87659e-10
2.3068e-10
-2.81406e-11
1.31374e-10
1.68006e-10
-7.63639e-11
2.71322e-11
-1.53913e-10
-3.12933e-10
-2.322e-10
-1.60825e-10
-1.14277e-10
-2.46898e-10
-1.74803e-10
-8.77819e-11
-4.33027e-11
-6.65354e-11
-8.25337e-11
4.0566e-11
1.90368e-11
-8.18502e-12
-3.66415e-11
-5.15063e-11
5.56261e-11
2.22685e-11
-1.25074e-11
-6.93017e-11
5.65226e-11
1.45819e-10
1.81204e-10
-8.24855e-11
-1.06092e-10
-1.11988e-10
4.98205e-11
1.15555e-11
4.53752e-11
6.21028e-11
8.80681e-11
6.49362e-11
4.17617e-11
6.87413e-11
5.2836e-11
1.96506e-10
-2.75073e-12
9.36194e-11
-6.24816e-11
-5.05745e-11
-1.03046e-10
-1.35591e-10
-7.60601e-11
-1.87088e-10
-3.357e-11
-2.32408e-11
-5.13821e-11
-5.37863e-11
-7.48171e-11
8.09313e-11
1.31835e-10
9.25808e-11
-1.06787e-11
9.69278e-11
-3.9039e-11
8.63224e-11
1.27274e-10
1.58111e-10
1.90629e-11
-1.5479e-11
1.29318e-10
6.20942e-11
-1.84194e-11
-1.20655e-10
-4.85744e-11
1.13689e-10
-2.69769e-11
-1.62087e-10
4.70556e-12
1.56282e-10
1.37921e-10
9.27189e-11
-7.90542e-11
-1.27564e-11
5.84052e-11
7.30645e-11
2.1193e-10
1.13838e-10
1.65031e-10
1.74973e-10
6.50787e-11
1.51117e-10
1.02027e-10
8.45648e-11
1.45701e-10
3.17216e-11
5.06804e-11
2.14214e-10
2.24929e-10
1.70512e-10
-1.45041e-11
4.63375e-11
-5.14352e-11
-1.10237e-10
-1.02575e-10
4.452e-11
-5.09335e-11
-6.26121e-11
-2.08724e-11
2.31044e-11
1.25409e-10
-4.03164e-12
-9.28095e-11
1.31383e-11
-1.12392e-11
4.48095e-11
1.12847e-10
1.45876e-10
1.79368e-10
1.67964e-10
7.14375e-11
-9.07029e-11
-1.10612e-10
-1.40866e-10
1.41778e-11
-6.79877e-11
-1.28872e-10
-1.11574e-10
-1.01897e-10
-6.74474e-11
-6.86482e-11
-1.7774e-10
-3.01139e-10
-3.3849e-10
-1.84764e-10
-2.72613e-10
-1.49157e-10
-1.28896e-10
-1.98807e-10
-4.26605e-11
-2.11249e-10
-6.68379e-11
-1.4269e-10
-4.28703e-11
-5.27427e-11
-6.61531e-11
-1.77407e-10
3.94044e-11
9.60907e-12
3.06851e-12
2.65169e-11
-1.85918e-11
7.79248e-11
1.25819e-10
2.33661e-10
1.88802e-10
7.03148e-11
1.21634e-10
2.12225e-10
8.40031e-11
1.16352e-10
4.17858e-11
1.42542e-10
2.81273e-11
-6.60427e-11
-8.29442e-11
-1.44447e-11
2.89606e-11
5.42064e-11
1.19411e-11
-6.03443e-11
-1.45219e-10
6.16159e-11
-1.36231e-11
3.36465e-11
7.02046e-11
-9.48406e-11
8.38597e-11
5.469e-11
-7.20844e-11
3.88192e-11
-5.35041e-12
1.82792e-11
-4.36002e-11
-8.23726e-11
-1.66679e-10
-1.33473e-10
-6.82894e-11
-2.12697e-10
-4.44617e-12
-6.10322e-11
-2.31656e-11
-4.39026e-11
-1.66926e-10
-7.49194e-11
-5.39192e-11
-3.34326e-11
1.39928e-10
-8.71953e-11
-1.19762e-10
-3.54483e-11
2.0087e-10
1.43511e-10
7.90571e-11
-7.52733e-11
-5.509e-11
1.79237e-10
1.79092e-10
2.86153e-10
3.08402e-10
3.15682e-10
4.56147e-10
6.04522e-10
9.72447e-10
1.33519e-09
2.14071e-09
3.6201e-09
6.23471e-09
9.73324e-09
1.57871e-08
2.5196e-08
4.02181e-08
6.45431e-08
1.03092e-07
1.64913e-07
2.64086e-07
4.21983e-07
6.74284e-07
1.07768e-06
1.72187e-06
2.75089e-06
4.39393e-06
7.01904e-06
1.12089e-05
1.79002e-05
2.85763e-05
4.56182e-05
7.27922e-05
0.000116142
0.000185193
0.000295227
0.000470106
0.000748379
0.00118849
0.00188613
0.00297048
0.00468844
0.00728098
0.0115014
-2.24619e-12
-1.07369e-11
3.54503e-11
-2.11185e-11
-1.25111e-11
2.18853e-10
1.49239e-10
8.55671e-11
1.89075e-10
7.891e-11
-1.90004e-11
-1.89079e-11
-1.31792e-10
-4.71886e-11
-4.78864e-11
-2.07248e-11
-4.03002e-12
-4.26401e-11
-1.06969e-10
1.71862e-10
7.17085e-11
1.06918e-10
2.63054e-10
1.48804e-10
1.32809e-10
1.19103e-10
-5.68507e-11
6.59447e-11
8.48324e-11
2.77117e-11
1.16542e-10
2.30511e-11
9.52257e-12
-4.53296e-12
-1.7707e-10
-1.47053e-10
-1.66369e-10
-5.49308e-11
1.26742e-11
-1.2873e-10
3.12254e-11
5.12131e-11
-2.56415e-11
6.662e-11
6.7793e-11
4.68194e-11
-5.49754e-11
-3.73954e-11
1.45902e-10
6.11788e-11
-4.47043e-11
9.05759e-15
8.09012e-11
-5.1022e-11
-1.76952e-10
-1.91607e-10
8.19894e-11
5.27987e-11
7.63025e-11
-9.99529e-11
-7.46223e-11
7.52785e-11
-8.26061e-11
6.22454e-12
-8.36301e-11
-4.5818e-11
7.33141e-12
-1.6069e-11
-1.03805e-10
-7.42499e-11
-7.35781e-11
-2.68055e-10
-1.53289e-10
-1.46623e-10
-1.593e-10
-2.0509e-11
1.03879e-11
4.58836e-11
9.30967e-11
-3.49957e-11
5.01183e-11
1.18379e-10
1.00196e-10
4.57624e-11
9.8527e-11
-5.73793e-11
-9.12261e-11
-1.36419e-12
-1.04868e-10
-6.62961e-11
8.94085e-11
3.54144e-11
-4.47879e-11
1.0142e-10
1.14779e-10
-6.14372e-11
5.81552e-11
-1.84573e-11
1.31871e-10
1.58154e-10
8.96002e-11
-3.14451e-12
-1.49693e-10
-7.52731e-11
3.42512e-11
7.45489e-11
-1.64902e-10
-2.21569e-10
-1.29283e-10
-2.70761e-10
-9.10331e-11
-1.3159e-10
-1.19123e-10
2.75139e-11
1.7913e-11
6.85474e-11
5.94966e-11
2.63569e-11
7.14988e-11
1.54593e-10
-4.06319e-11
-7.30482e-12
-6.67484e-11
-2.7956e-10
-1.94096e-10
-1.23922e-10
-1.41724e-10
-2.24237e-10
-2.07928e-10
-1.03879e-10
-1.60817e-10
-3.241e-11
-1.60797e-10
-1.53042e-10
-1.04209e-10
-7.89312e-11
-1.18479e-10
-1.03774e-10
-1.12984e-10
-1.41209e-10
1.15007e-10
1.67957e-10
1.39554e-10
1.81045e-10
4.67837e-11
2.04295e-11
1.01858e-10
2.79128e-11
7.23565e-12
1.34284e-11
1.23055e-10
1.15503e-10
9.63637e-11
6.15281e-11
1.4848e-10
7.21962e-11
6.28e-11
5.00529e-11
1.0735e-10
7.69722e-12
1.88523e-10
1.90814e-10
1.55649e-10
1.2152e-10
2.29962e-10
3.09602e-11
1.79731e-10
-2.38986e-11
-2.92696e-11
1.4861e-10
7.58422e-11
5.37414e-11
1.40443e-10
1.73932e-10
9.39987e-11
1.66906e-10
9.16653e-11
1.10748e-10
6.26571e-11
1.3896e-10
1.1946e-10
-6.14846e-11
2.67528e-11
-1.29688e-11
-1.32781e-10
-4.21716e-11
-4.13634e-12
-1.79758e-11
1.68465e-11
8.8137e-12
1.65017e-10
1.61314e-10
2.04634e-10
1.53675e-10
-3.32628e-12
7.70044e-11
5.81586e-11
5.78538e-11
1.93316e-11
1.25722e-10
-6e-11
-7.4198e-11
-5.16577e-11
-1.53609e-10
-1.7864e-12
-8.9829e-12
1.55915e-10
2.69913e-11
5.45453e-11
-1.14839e-10
-2.268e-10
1.18855e-10
-1.22833e-11
-3.99479e-11
4.52237e-11
9.36784e-11
-8.31003e-11
-6.53295e-11
-1.292e-11
-1.56685e-13
1.3722e-10
1.15144e-11
-3.36808e-11
-3.94051e-11
-6.63013e-11
4.06772e-11
-4.35344e-11
3.7564e-11
1.68532e-10
1.58534e-11
8.29909e-11
1.49603e-11
-6.21093e-11
6.05958e-11
8.32081e-11
9.35352e-11
-4.77842e-11
-2.06548e-10
-1.85435e-10
-3.40232e-11
-1.40389e-10
-3.71695e-11
9.80691e-11
-9.34192e-11
-1.19858e-11
1.61525e-11
-4.89236e-11
-1.11477e-10
-7.84979e-11
-1.00194e-10
-1.17675e-10
2.49534e-11
8.07151e-11
-1.33758e-10
-9.36021e-12
-1.0509e-10
-3.75954e-11
-4.6422e-11
2.12199e-11
1.10285e-10
5.82166e-11
2.05744e-10
2.14578e-10
5.13617e-10
7.94256e-10
1.33583e-09
2.17283e-09
3.36019e-09
5.36331e-09
8.40115e-09
1.35074e-08
2.14967e-08
3.42028e-08
5.48446e-08
8.74498e-08
1.39778e-07
2.22895e-07
3.55386e-07
5.66467e-07
9.03138e-07
1.43913e-06
2.29373e-06
3.65441e-06
5.82223e-06
9.27275e-06
1.47685e-05
2.35121e-05
3.74298e-05
5.95608e-05
9.47683e-05
0.000150699
0.000239601
0.000380567
0.000604475
0.00095815
0.00151891
0.00239144
0.00378103
0.00589522
0.0093984
1.18759e-10
4.31972e-11
-3.92816e-11
-7.443e-11
-1.45205e-10
1.10266e-10
1.01997e-11
-8.89983e-11
-1.62731e-10
-1.01147e-11
1.88823e-11
-1.2207e-10
-2.95118e-11
-2.37642e-10
-5.123e-11
-8.67093e-11
6.12874e-12
-6.3739e-11
8.79005e-11
7.77526e-11
1.37949e-10
2.91395e-10
1.34456e-10
1.9973e-10
1.14565e-10
1.23408e-10
1.10438e-11
2.38799e-11
-2.51254e-11
-1.17035e-10
1.14165e-10
5.508e-11
-5.05146e-11
7.23925e-11
-2.67329e-11
1.80012e-11
6.94297e-11
-1.097e-10
-1.30749e-10
-9.13698e-11
-7.34145e-11
-5.39729e-12
7.62899e-11
9.78027e-11
1.20742e-10
1.54732e-10
-5.40777e-11
-7.83954e-11
-3.5511e-11
6.65343e-11
1.00535e-12
-1.97154e-11
-7.51261e-12
6.05174e-11
-9.87706e-12
-1.29858e-10
1.28339e-10
-9.88634e-12
-2.44318e-11
5.0632e-12
-5.62167e-11
2.75307e-11
1.17047e-10
1.49849e-10
1.92411e-10
1.68306e-10
-1.81833e-11
1.04937e-10
8.93135e-12
-7.14325e-12
2.19439e-10
6.28308e-11
-1.04598e-10
9.88178e-12
7.46273e-12
-8.43743e-11
3.65029e-11
-1.14443e-10
-1.5323e-10
2.68996e-11
-1.33348e-11
-3.08639e-11
-3.16043e-11
4.05688e-12
-1.50129e-12
1.47192e-11
2.56074e-11
-1.3897e-10
6.12432e-11
-3.32984e-11
-1.24974e-10
-8.32844e-11
-1.54014e-10
-1.56415e-11
-1.16908e-10
-1.13284e-10
1.0956e-11
-7.7256e-11
-1.04958e-10
-1.64595e-10
-2.20375e-10
-9.34524e-11
-8.03836e-12
-6.86038e-11
-4.60827e-11
-6.00985e-11
1.39189e-10
1.18423e-11
-1.53075e-10
-1.04467e-10
-7.53965e-11
8.17563e-11
-6.14272e-11
5.32187e-11
2.3212e-11
1.35278e-10
3.26777e-11
-7.06077e-11
-1.35091e-10
-1.01523e-10
-7.94098e-11
2.82427e-11
-8.0566e-11
-8.6612e-11
8.42495e-11
8.69998e-11
9.20215e-11
6.65635e-11
1.10025e-10
2.09356e-11
1.9599e-11
6.56405e-11
3.52983e-11
1.27733e-11
-2.91822e-11
-2.25849e-11
7.97955e-11
1.21121e-10
2.22095e-11
1.23186e-11
2.02941e-10
1.06627e-10
5.23431e-11
3.88167e-12
-6.28425e-11
-2.26751e-11
1.59063e-11
-1.62645e-11
2.71795e-11
1.30915e-12
3.17174e-11
1.00687e-11
9.58111e-11
-5.5355e-12
1.03334e-10
1.63079e-10
2.29838e-10
1.83638e-11
6.29481e-11
1.8508e-11
5.68147e-11
1.28825e-10
-8.01853e-11
-8.38531e-11
-9.09623e-11
-8.91381e-11
-7.21013e-13
-1.0231e-10
-8.84258e-11
-1.89092e-10
-4.75877e-12
1.24242e-11
9.10908e-11
-3.94317e-11
-4.2463e-11
8.31605e-11
-1.07017e-10
-4.02082e-11
-7.811e-11
-8.96533e-12
7.14703e-12
1.10966e-10
6.02891e-11
-2.26326e-11
7.44448e-11
8.65488e-11
2.88327e-11
8.47973e-11
9.63646e-11
1.47634e-10
-3.66561e-11
-1.51415e-11
1.22286e-10
-5.5784e-11
-5.55488e-11
8.79823e-11
-2.8469e-11
3.34818e-11
9.9439e-11
7.31439e-11
8.53731e-11
1.33506e-10
1.58506e-10
1.88403e-10
1.24882e-10
9.0989e-11
-6.78876e-11
6.12627e-11
1.2379e-11
6.25299e-11
7.19119e-11
4.49527e-11
1.04957e-10
1.09218e-10
4.76808e-11
-2.4987e-11
3.6126e-11
6.2061e-13
-5.98897e-13
-8.46727e-11
-5.92865e-11
1.7919e-11
-4.24025e-11
2.45343e-11
5.43959e-11
-5.0319e-11
-2.7538e-11
5.50039e-11
1.70245e-11
8.02031e-11
-1.92384e-11
8.47955e-11
8.93499e-11
2.20152e-10
1.38219e-10
2.47003e-11
7.63455e-11
8.31691e-11
3.89171e-11
-1.10034e-10
-8.22697e-11
-2.45081e-11
6.50388e-11
9.1693e-12
-2.59098e-11
4.91416e-11
-5.87863e-11
-1.5689e-11
3.164e-11
-1.68008e-10
-2.1519e-10
-1.02662e-10
-2.35921e-11
-1.22123e-10
-1.48845e-11
-1.34915e-10
-1.30951e-10
-4.82264e-11
-1.91507e-11
1.64142e-10
1.90114e-10
6.54409e-11
3.44112e-10
4.52866e-10
6.39137e-10
1.01076e-09
1.63588e-09
2.62913e-09
4.44876e-09
7.0972e-09
1.1296e-08
1.79142e-08
2.85533e-08
4.55398e-08
7.24968e-08
1.15538e-07
1.83722e-07
2.92325e-07
4.65187e-07
7.39854e-07
1.17648e-06
1.87096e-06
2.97425e-06
4.72796e-06
7.51311e-06
1.19385e-05
1.89635e-05
3.01209e-05
4.7823e-05
7.59244e-05
0.000120475
0.000191151
0.000303022
0.000480481
0.000760516
0.00120456
0.00189599
0.00300092
0.00469129
0.0075248
1.00552e-10
1.61679e-12
5.35194e-11
3.92973e-11
-4.56125e-11
-1.69431e-11
6.91151e-11
-6.09132e-11
-4.46776e-11
1.28899e-11
-4.69504e-11
1.67306e-10
2.34749e-11
4.16613e-11
-3.63755e-11
-4.53683e-11
-8.0671e-11
-6.89495e-11
-2.83066e-11
-1.67938e-10
-2.45107e-10
-3.14769e-11
-1.11045e-10
-2.02556e-11
1.26051e-10
-1.67868e-11
2.10038e-11
-1.02443e-13
-4.55055e-11
4.83352e-11
-4.2881e-11
-9.38359e-11
3.70215e-11
6.87875e-11
1.00956e-10
2.02428e-10
1.46731e-10
-9.45517e-12
6.89039e-12
-9.53263e-11
-1.25303e-10
-5.1556e-11
-2.46077e-11
1.67073e-11
-7.19835e-11
2.26562e-11
2.35417e-10
6.38752e-11
2.20769e-10
2.43591e-10
2.55754e-10
1.76571e-10
1.20682e-10
1.09717e-10
8.21895e-11
2.59059e-11
-6.43583e-11
-4.5942e-11
6.28692e-11
9.72388e-11
9.86307e-11
9.41136e-11
-8.77937e-11
-1.1487e-11
-9.1636e-11
-1.31166e-10
-7.65167e-11
-5.39742e-11
-1.16884e-10
-1.14927e-10
-2.23679e-10
-5.46505e-11
3.28635e-11
1.30174e-11
-5.68396e-11
1.38522e-11
-1.32109e-10
5.49433e-11
6.90857e-11
-3.45269e-11
-9.46956e-12
3.95894e-11
2.60282e-11
1.51632e-10
7.41437e-11
8.92406e-11
1.42056e-10
7.00837e-12
-5.24155e-11
3.51837e-12
9.26006e-11
-5.7017e-11
-1.25507e-10
3.2209e-12
-1.0776e-10
-2.06897e-10
-4.50729e-11
-4.96746e-12
-8.40606e-12
3.25631e-11
-5.25427e-11
-1.99669e-11
-7.80314e-11
1.20869e-10
3.04643e-11
9.34627e-11
-1.15051e-10
-4.17717e-12
2.90958e-12
-1.33104e-12
-3.95826e-11
6.64169e-11
-4.45073e-11
9.55609e-11
-5.93288e-11
1.10462e-11
8.95659e-11
6.72023e-11
7.98099e-11
-2.23181e-11
6.14356e-11
1.74426e-11
-4.75662e-11
1.16532e-11
5.72195e-12
2.05223e-11
5.88973e-11
3.25682e-11
9.73932e-11
-7.17614e-12
-2.52154e-12
1.19136e-10
1.06048e-10
4.69748e-11
-1.10747e-10
2.80973e-11
4.34089e-11
-1.05837e-10
-2.05352e-10
-1.61552e-10
-2.35176e-10
-8.18647e-11
-1.16543e-10
-6.05625e-11
-2.21818e-11
-8.32171e-12
-2.30316e-11
4.71578e-11
9.51374e-11
3.84632e-11
-1.01752e-10
-6.24024e-12
1.6581e-11
-2.48459e-11
-8.00048e-11
-1.13171e-10
-6.84441e-11
-1.54528e-10
-1.36169e-10
-2.21261e-10
-1.04829e-10
-1.67405e-10
-1.96066e-10
-1.11821e-10
-7.13894e-11
-1.18284e-10
1.38314e-11
-3.14599e-11
-3.24177e-11
-3.47452e-11
2.31176e-11
-1.00269e-11
-7.35251e-12
1.28877e-10
1.15554e-10
3.69331e-11
-9.11722e-11
-2.05509e-10
-1.27876e-10
-1.48479e-10
-6.14842e-11
-1.4416e-10
-5.97124e-11
6.7964e-11
-4.16863e-11
-3.4258e-11
-1.82635e-10
-9.65593e-11
1.64495e-11
-9.67142e-11
-3.16387e-11
1.81495e-11
-9.56375e-12
-1.74649e-10
-1.42751e-10
-1.84905e-11
1.37882e-10
1.35255e-10
5.33499e-11
3.58011e-11
1.20282e-11
5.34218e-11
8.2969e-11
-1.08251e-10
-1.72627e-10
-7.31404e-12
-5.93354e-11
-5.41932e-11
-3.15011e-11
-4.02987e-11
-3.86499e-11
-4.62886e-11
1.51101e-10
5.60858e-11
-8.86977e-11
6.35582e-12
1.33747e-10
1.56588e-10
-3.44464e-12
4.54269e-11
7.54616e-11
-4.29674e-11
3.86462e-11
-2.93558e-11
-6.3872e-11
-1.73366e-10
1.73741e-12
-9.04239e-11
-3.52303e-11
-1.10556e-10
-1.62546e-10
-1.87905e-10
-1.40952e-10
-1.78015e-11
5.38089e-11
1.19598e-10
-4.39258e-11
2.31931e-11
-1.59123e-11
-3.94561e-11
1.32655e-10
1.22578e-10
2.64376e-11
-4.39216e-11
-7.43874e-11
-7.12106e-11
-5.72712e-11
8.8873e-11
1.48377e-10
7.17005e-11
5.31461e-11
1.40403e-10
1.96991e-10
1.08537e-10
2.24986e-10
3.26368e-10
6.78298e-11
-2.78114e-11
-6.677e-11
1.47382e-11
8.11676e-11
-1.13822e-13
1.14586e-10
4.04534e-10
4.723e-10
8.6346e-10
1.34272e-09
2.33164e-09
3.70031e-09
5.77978e-09
9.13638e-09
1.45283e-08
2.3314e-08
3.72354e-08
5.89103e-08
9.36822e-08
1.48775e-07
2.36327e-07
3.75277e-07
5.95964e-07
9.46048e-07
1.50126e-06
2.38217e-06
3.77971e-06
5.99511e-06
9.50903e-06
1.50773e-05
2.39054e-05
3.78884e-05
6.00492e-05
9.51268e-05
0.000150696
0.00023854
0.000377745
0.000597254
0.000945313
0.00148749
0.00235575
0.0036888
0.00593992
-4.06587e-12
-3.19161e-11
-4.78672e-11
-4.74255e-11
6.61709e-11
-1.06033e-11
1.07061e-10
-1.67737e-10
1.43246e-10
4.40521e-12
2.31304e-11
4.85155e-12
-5.98053e-11
-1.57661e-10
-5.57633e-11
-2.06214e-10
-8.9052e-11
-5.04616e-11
-6.48368e-11
-1.54955e-11
1.20673e-11
2.8827e-11
8.71235e-11
9.74666e-11
-1.25558e-10
-2.44606e-11
1.87234e-10
-7.30707e-11
1.79974e-12
7.81338e-12
-1.51924e-11
-3.77984e-11
4.68798e-12
-1.84927e-11
9.09402e-11
2.56414e-11
-1.65559e-11
-6.76922e-11
1.70913e-11
-1.71722e-10
-1.55307e-10
-1.64896e-10
-4.19083e-11
6.68529e-11
-1.92392e-11
-1.35477e-11
7.04503e-11
-8.4788e-11
4.62272e-11
7.90008e-11
1.0777e-10
2.16158e-10
1.61932e-10
1.80941e-10
1.55247e-10
1.92568e-10
2.29134e-10
1.50996e-10
2.71686e-11
9.61343e-12
-1.02441e-10
-1.13283e-11
-8.39847e-11
-4.47878e-11
-2.47956e-10
-1.83005e-10
-5.25486e-11
-1.83245e-10
-1.08186e-10
-7.77071e-11
-2.47968e-11
-1.94603e-11
-2.75578e-11
8.33341e-11
7.00029e-11
1.7121e-11
5.5815e-11
-2.63715e-11
2.45782e-11
7.54325e-11
-4.16767e-11
-5.75775e-11
-3.58463e-12
9.67559e-12
-1.16127e-11
5.50991e-12
5.96049e-11
1.109e-11
6.91056e-11
5.72728e-11
1.87204e-10
1.14707e-10
-8.75789e-12
1.30399e-11
1.39893e-10
2.15594e-10
-7.19585e-11
-1.57582e-10
-2.27665e-11
-3.49549e-11
2.84856e-11
3.33987e-11
-9.92441e-11
4.74808e-12
-2.50139e-11
4.42778e-12
-5.27971e-11
7.54659e-11
-2.78593e-11
8.45669e-12
6.27361e-11
1.26351e-11
4.79739e-11
-2.78732e-11
-1.37902e-10
-1.81703e-10
-1.61685e-10
2.5115e-11
-8.2505e-11
-3.79796e-11
1.11879e-10
4.48918e-11
-9.78222e-11
-4.85392e-12
3.83048e-11
1.7525e-11
-9.06576e-11
7.55669e-11
1.79918e-11
3.95887e-11
2.76648e-11
-1.75448e-11
-8.57309e-11
1.54113e-10
1.78537e-10
1.72876e-10
1.81607e-11
-6.89658e-11
1.36837e-10
1.24221e-11
3.23891e-11
-6.76198e-12
1.27386e-10
4.53426e-11
7.26979e-11
7.08831e-11
1.06295e-10
8.46203e-11
9.01533e-11
-9.70723e-11
9.34338e-11
-4.31417e-11
-4.43655e-11
-2.47363e-11
1.52079e-11
7.90714e-11
-4.41798e-11
3.47797e-11
1.21288e-10
1.25107e-10
8.92114e-11
4.99859e-11
2.21928e-11
1.37162e-10
2.00567e-10
8.31732e-11
1.49694e-11
1.31604e-10
6.99313e-11
9.1514e-12
-7.81767e-12
1.375e-10
-4.32751e-12
1.60999e-10
2.27386e-10
8.10832e-11
9.93157e-11
8.43001e-11
-2.4387e-11
4.61822e-11
2.84538e-11
4.29538e-11
-4.29584e-11
-5.24444e-11
1.54268e-10
6.30806e-11
2.9037e-11
1.248e-10
5.29061e-11
1.46848e-11
1.44103e-10
7.01563e-11
1.4473e-11
5.10926e-11
1.39248e-10
7.23835e-11
6.94139e-11
1.72378e-10
1.52881e-10
2.89313e-11
2.07249e-10
1.22823e-10
3.73545e-11
3.14618e-11
-8.71099e-11
9.69873e-11
-2.3183e-11
2.73198e-11
-4.01098e-11
-2.2214e-11
2.00505e-11
-1.87999e-12
9.93898e-11
5.92163e-11
-3.08376e-11
-7.06555e-11
5.01267e-11
-1.25159e-10
-1.25117e-10
-1.15265e-10
-1.2165e-10
-1.39898e-10
-1.21105e-10
-2.01243e-10
-1.51563e-10
-7.46242e-11
-2.85736e-10
-1.07696e-10
-4.51373e-11
6.45666e-11
1.97643e-11
-1.36798e-11
1.21495e-10
7.77334e-11
-5.69346e-11
-1.13663e-10
-7.89542e-11
-5.72744e-11
-1.41391e-10
-1.06343e-10
-1.71417e-11
6.00339e-11
-1.04378e-11
3.50461e-11
-1.33834e-11
-4.70582e-11
2.49292e-11
-1.06928e-10
-1.42147e-11
-3.85496e-11
-1.04298e-10
-8.47096e-11
-7.94009e-11
-1.10558e-10
-2.93739e-10
-7.65868e-11
-1.59519e-10
5.60256e-11
1.3865e-10
2.71943e-10
1.33818e-10
4.42622e-11
1.85743e-10