/*--------------------------------*- C++ -*----------------------------------*\
| =========                 |                                                 |
| \\      /  F ield         | OpenFOAM: The Open Source CFD Toolbox           |
|  \\    /   O peration     | Version:  2412                                  |
|   \\  /    A nd           | Website:  www.openfoam.com                      |
|    \\/     M anipulation  |                                                 |
\*---------------------------------------------------------------------------*/
FoamFile
{
    version     2.0;
    format      ascii;
    arch        "LSB;label=32;scalar=64";
    class       surfaceScalarField;
    location    "0.0025";
    object      phi;
}
// * * * * * * * * * * * * * * * * * * * * * * * * * * * * * * * * * * * * * //

dimensions      [1 0 -1 0 0 0 0];

oriented        oriented;

internalField   nonuniform List<scalar> 
359100
(
3.27398
2.77556e-17
3.27398
6.93889e-17
3.27398
1.11022e-16
3.27398
4.16334e-17
3.27398
-6.93889e-17
3.27398
-1.66533e-16
3.27398
-1.80411e-16
3.27398
-2.498e-16
3.27398
-3.33067e-16
3.27398
-4.30211e-16
3.27398
-4.996e-16
3.27398
-7.49401e-16
3.27398
-9.71445e-16
3.27398
-1.06859e-15
3.27398
-1.09635e-15
3.27398
-1.15186e-15
3.27398
-1.31839e-15
3.27398
-1.48492e-15
3.27398
-1.51268e-15
3.27398
-1.44329e-15
3.27398
-1.48492e-15
3.27398
-1.60982e-15
3.27398
-1.59595e-15
3.27398
-1.3739e-15
3.27398
-9.71445e-16
3.27398
-7.35523e-16
3.27398
-8.04912e-16
3.27398
-9.15934e-16
3.27398
-9.85323e-16
3.27398
-1.13798e-15
3.27398
-1.15186e-15
3.27398
-1.11022e-15
3.27398
-1.20737e-15
3.27398
-1.29063e-15
3.27398
-1.3739e-15
3.27398
-1.44329e-15
3.27398
-1.4988e-15
3.27398
-1.48492e-15
3.27398
-1.3739e-15
3.27398
-1.23512e-15
3.27398
-1.16573e-15
3.27398
-1.13798e-15
3.27398
-1.08247e-15
3.27398
-9.4369e-16
3.27398
-7.49401e-16
3.27398
-6.245e-16
3.27398
-6.10623e-16
3.27398
-7.77156e-16
3.27398
-8.18789e-16
3.27398
-8.88178e-16
3.27398
-8.74301e-16
3.27398
-8.18789e-16
3.27398
-7.21645e-16
3.27398
-8.32667e-16
3.27398
-1.08247e-15
3.27398
-1.3739e-15
3.27398
-1.54043e-15
3.27398
-1.6237e-15
3.27398
-1.66533e-15
3.27398
-1.66533e-15
3.27398
-1.4988e-15
3.27398
-1.29063e-15
3.27398
-1.20737e-15
3.27398
-1.20737e-15
3.27398
-1.27676e-15
3.27398
-1.42941e-15
3.27398
-1.47105e-15
3.27398
-1.59595e-15
3.27398
-1.76248e-15
3.27398
-1.8735e-15
3.27398
-2.02616e-15
3.27398
-2.09555e-15
3.27398
-2.22045e-15
3.27398
-2.41474e-15
3.27398
-2.56739e-15
3.27398
-2.52576e-15
3.27398
-2.33147e-15
3.27398
-2.1233e-15
3.27398
-1.91513e-15
3.27398
-1.76248e-15
3.27398
-1.69309e-15
3.27398
-1.51268e-15
3.27398
-1.38778e-15
3.27398
-1.36002e-15
3.27398
-1.36002e-15
3.27398
-1.27676e-15
3.27398
-1.22125e-15
3.27398
-1.30451e-15
3.27398
-1.58207e-15
3.27398
-1.94289e-15
3.27398
-2.17881e-15
3.27398
-2.23432e-15
3.27398
-2.27596e-15
3.27398
-2.31759e-15
3.27398
-2.27596e-15
3.27398
-2.13718e-15
3.27398
-2.01228e-15
3.27398
-2.05391e-15
3.27398
-2.30371e-15
3.27398
-2.35922e-15
3.27398
-2.31759e-15
3.27398
-2.19269e-15
3.27398
-1.88738e-15
3.27398
-1.66533e-15
3.27398
-1.66533e-15
3.27398
-1.7486e-15
3.27398
-1.88738e-15
3.27398
-2.10942e-15
3.27398
-2.23432e-15
3.27398
-2.44249e-15
3.27398
-2.70617e-15
3.27398
-2.73392e-15
3.27398
-2.65066e-15
3.27398
-2.65066e-15
3.27398
-2.73392e-15
3.27398
-2.83107e-15
3.27398
-2.7478e-15
3.27398
-2.30371e-15
3.27398
-1.73472e-15
3.27398
-1.31839e-15
3.27398
-1.09635e-15
3.27398
-1.08247e-15
3.27398
-1.249e-15
3.27398
-1.42941e-15
3.27398
-1.60982e-15
3.27398
-1.84575e-15
3.27398
-1.97065e-15
3.27398
-2.05391e-15
3.27398
-2.34535e-15
3.27398
-2.60902e-15
3.27398
-2.66454e-15
3.27398
-2.73392e-15
3.27398
-2.85882e-15
3.27398
-3.03924e-15
3.27398
-3.03924e-15
3.27398
-2.94209e-15
3.27398
-2.81719e-15
3.27398
-2.76168e-15
3.27398
-2.69229e-15
3.27398
-2.498e-15
3.27398
-2.31759e-15
3.27398
-2.19269e-15
3.27398
-2.20657e-15
3.27398
-2.22045e-15
3.27398
-2.16493e-15
3.27398
-1.91513e-15
3.27398
-1.69309e-15
3.27398
-1.56819e-15
3.27398
-1.59595e-15
3.27398
-1.76248e-15
3.27398
-2.08167e-15
3.27398
-2.30371e-15
3.27398
-2.23432e-15
3.27398
-1.9984e-15
3.27398
-1.91513e-15
3.27398
-2.04003e-15
3.27398
-2.28983e-15
3.27398
-2.48412e-15
3.27398
-2.498e-15
3.27398
-2.30371e-15
3.27398
-1.92901e-15
3.27398
-1.58207e-15
3.27398
-1.52656e-15
3.27398
-1.52656e-15
3.27398
-1.38778e-15
3.27398
-1.29063e-15
3.27398
-1.26288e-15
3.27398
-1.22125e-15
3.27398
-1.19349e-15
3.27398
-1.45717e-15
3.27398
-1.81799e-15
3.27398
-2.1233e-15
3.27398
-2.38698e-15
3.27398
-2.59515e-15
3.27398
-2.67841e-15
3.27398
-2.69229e-15
3.27398
-2.69229e-15
3.27398
-2.498e-15
3.27398
-2.33147e-15
3.27398
-2.09555e-15
3.27398
-1.83187e-15
3.27398
-1.52656e-15
3.27398
-1.44329e-15
3.27398
-1.45717e-15
3.27398
-1.4988e-15
3.27398
-1.47105e-15
3.27398
-1.38778e-15
3.27398
-1.26288e-15
3.27398
-1.23512e-15
3.27398
-1.1241e-15
3.27398
-7.35523e-16
3.27398
-1.80411e-16
3.27398
2.22045e-16
3.27398
3.46945e-16
3.27398
1.94289e-16
3.27398
-9.71445e-17
3.27398
-4.57967e-16
3.27398
-7.77156e-16
3.27398
-8.74301e-16
3.27398
-9.15934e-16
3.27398
-1.04083e-15
3.27398
-1.30451e-15
3.27398
-1.65146e-15
3.27398
-1.98452e-15
3.27398
-2.1233e-15
3.27398
-1.9984e-15
3.27398
-1.79023e-15
3.27398
-1.44329e-15
3.27398
-9.71445e-16
3.27398
-4.85723e-16
3.27398
-2.22045e-16
3.27398
-2.63678e-16
3.27398
-5.13478e-16
3.27398
-7.63278e-16
3.27398
-1.16573e-15
3.27398
-1.56819e-15
3.27398
-1.76248e-15
3.27398
-2.06779e-15
3.27398
-2.48412e-15
3.27398
-2.65066e-15
3.27398
-2.69229e-15
3.27398
-2.67841e-15
3.27398
-2.48412e-15
3.27398
-2.35922e-15
3.27398
-2.33147e-15
3.27398
-2.34535e-15
3.27398
-2.23432e-15
3.27398
-1.88738e-15
3.27398
-1.40166e-15
3.27398
-9.15934e-16
3.27398
-5.82867e-16
3.27398
-5.13478e-16
3.27398
-6.80012e-16
3.27398
-8.88178e-16
3.27398
-8.74301e-16
3.27398
-7.21645e-16
3.27398
-4.85723e-16
3.27398
-2.08167e-16
3.27398
6.93889e-17
3.27398
4.02456e-16
3.27398
8.18789e-16
3.27398
1.51268e-15
3.27398
2.85882e-15
3.27398
5.30131e-15
3.27398
9.38138e-15
3.27398
1.6237e-14
3.27398
2.74225e-14
3.27398
4.57967e-14
3.27398
7.6314e-14
3.27398
1.27023e-13
3.27398
2.11067e-13
3.27398
3.50664e-13
3.27398
5.82312e-13
3.27398
9.66699e-13
3.27398
1.60522e-12
3.27398
2.6667e-12
3.27398
4.43265e-12
3.27398
7.37217e-12
3.27398
1.2268e-11
3.27398
2.04276e-11
3.27398
3.40355e-11
3.27398
5.67449e-11
3.27398
9.46699e-11
3.27398
1.58052e-10
3.27398
2.64061e-10
3.27398
4.41506e-10
3.27398
7.38773e-10
3.27398
1.23721e-09
3.27398
2.07372e-09
3.27398
3.47892e-09
3.27398
5.8418e-09
3.27398
9.81912e-09
3.27398
1.65212e-08
3.27398
2.78272e-08
3.27398
4.69223e-08
3.27398
7.92116e-08
3.27398
1.33881e-07
3.27398
2.26563e-07
3.27398
3.83904e-07
3.27398
6.51386e-07
3.27398
1.10678e-06
3.27398
1.88326e-06
3.27397
3.20929e-06
3.27397
5.47749e-06
3.27396
9.36381e-06
3.27394
1.60342e-05
3.27391
2.75043e-05
3.27387
4.72655e-05
3.27378
8.13828e-05
3.27364
0.000140419
3.2734
0.00024285
3.27298
0.000421113
3.27225
0.00073266
3.27097
0.0012798
3.26871
0.00224859
3.26473
0.00397928
3.2576
0.00712639
3.24466
0.0129313
3.22063
0.0240288
0.045295
3.17532
3.27398
4.16334e-17
3.27398
2.77556e-17
3.27398
0
3.27398
6.93889e-17
3.27398
1.94289e-16
3.27398
3.05311e-16
3.27398
1.94289e-16
3.27398
9.71445e-17
3.27398
8.32667e-17
3.27398
-6.93889e-17
3.27398
-2.08167e-16
3.27398
-3.19189e-16
3.27398
-4.44089e-16
3.27398
-5.27356e-16
3.27398
-5.13478e-16
3.27398
-5.27356e-16
3.27398
-4.57967e-16
3.27398
-4.996e-16
3.27398
-6.93889e-16
3.27398
-8.32667e-16
3.27398
-9.99201e-16
3.27398
-1.09635e-15
3.27398
-1.16573e-15
3.27398
-1.22125e-15
3.27398
-1.36002e-15
3.27398
-1.47105e-15
3.27398
-1.44329e-15
3.27398
-1.41553e-15
3.27398
-1.40166e-15
3.27398
-1.48492e-15
3.27398
-1.59595e-15
3.27398
-1.65146e-15
3.27398
-1.67921e-15
3.27398
-1.70697e-15
3.27398
-1.56819e-15
3.27398
-1.34615e-15
3.27398
-1.1241e-15
3.27398
-8.74301e-16
3.27398
-6.52256e-16
3.27398
-5.82867e-16
3.27398
-6.245e-16
3.27398
-6.52256e-16
3.27398
-7.07767e-16
3.27398
-6.66134e-16
3.27398
-6.66134e-16
3.27398
-6.52256e-16
3.27398
-5.27356e-16
3.27398
-4.02456e-16
3.27398
-3.88578e-16
3.27398
-4.996e-16
3.27398
-7.91034e-16
3.27398
-1.16573e-15
3.27398
-1.34615e-15
3.27398
-1.38778e-15
3.27398
-1.52656e-15
3.27398
-1.63758e-15
3.27398
-1.66533e-15
3.27398
-1.73472e-15
3.27398
-1.85962e-15
3.27398
-1.97065e-15
3.27398
-1.90126e-15
3.27398
-1.80411e-15
3.27398
-1.58207e-15
3.27398
-1.30451e-15
3.27398
-1.19349e-15
3.27398
-1.249e-15
3.27398
-1.42941e-15
3.27398
-1.6237e-15
3.27398
-1.67921e-15
3.27398
-1.6237e-15
3.27398
-1.4988e-15
3.27398
-1.4988e-15
3.27398
-1.52656e-15
3.27398
-1.60982e-15
3.27398
-1.76248e-15
3.27398
-1.84575e-15
3.27398
-1.92901e-15
3.27398
-1.91513e-15
3.27398
-1.83187e-15
3.27398
-1.58207e-15
3.27398
-1.23512e-15
3.27398
-9.4369e-16
3.27398
-9.02056e-16
3.27398
-9.29812e-16
3.27398
-9.57567e-16
3.27398
-1.13798e-15
3.27398
-1.45717e-15
3.27398
-1.70697e-15
3.27398
-1.85962e-15
3.27398
-2.06779e-15
3.27398
-2.2482e-15
3.27398
-2.33147e-15
3.27398
-2.42861e-15
3.27398
-2.56739e-15
3.27398
-2.70617e-15
3.27398
-2.78944e-15
3.27398
-2.80331e-15
3.27398
-2.72005e-15
3.27398
-2.69229e-15
3.27398
-2.66454e-15
3.27398
-2.65066e-15
3.27398
-2.56739e-15
3.27398
-2.51188e-15
3.27398
-2.52576e-15
3.27398
-2.42861e-15
3.27398
-2.31759e-15
3.27398
-2.2482e-15
3.27398
-2.23432e-15
3.27398
-2.23432e-15
3.27398
-2.23432e-15
3.27398
-2.34535e-15
3.27398
-2.45637e-15
3.27398
-2.44249e-15
3.27398
-2.45637e-15
3.27398
-2.53964e-15
3.27398
-2.52576e-15
3.27398
-2.41474e-15
3.27398
-2.33147e-15
3.27398
-2.33147e-15
3.27398
-2.28983e-15
3.27398
-2.22045e-15
3.27398
-2.16493e-15
3.27398
-2.15106e-15
3.27398
-2.13718e-15
3.27398
-2.01228e-15
3.27398
-1.70697e-15
3.27398
-1.51268e-15
3.27398
-1.31839e-15
3.27398
-1.08247e-15
3.27398
-1.08247e-15
3.27398
-1.33227e-15
3.27398
-1.67921e-15
3.27398
-1.81799e-15
3.27398
-1.88738e-15
3.27398
-2.02616e-15
3.27398
-2.04003e-15
3.27398
-1.92901e-15
3.27398
-1.88738e-15
3.27398
-2.08167e-15
3.27398
-2.35922e-15
3.27398
-2.3731e-15
3.27398
-2.35922e-15
3.27398
-2.42861e-15
3.27398
-2.55351e-15
3.27398
-2.38698e-15
3.27398
-2.33147e-15
3.27398
-2.33147e-15
3.27398
-2.44249e-15
3.27398
-2.45637e-15
3.27398
-2.42861e-15
3.27398
-2.45637e-15
3.27398
-2.30371e-15
3.27398
-2.08167e-15
3.27398
-1.84575e-15
3.27398
-1.6237e-15
3.27398
-1.41553e-15
3.27398
-1.38778e-15
3.27398
-1.4988e-15
3.27398
-1.52656e-15
3.27398
-1.38778e-15
3.27398
-1.23512e-15
3.27398
-1.11022e-15
3.27398
-1.17961e-15
3.27398
-1.42941e-15
3.27398
-1.6237e-15
3.27398
-1.84575e-15
3.27398
-2.05391e-15
3.27398
-2.30371e-15
3.27398
-2.42861e-15
3.27398
-2.44249e-15
3.27398
-2.6229e-15
3.27398
-2.77556e-15
3.27398
-2.7478e-15
3.27398
-2.6229e-15
3.27398
-2.6229e-15
3.27398
-2.73392e-15
3.27398
-2.91434e-15
3.27398
-3.10862e-15
3.27398
-2.95597e-15
3.27398
-2.69229e-15
3.27398
-2.45637e-15
3.27398
-2.23432e-15
3.27398
-2.04003e-15
3.27398
-1.88738e-15
3.27398
-1.69309e-15
3.27398
-1.56819e-15
3.27398
-1.58207e-15
3.27398
-1.76248e-15
3.27398
-1.95677e-15
3.27398
-1.83187e-15
3.27398
-1.42941e-15
3.27398
-9.15934e-16
3.27398
-4.02456e-16
3.27398
-1.52656e-16
3.27398
-5.55112e-17
3.27398
-1.38778e-17
3.27398
-1.38778e-16
3.27398
-2.77556e-16
3.27398
-2.08167e-16
3.27398
-6.93889e-17
3.27398
-1.11022e-16
3.27398
-5.27356e-16
3.27398
-1.09635e-15
3.27398
-1.65146e-15
3.27398
-1.81799e-15
3.27398
-1.69309e-15
3.27398
-1.44329e-15
3.27398
-1.22125e-15
3.27398
-1.11022e-15
3.27398
-1.06859e-15
3.27398
-1.22125e-15
3.27398
-1.3739e-15
3.27398
-1.63758e-15
3.27398
-2.02616e-15
3.27398
-2.22045e-15
3.27398
-2.20657e-15
3.27398
-2.10942e-15
3.27398
-2.05391e-15
3.27398
-2.01228e-15
3.27398
-1.88738e-15
3.27398
-1.66533e-15
3.27398
-1.41553e-15
3.27398
-1.30451e-15
3.27398
-1.19349e-15
3.27398
-1.09635e-15
3.27398
-9.15934e-16
3.27398
-7.77156e-16
3.27398
-6.245e-16
3.27398
-3.60822e-16
3.27398
-8.32667e-17
3.27398
1.52656e-16
3.27398
2.498e-16
3.27398
1.38778e-16
3.27398
8.32667e-17
3.27398
1.66533e-16
3.27398
3.05311e-16
3.27398
4.57967e-16
3.27398
7.07767e-16
3.27398
1.02696e-15
3.27398
1.51268e-15
3.27398
2.28983e-15
3.27398
3.6221e-15
3.27398
6.07847e-15
3.27398
1.02279e-14
3.27398
1.73611e-14
3.27398
2.94625e-14
3.27398
4.95437e-14
3.27398
8.26561e-14
3.27398
1.37237e-13
3.27398
2.27471e-13
3.27398
3.76643e-13
3.27398
6.23529e-13
3.27398
1.03194e-12
3.27398
1.70769e-12
3.27398
2.82671e-12
3.27398
4.68069e-12
3.27398
7.75309e-12
3.27398
1.28467e-11
3.27398
2.12941e-11
3.27398
3.53085e-11
3.27398
5.8567e-11
3.27398
9.7182e-11
3.27398
1.61318e-10
3.27398
2.67885e-10
3.27398
4.45029e-10
3.27398
7.39615e-10
3.27398
1.22972e-09
3.27398
2.04545e-09
3.27398
3.40378e-09
3.27398
5.66665e-09
3.27398
9.43812e-09
3.27398
1.57269e-08
3.27398
2.62179e-08
3.27398
4.37277e-08
3.27398
7.29656e-08
3.27398
1.21811e-07
3.27398
2.03449e-07
3.27398
3.39964e-07
3.27398
5.68349e-07
3.27398
9.50604e-07
3.27398
1.59069e-06
3.27398
2.66299e-06
3.27398
4.46015e-06
3.27397
7.47342e-06
3.27397
1.25279e-05
3.27397
2.10095e-05
3.27396
3.52482e-05
3.27395
5.91616e-05
3.27393
9.93417e-05
3.2739
0.00016689
3.27386
0.000280527
3.27381
0.000471886
3.27375
0.00079457
3.27369
0.00133991
3.27367
0.00226447
3.27381
0.00384019
3.27439
0.0065434
3.27608
0.0112333
3.28067
0.0194243
0.0340132
3.29194
3.27398
-1.11022e-16
3.27398
-1.94289e-16
3.27398
-2.08167e-16
3.27398
-1.52656e-16
3.27398
-1.11022e-16
3.27398
-1.66533e-16
3.27398
-2.08167e-16
3.27398
-3.33067e-16
3.27398
-4.44089e-16
3.27398
-3.747e-16
3.27398
-2.498e-16
3.27398
-8.32667e-17
3.27398
2.77556e-17
3.27398
1.11022e-16
3.27398
5.55112e-17
3.27398
-4.16334e-17
3.27398
-1.66533e-16
3.27398
-3.33067e-16
3.27398
-3.88578e-16
3.27398
-4.44089e-16
3.27398
-4.30211e-16
3.27398
-3.88578e-16
3.27398
-3.88578e-16
3.27398
-6.52256e-16
3.27398
-1.02696e-15
3.27398
-1.40166e-15
3.27398
-1.60982e-15
3.27398
-1.70697e-15
3.27398
-1.83187e-15
3.27398
-1.91513e-15
3.27398
-1.8735e-15
3.27398
-1.84575e-15
3.27398
-1.73472e-15
3.27398
-1.52656e-15
3.27398
-1.36002e-15
3.27398
-1.09635e-15
3.27398
-8.18789e-16
3.27398
-6.66134e-16
3.27398
-7.07767e-16
3.27398
-8.88178e-16
3.27398
-9.57567e-16
3.27398
-9.29812e-16
3.27398
-8.46545e-16
3.27398
-8.32667e-16
3.27398
-8.32667e-16
3.27398
-8.46545e-16
3.27398
-7.91034e-16
3.27398
-7.07767e-16
3.27398
-6.80012e-16
3.27398
-8.18789e-16
3.27398
-9.57567e-16
3.27398
-9.71445e-16
3.27398
-9.99201e-16
3.27398
-1.16573e-15
3.27398
-1.30451e-15
3.27398
-1.40166e-15
3.27398
-1.36002e-15
3.27398
-1.29063e-15
3.27398
-1.3739e-15
3.27398
-1.33227e-15
3.27398
-1.16573e-15
3.27398
-1.05471e-15
3.27398
-9.85323e-16
3.27398
-1.02696e-15
3.27398
-1.04083e-15
3.27398
-1.04083e-15
3.27398
-1.15186e-15
3.27398
-1.11022e-15
3.27398
-1.09635e-15
3.27398
-1.19349e-15
3.27398
-1.22125e-15
3.27398
-1.19349e-15
3.27398
-1.1241e-15
3.27398
-9.15934e-16
3.27398
-7.91034e-16
3.27398
-8.32667e-16
3.27398
-1.08247e-15
3.27398
-1.45717e-15
3.27398
-1.72085e-15
3.27398
-1.83187e-15
3.27398
-1.90126e-15
3.27398
-1.92901e-15
3.27398
-1.84575e-15
3.27398
-1.81799e-15
3.27398
-1.77636e-15
3.27398
-1.84575e-15
3.27398
-2.08167e-15
3.27398
-2.26208e-15
3.27398
-2.15106e-15
3.27398
-1.98452e-15
3.27398
-1.76248e-15
3.27398
-1.63758e-15
3.27398
-1.65146e-15
3.27398
-1.76248e-15
3.27398
-1.90126e-15
3.27398
-2.09555e-15
3.27398
-2.3731e-15
3.27398
-2.60902e-15
3.27398
-2.67841e-15
3.27398
-2.66454e-15
3.27398
-2.55351e-15
3.27398
-2.60902e-15
3.27398
-2.83107e-15
3.27398
-3.09475e-15
3.27398
-3.17801e-15
3.27398
-3.09475e-15
3.27398
-2.94209e-15
3.27398
-2.67841e-15
3.27398
-2.48412e-15
3.27398
-2.45637e-15
3.27398
-2.47025e-15
3.27398
-2.38698e-15
3.27398
-2.31759e-15
3.27398
-2.20657e-15
3.27398
-2.08167e-15
3.27398
-1.88738e-15
3.27398
-1.85962e-15
3.27398
-2.01228e-15
3.27398
-2.13718e-15
3.27398
-2.23432e-15
3.27398
-2.27596e-15
3.27398
-2.28983e-15
3.27398
-2.23432e-15
3.27398
-2.17881e-15
3.27398
-1.97065e-15
3.27398
-1.6237e-15
3.27398
-1.30451e-15
3.27398
-1.09635e-15
3.27398
-1.01308e-15
3.27398
-1.05471e-15
3.27398
-1.34615e-15
3.27398
-1.76248e-15
3.27398
-2.22045e-15
3.27398
-2.34535e-15
3.27398
-2.34535e-15
3.27398
-2.38698e-15
3.27398
-2.35922e-15
3.27398
-2.3731e-15
3.27398
-2.44249e-15
3.27398
-2.42861e-15
3.27398
-2.31759e-15
3.27398
-2.1233e-15
3.27398
-1.95677e-15
3.27398
-1.95677e-15
3.27398
-2.23432e-15
3.27398
-2.55351e-15
3.27398
-2.67841e-15
3.27398
-2.59515e-15
3.27398
-2.41474e-15
3.27398
-2.20657e-15
3.27398
-1.81799e-15
3.27398
-1.36002e-15
3.27398
-9.57567e-16
3.27398
-8.46545e-16
3.27398
-9.85323e-16
3.27398
-1.01308e-15
3.27398
-9.99201e-16
3.27398
-9.02056e-16
3.27398
-8.04912e-16
3.27398
-8.04912e-16
3.27398
-1.02696e-15
3.27398
-1.33227e-15
3.27398
-1.72085e-15
3.27398
-2.08167e-15
3.27398
-2.40086e-15
3.27398
-2.33147e-15
3.27398
-2.10942e-15
3.27398
-1.90126e-15
3.27398
-1.84575e-15
3.27398
-1.70697e-15
3.27398
-1.58207e-15
3.27398
-1.72085e-15
3.27398
-1.7486e-15
3.27398
-1.77636e-15
3.27398
-1.94289e-15
3.27398
-2.34535e-15
3.27398
-2.84495e-15
3.27398
-3.31679e-15
3.27398
-3.6221e-15
3.27398
-3.46945e-15
3.27398
-3.08087e-15
3.27398
-2.88658e-15
3.27398
-2.80331e-15
3.27398
-2.76168e-15
3.27398
-2.72005e-15
3.27398
-2.70617e-15
3.27398
-2.73392e-15
3.27398
-2.59515e-15
3.27398
-2.28983e-15
3.27398
-2.1233e-15
3.27398
-2.08167e-15
3.27398
-2.19269e-15
3.27398
-2.33147e-15
3.27398
-2.33147e-15
3.27398
-2.13718e-15
3.27398
-1.70697e-15
3.27398
-1.27676e-15
3.27398
-1.06859e-15
3.27398
-1.02696e-15
3.27398
-1.02696e-15
3.27398
-9.71445e-16
3.27398
-7.49401e-16
3.27398
-5.82867e-16
3.27398
-4.44089e-16
3.27398
-3.46945e-16
3.27398
-3.19189e-16
3.27398
-4.57967e-16
3.27398
-8.18789e-16
3.27398
-1.30451e-15
3.27398
-1.7486e-15
3.27398
-1.98452e-15
3.27398
-2.16493e-15
3.27398
-2.2482e-15
3.27398
-2.1233e-15
3.27398
-2.01228e-15
3.27398
-1.98452e-15
3.27398
-1.85962e-15
3.27398
-1.48492e-15
3.27398
-1.02696e-15
3.27398
-5.55112e-16
3.27398
-3.05311e-16
3.27398
-2.91434e-16
3.27398
-4.57967e-16
3.27398
-7.63278e-16
3.27398
-9.99201e-16
3.27398
-1.06859e-15
3.27398
-9.57567e-16
3.27398
-8.46545e-16
3.27398
-7.49401e-16
3.27398
-7.49401e-16
3.27398
-6.66134e-16
3.27398
-4.71845e-16
3.27398
-2.22045e-16
3.27398
1.38778e-17
3.27398
6.93889e-17
3.27398
1.52656e-16
3.27398
3.46945e-16
3.27398
5.82867e-16
3.27398
9.99201e-16
3.27398
1.80411e-15
3.27398
3.03924e-15
3.27398
5.02376e-15
3.27398
8.32667e-15
3.27398
1.38917e-14
3.27398
2.32037e-14
3.27398
3.86496e-14
3.27398
6.40737e-14
3.27398
1.0586e-13
3.27398
1.74624e-13
3.27398
2.877e-13
3.27398
4.73815e-13
3.27398
7.80556e-13
3.27398
1.28612e-12
3.27398
2.11979e-12
3.27398
3.49458e-12
3.27398
5.76177e-12
3.27398
9.5014e-12
3.27398
1.56706e-11
3.27398
2.58494e-11
3.27398
4.26459e-11
3.27398
7.03665e-11
3.27398
1.16123e-10
3.27398
1.91661e-10
3.27398
3.16382e-10
3.27398
5.22338e-10
3.27398
8.62484e-10
3.27398
1.42432e-09
3.27398
2.35246e-09
3.27398
3.88586e-09
3.27398
6.4195e-09
3.27398
1.06062e-08
3.27398
1.7525e-08
3.27398
2.89595e-08
3.27398
4.78576e-08
3.27398
7.90921e-08
3.27398
1.30716e-07
3.27398
2.16036e-07
3.27398
3.5704e-07
3.27398
5.90052e-07
3.27398
9.75063e-07
3.27398
1.61113e-06
3.27398
2.66175e-06
3.27398
4.39669e-06
3.27398
7.26083e-06
3.27398
1.19875e-05
3.27398
1.97848e-05
3.27398
3.26415e-05
3.27399
5.38297e-05
3.274
8.87288e-05
3.27402
0.000146178
3.27406
0.000240693
3.27414
0.000396111
3.27428
0.000651588
3.27455
0.00107157
3.27505
0.00176228
3.27598
0.00290025
3.27775
0.00477894
3.28107
0.00789888
3.2874
0.0130879
0.0218603
3.29954
3.27398
1.38778e-17
3.27398
1.38778e-17
3.27398
2.77556e-17
3.27398
1.38778e-17
3.27398
-5.55112e-17
3.27398
-6.93889e-17
3.27398
-5.55112e-17
3.27398
-4.16334e-17
3.27398
-1.38778e-17
3.27398
1.11022e-16
3.27398
2.08167e-16
3.27398
2.35922e-16
3.27398
3.46945e-16
3.27398
4.71845e-16
3.27398
4.996e-16
3.27398
4.85723e-16
3.27398
4.30211e-16
3.27398
4.16334e-16
3.27398
2.63678e-16
3.27398
1.52656e-16
3.27398
8.32667e-17
3.27398
-1.38778e-17
3.27398
-1.80411e-16
3.27398
-3.60822e-16
3.27398
-5.96745e-16
3.27398
-8.60423e-16
3.27398
-1.09635e-15
3.27398
-1.27676e-15
3.27398
-1.33227e-15
3.27398
-1.40166e-15
3.27398
-1.47105e-15
3.27398
-1.38778e-15
3.27398
-1.27676e-15
3.27398
-1.249e-15
3.27398
-1.22125e-15
3.27398
-1.09635e-15
3.27398
-9.85323e-16
3.27398
-1.01308e-15
3.27398
-1.09635e-15
3.27398
-1.06859e-15
3.27398
-9.71445e-16
3.27398
-7.91034e-16
3.27398
-6.38378e-16
3.27398
-5.41234e-16
3.27398
-5.68989e-16
3.27398
-6.245e-16
3.27398
-6.52256e-16
3.27398
-7.35523e-16
3.27398
-9.15934e-16
3.27398
-8.74301e-16
3.27398
-6.66134e-16
3.27398
-5.55112e-16
3.27398
-5.55112e-16
3.27398
-5.68989e-16
3.27398
-5.55112e-16
3.27398
-6.80012e-16
3.27398
-8.46545e-16
3.27398
-1.02696e-15
3.27398
-9.57567e-16
3.27398
-7.91034e-16
3.27398
-6.10623e-16
3.27398
-6.245e-16
3.27398
-7.07767e-16
3.27398
-9.57567e-16
3.27398
-1.31839e-15
3.27398
-1.51268e-15
3.27398
-1.48492e-15
3.27398
-1.54043e-15
3.27398
-1.51268e-15
3.27398
-1.59595e-15
3.27398
-1.58207e-15
3.27398
-1.38778e-15
3.27398
-1.15186e-15
3.27398
-1.02696e-15
3.27398
-9.57567e-16
3.27398
-9.57567e-16
3.27398
-9.85323e-16
3.27398
-1.01308e-15
3.27398
-1.02696e-15
3.27398
-1.01308e-15
3.27398
-1.09635e-15
3.27398
-1.249e-15
3.27398
-1.54043e-15
3.27398
-1.63758e-15
3.27398
-1.6237e-15
3.27398
-1.42941e-15
3.27398
-1.31839e-15
3.27398
-1.45717e-15
3.27398
-1.66533e-15
3.27398
-1.72085e-15
3.27398
-1.8735e-15
3.27398
-1.97065e-15
3.27398
-2.06779e-15
3.27398
-2.13718e-15
3.27398
-2.20657e-15
3.27398
-2.34535e-15
3.27398
-2.44249e-15
3.27398
-2.58127e-15
3.27398
-2.8727e-15
3.27398
-3.16414e-15
3.27398
-3.30291e-15
3.27398
-3.33067e-15
3.27398
-3.35842e-15
3.27398
-3.45557e-15
3.27398
-3.66374e-15
3.27398
-3.81639e-15
3.27398
-3.80251e-15
3.27398
-3.73312e-15
3.27398
-3.59435e-15
3.27398
-3.33067e-15
3.27398
-3.09475e-15
3.27398
-2.88658e-15
3.27398
-2.67841e-15
3.27398
-2.60902e-15
3.27398
-2.45637e-15
3.27398
-2.30371e-15
3.27398
-2.1233e-15
3.27398
-2.10942e-15
3.27398
-2.20657e-15
3.27398
-2.22045e-15
3.27398
-2.08167e-15
3.27398
-1.92901e-15
3.27398
-1.88738e-15
3.27398
-1.73472e-15
3.27398
-1.60982e-15
3.27398
-1.59595e-15
3.27398
-1.67921e-15
3.27398
-1.76248e-15
3.27398
-1.8735e-15
3.27398
-1.84575e-15
3.27398
-1.81799e-15
3.27398
-1.83187e-15
3.27398
-1.85962e-15
3.27398
-1.9984e-15
3.27398
-2.13718e-15
3.27398
-2.17881e-15
3.27398
-2.22045e-15
3.27398
-2.27596e-15
3.27398
-2.13718e-15
3.27398
-1.97065e-15
3.27398
-1.90126e-15
3.27398
-1.77636e-15
3.27398
-1.56819e-15
3.27398
-1.56819e-15
3.27398
-1.76248e-15
3.27398
-1.91513e-15
3.27398
-1.83187e-15
3.27398
-1.60982e-15
3.27398
-1.48492e-15
3.27398
-1.36002e-15
3.27398
-1.23512e-15
3.27398
-1.22125e-15
3.27398
-1.31839e-15
3.27398
-1.44329e-15
3.27398
-1.69309e-15
3.27398
-1.8735e-15
3.27398
-1.73472e-15
3.27398
-1.44329e-15
3.27398
-1.30451e-15
3.27398
-1.47105e-15
3.27398
-1.85962e-15
3.27398
-2.26208e-15
3.27398
-2.38698e-15
3.27398
-2.45637e-15
3.27398
-2.44249e-15
3.27398
-2.52576e-15
3.27398
-2.52576e-15
3.27398
-2.42861e-15
3.27398
-2.31759e-15
3.27398
-2.16493e-15
3.27398
-1.9984e-15
3.27398
-1.79023e-15
3.27398
-1.73472e-15
3.27398
-1.84575e-15
3.27398
-2.16493e-15
3.27398
-2.31759e-15
3.27398
-2.30371e-15
3.27398
-2.10942e-15
3.27398
-1.92901e-15
3.27398
-1.81799e-15
3.27398
-1.84575e-15
3.27398
-1.94289e-15
3.27398
-2.06779e-15
3.27398
-2.22045e-15
3.27398
-2.3731e-15
3.27398
-2.55351e-15
3.27398
-2.69229e-15
3.27398
-2.69229e-15
3.27398
-2.56739e-15
3.27398
-2.40086e-15
3.27398
-2.45637e-15
3.27398
-2.7478e-15
3.27398
-3.03924e-15
3.27398
-3.05311e-15
3.27398
-2.81719e-15
3.27398
-2.6229e-15
3.27398
-2.3731e-15
3.27398
-1.9984e-15
3.27398
-1.7486e-15
3.27398
-1.63758e-15
3.27398
-1.69309e-15
3.27398
-1.81799e-15
3.27398
-1.85962e-15
3.27398
-1.76248e-15
3.27398
-1.70697e-15
3.27398
-1.83187e-15
3.27398
-1.9984e-15
3.27398
-2.15106e-15
3.27398
-2.27596e-15
3.27398
-2.35922e-15
3.27398
-2.22045e-15
3.27398
-1.83187e-15
3.27398
-1.33227e-15
3.27398
-1.09635e-15
3.27398
-8.74301e-16
3.27398
-8.74301e-16
3.27398
-1.01308e-15
3.27398
-9.85323e-16
3.27398
-6.80012e-16
3.27398
-3.19189e-16
3.27398
1.249e-16
3.27398
4.44089e-16
3.27398
4.44089e-16
3.27398
2.91434e-16
3.27398
2.22045e-16
3.27398
2.77556e-16
3.27398
3.46945e-16
3.27398
2.63678e-16
3.27398
1.38778e-16
3.27398
8.32667e-17
3.27398
2.77556e-17
3.27398
8.32667e-17
3.27398
2.63678e-16
3.27398
3.05311e-16
3.27398
2.22045e-16
3.27398
2.08167e-16
3.27398
3.05311e-16
3.27398
6.245e-16
3.27398
1.08247e-15
3.27398
1.95677e-15
3.27398
3.48332e-15
3.27398
5.82867e-15
3.27398
9.39526e-15
3.27398
1.53627e-14
3.27398
2.52576e-14
3.27398
4.14252e-14
3.27398
6.81399e-14
3.27398
1.12244e-13
3.27398
1.84935e-13
3.27398
3.04326e-13
3.27398
5.00197e-13
3.27398
8.21176e-13
3.27398
1.34789e-12
3.27398
2.21248e-12
3.27398
3.63144e-12
3.27398
5.95995e-12
3.27398
9.78058e-12
3.27398
1.60497e-11
3.27398
2.63366e-11
3.27398
4.3216e-11
3.27398
7.09112e-11
3.27398
1.1635e-10
3.27398
1.90897e-10
3.27398
3.13189e-10
3.27398
5.13787e-10
3.27398
8.428e-10
3.27398
1.38238e-09
3.27398
2.26716e-09
3.27398
3.71778e-09
3.27398
6.09572e-09
3.27398
9.99307e-09
3.27398
1.63793e-08
3.27398
2.68415e-08
3.27398
4.39764e-08
3.27398
7.20321e-08
3.27398
1.17954e-07
3.27398
1.93093e-07
3.27398
3.15989e-07
3.27398
5.16911e-07
3.27398
8.45241e-07
3.27398
1.38149e-06
3.27398
2.25683e-06
3.27398
3.68479e-06
3.27398
6.01265e-06
3.27398
9.80474e-06
3.27399
1.59771e-05
3.274
2.60151e-05
3.27401
4.23247e-05
3.27403
6.87979e-05
3.27406
0.000111725
3.27412
0.000181257
3.27422
0.000293769
3.2744
0.000475648
3.2747
0.00076945
3.27522
0.00124376
3.27611
0.00200978
3.27763
0.00324716
3.28028
0.00525293
3.28485
0.00850237
0.0138389
3.29287
3.27398
9.71445e-17
3.27398
1.80411e-16
3.27398
2.08167e-16
3.27398
1.80411e-16
3.27398
1.249e-16
3.27398
1.11022e-16
3.27398
1.66533e-16
3.27398
3.19189e-16
3.27398
4.30211e-16
3.27398
4.44089e-16
3.27398
4.02456e-16
3.27398
3.33067e-16
3.27398
3.88578e-16
3.27398
3.60822e-16
3.27398
2.91434e-16
3.27398
2.22045e-16
3.27398
4.30211e-16
3.27398
7.21645e-16
3.27398
8.46545e-16
3.27398
7.07767e-16
3.27398
5.27356e-16
3.27398
2.08167e-16
3.27398
-8.32667e-17
3.27398
-1.94289e-16
3.27398
-1.38778e-16
3.27398
-5.55112e-17
3.27398
4.16334e-17
3.27398
6.93889e-17
3.27398
4.16334e-17
3.27398
-4.16334e-17
3.27398
-5.55112e-17
3.27398
-6.93889e-17
3.27398
-1.80411e-16
3.27398
-4.996e-16
3.27398
-7.77156e-16
3.27398
-1.05471e-15
3.27398
-1.30451e-15
3.27398
-1.33227e-15
3.27398
-1.15186e-15
3.27398
-1.06859e-15
3.27398
-1.04083e-15
3.27398
-1.11022e-15
3.27398
-1.20737e-15
3.27398
-1.26288e-15
3.27398
-1.20737e-15
3.27398
-1.20737e-15
3.27398
-1.26288e-15
3.27398
-1.31839e-15
3.27398
-1.23512e-15
3.27398
-1.08247e-15
3.27398
-1.08247e-15
3.27398
-1.26288e-15
3.27398
-1.44329e-15
3.27398
-1.42941e-15
3.27398
-1.13798e-15
3.27398
-9.02056e-16
3.27398
-9.71445e-16
3.27398
-9.71445e-16
3.27398
-9.4369e-16
3.27398
-9.4369e-16
3.27398
-8.88178e-16
3.27398
-8.18789e-16
3.27398
-8.74301e-16
3.27398
-9.29812e-16
3.27398
-1.06859e-15
3.27398
-1.33227e-15
3.27398
-1.48492e-15
3.27398
-1.52656e-15
3.27398
-1.58207e-15
3.27398
-1.4988e-15
3.27398
-1.40166e-15
3.27398
-1.13798e-15
3.27398
-8.60423e-16
3.27398
-8.18789e-16
3.27398
-9.15934e-16
3.27398
-8.88178e-16
3.27398
-7.35523e-16
3.27398
-5.82867e-16
3.27398
-4.85723e-16
3.27398
-3.88578e-16
3.27398
-3.19189e-16
3.27398
-4.30211e-16
3.27398
-6.66134e-16
3.27398
-8.74301e-16
3.27398
-9.99201e-16
3.27398
-1.06859e-15
3.27398
-1.11022e-15
3.27398
-1.09635e-15
3.27398
-1.27676e-15
3.27398
-1.54043e-15
3.27398
-1.80411e-15
3.27398
-2.1233e-15
3.27398
-2.34535e-15
3.27398
-2.42861e-15
3.27398
-2.44249e-15
3.27398
-2.2482e-15
3.27398
-2.20657e-15
3.27398
-2.23432e-15
3.27398
-2.30371e-15
3.27398
-2.34535e-15
3.27398
-2.55351e-15
3.27398
-2.7478e-15
3.27398
-2.85882e-15
3.27398
-2.73392e-15
3.27398
-2.69229e-15
3.27398
-2.84495e-15
3.27398
-3.10862e-15
3.27398
-3.40006e-15
3.27398
-3.2474e-15
3.27398
-2.70617e-15
3.27398
-2.30371e-15
3.27398
-2.28983e-15
3.27398
-2.38698e-15
3.27398
-2.40086e-15
3.27398
-2.40086e-15
3.27398
-2.41474e-15
3.27398
-2.41474e-15
3.27398
-2.38698e-15
3.27398
-2.41474e-15
3.27398
-2.51188e-15
3.27398
-2.498e-15
3.27398
-2.48412e-15
3.27398
-2.41474e-15
3.27398
-2.40086e-15
3.27398
-2.41474e-15
3.27398
-2.498e-15
3.27398
-2.55351e-15
3.27398
-2.65066e-15
3.27398
-2.60902e-15
3.27398
-2.38698e-15
3.27398
-1.97065e-15
3.27398
-1.42941e-15
3.27398
-8.74301e-16
3.27398
-5.27356e-16
3.27398
-4.30211e-16
3.27398
-4.996e-16
3.27398
-6.10623e-16
3.27398
-6.66134e-16
3.27398
-7.49401e-16
3.27398
-8.88178e-16
3.27398
-1.08247e-15
3.27398
-1.27676e-15
3.27398
-1.51268e-15
3.27398
-1.65146e-15
3.27398
-1.73472e-15
3.27398
-1.81799e-15
3.27398
-1.88738e-15
3.27398
-1.83187e-15
3.27398
-1.83187e-15
3.27398
-1.92901e-15
3.27398
-2.01228e-15
3.27398
-2.15106e-15
3.27398
-2.41474e-15
3.27398
-2.67841e-15
3.27398
-2.83107e-15
3.27398
-2.9976e-15
3.27398
-2.9976e-15
3.27398
-2.96985e-15
3.27398
-2.98372e-15
3.27398
-3.10862e-15
3.27398
-3.16414e-15
3.27398
-3.1225e-15
3.27398
-2.88658e-15
3.27398
-2.56739e-15
3.27398
-2.3731e-15
3.27398
-2.42861e-15
3.27398
-2.56739e-15
3.27398
-2.65066e-15
3.27398
-2.66454e-15
3.27398
-2.70617e-15
3.27398
-2.65066e-15
3.27398
-2.42861e-15
3.27398
-2.2482e-15
3.27398
-2.3731e-15
3.27398
-2.55351e-15
3.27398
-2.51188e-15
3.27398
-2.23432e-15
3.27398
-1.85962e-15
3.27398
-1.66533e-15
3.27398
-1.65146e-15
3.27398
-1.67921e-15
3.27398
-1.72085e-15
3.27398
-1.80411e-15
3.27398
-1.72085e-15
3.27398
-1.58207e-15
3.27398
-1.41553e-15
3.27398
-1.31839e-15
3.27398
-1.3739e-15
3.27398
-1.51268e-15
3.27398
-1.66533e-15
3.27398
-1.76248e-15
3.27398
-1.88738e-15
3.27398
-1.8735e-15
3.27398
-1.85962e-15
3.27398
-1.90126e-15
3.27398
-1.92901e-15
3.27398
-1.90126e-15
3.27398
-1.91513e-15
3.27398
-1.85962e-15
3.27398
-1.91513e-15
3.27398
-2.05391e-15
3.27398
-2.2482e-15
3.27398
-2.33147e-15
3.27398
-2.40086e-15
3.27398
-2.498e-15
3.27398
-2.53964e-15
3.27398
-2.44249e-15
3.27398
-2.23432e-15
3.27398
-2.08167e-15
3.27398
-1.97065e-15
3.27398