/*--------------------------------*- C++ -*----------------------------------*\
| =========                 |                                                 |
| \\      /  F ield         | OpenFOAM: The Open Source CFD Toolbox           |
|  \\    /   O peration     | Version:  2412                                  |
|   \\  /    A nd           | Website:  www.openfoam.com                      |
|    \\/     M anipulation  |                                                 |
\*---------------------------------------------------------------------------*/
FoamFile
{
    version     2.0;
    format      ascii;
    arch        "LSB;label=32;scalar=64";
    class       surfaceScalarField;
    location    "0.0025";
    object      phi_0;
}
// * * * * * * * * * * * * * * * * * * * * * * * * * * * * * * * * * * * * * //

dimensions      [1 0 -1 0 0 0 0];

oriented        oriented;

internalField   nonuniform List<scalar> 
359100
(
3.27398
4.16334e-17
3.27398
8.32667e-17
3.27398
1.11022e-16
3.27398
-1.38778e-17
3.27398
-1.38778e-16
3.27398
-1.11022e-16
3.27398
-1.66533e-16
3.27398
-2.08167e-16
3.27398
-3.46945e-16
3.27398
-3.747e-16
3.27398
-5.82867e-16
3.27398
-9.15934e-16
3.27398
-1.01308e-15
3.27398
-9.85323e-16
3.27398
-9.99201e-16
3.27398
-1.23512e-15
3.27398
-1.31839e-15
3.27398
-1.42941e-15
3.27398
-1.42941e-15
3.27398
-1.44329e-15
3.27398
-1.52656e-15
3.27398
-1.56819e-15
3.27398
-1.41553e-15
3.27398
-1.1241e-15
3.27398
-7.77156e-16
3.27398
-7.63278e-16
3.27398
-9.29812e-16
3.27398
-1.01308e-15
3.27398
-1.06859e-15
3.27398
-1.05471e-15
3.27398
-1.05471e-15
3.27398
-1.1241e-15
3.27398
-1.23512e-15
3.27398
-1.34615e-15
3.27398
-1.38778e-15
3.27398
-1.51268e-15
3.27398
-1.55431e-15
3.27398
-1.45717e-15
3.27398
-1.27676e-15
3.27398
-1.23512e-15
3.27398
-1.09635e-15
3.27398
-9.99201e-16
3.27398
-9.29812e-16
3.27398
-7.21645e-16
3.27398
-6.38378e-16
3.27398
-5.82867e-16
3.27398
-6.245e-16
3.27398
-7.21645e-16
3.27398
-7.91034e-16
3.27398
-8.18789e-16
3.27398
-7.49401e-16
3.27398
-7.21645e-16
3.27398
-7.35523e-16
3.27398
-1.05471e-15
3.27398
-1.36002e-15
3.27398
-1.54043e-15
3.27398
-1.60982e-15
3.27398
-1.60982e-15
3.27398
-1.6237e-15
3.27398
-1.4988e-15
3.27398
-1.30451e-15
3.27398
-1.20737e-15
3.27398
-1.17961e-15
3.27398
-1.23512e-15
3.27398
-1.31839e-15
3.27398
-1.45717e-15
3.27398
-1.63758e-15
3.27398
-1.80411e-15
3.27398
-1.92901e-15
3.27398
-2.06779e-15
3.27398
-2.10942e-15
3.27398
-2.09555e-15
3.27398
-2.30371e-15
3.27398
-2.48412e-15
3.27398
-2.52576e-15
3.27398
-2.42861e-15
3.27398
-2.16493e-15
3.27398
-2.02616e-15
3.27398
-1.91513e-15
3.27398
-1.7486e-15
3.27398
-1.52656e-15
3.27398
-1.3739e-15
3.27398
-1.36002e-15
3.27398
-1.38778e-15
3.27398
-1.27676e-15
3.27398
-1.19349e-15
3.27398
-1.30451e-15
3.27398
-1.4988e-15
3.27398
-1.83187e-15
3.27398
-2.10942e-15
3.27398
-2.23432e-15
3.27398
-2.28983e-15
3.27398
-2.34535e-15
3.27398
-2.33147e-15
3.27398
-2.13718e-15
3.27398
-1.9984e-15
3.27398
-1.94289e-15
3.27398
-2.13718e-15
3.27398
-2.34535e-15
3.27398
-2.35922e-15
3.27398
-2.20657e-15
3.27398
-1.95677e-15
3.27398
-1.72085e-15
3.27398
-1.65146e-15
3.27398
-1.77636e-15
3.27398
-1.92901e-15
3.27398
-2.1233e-15
3.27398
-2.30371e-15
3.27398
-2.45637e-15
3.27398
-2.63678e-15
3.27398
-2.73392e-15
3.27398
-2.63678e-15
3.27398
-2.6229e-15
3.27398
-2.72005e-15
3.27398
-2.80331e-15
3.27398
-2.72005e-15
3.27398
-2.33147e-15
3.27398
-1.73472e-15
3.27398
-1.27676e-15
3.27398
-1.09635e-15
3.27398
-1.11022e-15
3.27398
-1.23512e-15
3.27398
-1.41553e-15
3.27398
-1.59595e-15
3.27398
-1.7486e-15
3.27398
-1.94289e-15
3.27398
-2.06779e-15
3.27398
-2.26208e-15
3.27398
-2.59515e-15
3.27398
-2.78944e-15
3.27398
-2.77556e-15
3.27398
-2.90046e-15
3.27398
-3.06699e-15
3.27398
-3.09475e-15
3.27398
-3.02536e-15
3.27398
-2.90046e-15
3.27398
-2.81719e-15
3.27398
-2.78944e-15
3.27398
-2.60902e-15
3.27398
-2.38698e-15
3.27398
-2.2482e-15
3.27398
-2.16493e-15
3.27398
-2.17881e-15
3.27398
-2.1233e-15
3.27398
-1.85962e-15
3.27398
-1.59595e-15
3.27398
-1.51268e-15
3.27398
-1.4988e-15
3.27398
-1.6237e-15
3.27398
-1.92901e-15
3.27398
-2.20657e-15
3.27398
-2.17881e-15
3.27398
-1.98452e-15
3.27398
-1.8735e-15
3.27398
-1.94289e-15
3.27398
-2.15106e-15
3.27398
-2.3731e-15
3.27398
-2.52576e-15
3.27398
-2.44249e-15
3.27398
-2.05391e-15
3.27398
-1.63758e-15
3.27398
-1.55431e-15
3.27398
-1.56819e-15
3.27398
-1.45717e-15
3.27398
-1.27676e-15
3.27398
-1.249e-15
3.27398
-1.17961e-15
3.27398
-1.13798e-15
3.27398
-1.3739e-15
3.27398
-1.72085e-15
3.27398
-2.06779e-15
3.27398
-2.35922e-15
3.27398
-2.59515e-15
3.27398
-2.66454e-15
3.27398
-2.69229e-15
3.27398
-2.66454e-15
3.27398
-2.52576e-15
3.27398
-2.28983e-15
3.27398
-2.02616e-15
3.27398
-1.83187e-15
3.27398
-1.6237e-15
3.27398
-1.47105e-15
3.27398
-1.45717e-15
3.27398
-1.54043e-15
3.27398
-1.51268e-15
3.27398
-1.47105e-15
3.27398
-1.42941e-15
3.27398
-1.36002e-15
3.27398
-1.17961e-15
3.27398
-7.91034e-16
3.27398
-2.498e-16
3.27398
2.08167e-16
3.27398
3.46945e-16
3.27398
2.498e-16
3.27398
-5.55112e-17
3.27398
-4.02456e-16
3.27398
-7.63278e-16
3.27398
-9.02056e-16
3.27398
-9.4369e-16
3.27398
-1.04083e-15
3.27398
-1.26288e-15
3.27398
-1.56819e-15
3.27398
-1.90126e-15
3.27398
-2.15106e-15
3.27398
-2.08167e-15
3.27398
-1.90126e-15
3.27398
-1.60982e-15
3.27398
-1.11022e-15
3.27398
-5.96745e-16
3.27398
-3.05311e-16
3.27398
-3.33067e-16
3.27398
-4.996e-16
3.27398
-7.35523e-16
3.27398
-1.06859e-15
3.27398
-1.42941e-15
3.27398
-1.7486e-15
3.27398
-2.02616e-15
3.27398
-2.38698e-15
3.27398
-2.65066e-15
3.27398
-2.66454e-15
3.27398
-2.66454e-15
3.27398
-2.6229e-15
3.27398
-2.42861e-15
3.27398
-2.35922e-15
3.27398
-2.40086e-15
3.27398
-2.34535e-15
3.27398
-2.02616e-15
3.27398
-1.60982e-15
3.27398
-1.15186e-15
3.27398
-7.35523e-16
3.27398
-5.82867e-16
3.27398
-6.10623e-16
3.27398
-7.63278e-16
3.27398
-8.46545e-16
3.27398
-7.21645e-16
3.27398
-5.27356e-16
3.27398
-3.88578e-16
3.27398
-2.08167e-16
3.27398
-1.38778e-17
3.27398
1.66533e-16
3.27398
5.55112e-16
3.27398
1.30451e-15
3.27398
2.70617e-15
3.27398
5.25968e-15
3.27398
9.47853e-15
3.27398
1.63203e-14
3.27398
2.75058e-14
3.27398
4.588e-14
3.27398
7.6425e-14
3.27398
1.27093e-13
3.27398
2.11206e-13
3.27398
3.50858e-13
3.27398
5.82367e-13
3.27398
9.6656e-13
3.27398
1.60481e-12
3.27398
2.66601e-12
3.27398
4.4315e-12
3.27398
7.37013e-12
3.27398
1.22647e-11
3.27398
2.04224e-11
3.27398
3.40272e-11
3.27398
5.67317e-11
3.27398
9.46493e-11
3.27398
1.5802e-10
3.27398
2.64009e-10
3.27398
4.41423e-10
3.27398
7.38641e-10
3.27398
1.237e-09
3.27398
2.07338e-09
3.27398
3.47838e-09
3.27398
5.84093e-09
3.27398
9.81773e-09
3.27398
1.65189e-08
3.27398
2.78236e-08
3.27398
4.69165e-08
3.27398
7.92023e-08
3.27398
1.33866e-07
3.27398
2.26539e-07
3.27398
3.83865e-07
3.27398
6.51324e-07
3.27398
1.10668e-06
3.27398
1.88309e-06
3.27397
3.20902e-06
3.27397
5.47706e-06
3.27396
9.36311e-06
3.27394
1.60331e-05
3.27391
2.75024e-05
3.27387
4.72625e-05
3.27378
8.13778e-05
3.27364
0.000140411
3.2734
0.000242837
3.27298
0.000421091
3.27225
0.000732623
3.27097
0.00127974
3.26872
0.00224848
3.26473
0.00397909
3.2576
0.00712606
3.24467
0.0129307
3.22063
0.0240277
0.045293
3.17532
3.27398
5.55112e-17
3.27398
2.77556e-17
3.27398
2.77556e-17
3.27398
1.52656e-16
3.27398
2.77556e-16
3.27398
1.94289e-16
3.27398
9.71445e-17
3.27398
5.55112e-17
3.27398
6.93889e-17
3.27398
-8.32667e-17
3.27398
-2.22045e-16
3.27398
-3.60822e-16
3.27398
-4.16334e-16
3.27398
-4.44089e-16
3.27398
-4.44089e-16
3.27398
-4.16334e-16
3.27398
-4.57967e-16
3.27398
-6.245e-16
3.27398
-8.46545e-16
3.27398
-9.71445e-16
3.27398
-1.15186e-15
3.27398
-1.17961e-15
3.27398
-1.16573e-15
3.27398
-1.22125e-15
3.27398
-1.34615e-15
3.27398
-1.42941e-15
3.27398
-1.38778e-15
3.27398
-1.33227e-15
3.27398
-1.45717e-15
3.27398
-1.59595e-15
3.27398
-1.66533e-15
3.27398
-1.7486e-15
3.27398
-1.80411e-15
3.27398
-1.70697e-15
3.27398
-1.48492e-15
3.27398
-1.27676e-15
3.27398
-9.99201e-16
3.27398
-8.04912e-16
3.27398
-7.35523e-16
3.27398
-7.07767e-16
3.27398
-7.21645e-16
3.27398
-7.77156e-16
3.27398
-7.07767e-16
3.27398
-6.52256e-16
3.27398
-5.68989e-16
3.27398
-4.02456e-16
3.27398
-3.19189e-16
3.27398
-2.35922e-16
3.27398
-3.33067e-16
3.27398
-6.245e-16
3.27398
-1.02696e-15
3.27398
-1.19349e-15
3.27398
-1.31839e-15
3.27398
-1.40166e-15
3.27398
-1.4988e-15
3.27398
-1.6237e-15
3.27398
-1.69309e-15
3.27398
-1.83187e-15
3.27398
-2.02616e-15
3.27398
-2.06779e-15
3.27398
-1.95677e-15
3.27398
-1.67921e-15
3.27398
-1.40166e-15
3.27398
-1.23512e-15
3.27398
-1.249e-15
3.27398
-1.38778e-15
3.27398
-1.4988e-15
3.27398
-1.48492e-15
3.27398
-1.47105e-15
3.27398
-1.40166e-15
3.27398
-1.41553e-15
3.27398
-1.60982e-15
3.27398
-1.67921e-15
3.27398
-1.73472e-15
3.27398
-1.80411e-15
3.27398
-1.91513e-15
3.27398
-1.90126e-15
3.27398
-1.81799e-15
3.27398
-1.63758e-15
3.27398
-1.3739e-15
3.27398
-1.08247e-15
3.27398
-1.01308e-15
3.27398
-1.04083e-15
3.27398
-1.01308e-15
3.27398
-1.16573e-15
3.27398
-1.48492e-15
3.27398
-1.69309e-15
3.27398
-1.8735e-15
3.27398
-2.09555e-15
3.27398
-2.2482e-15
3.27398
-2.28983e-15
3.27398
-2.31759e-15
3.27398
-2.45637e-15
3.27398
-2.60902e-15
3.27398
-2.63678e-15
3.27398
-2.6229e-15
3.27398
-2.59515e-15
3.27398
-2.58127e-15
3.27398
-2.60902e-15
3.27398
-2.53964e-15
3.27398
-2.51188e-15
3.27398
-2.48412e-15
3.27398
-2.498e-15
3.27398
-2.45637e-15
3.27398
-2.34535e-15
3.27398
-2.20657e-15
3.27398
-2.23432e-15
3.27398
-2.2482e-15
3.27398
-2.22045e-15
3.27398
-2.34535e-15
3.27398
-2.48412e-15
3.27398
-2.53964e-15
3.27398
-2.52576e-15
3.27398
-2.65066e-15
3.27398
-2.60902e-15
3.27398
-2.55351e-15
3.27398
-2.45637e-15
3.27398
-2.41474e-15
3.27398
-2.38698e-15
3.27398
-2.28983e-15
3.27398
-2.15106e-15
3.27398
-2.10942e-15
3.27398
-2.09555e-15
3.27398
-1.98452e-15
3.27398
-1.81799e-15
3.27398
-1.60982e-15
3.27398
-1.42941e-15
3.27398
-1.249e-15
3.27398
-1.17961e-15
3.27398
-1.27676e-15
3.27398
-1.6237e-15
3.27398
-1.83187e-15
3.27398
-1.8735e-15
3.27398
-1.91513e-15
3.27398
-1.94289e-15
3.27398
-1.83187e-15
3.27398
-1.7486e-15
3.27398
-1.94289e-15
3.27398
-2.26208e-15
3.27398
-2.3731e-15
3.27398
-2.33147e-15
3.27398
-2.42861e-15
3.27398
-2.53964e-15
3.27398
-2.52576e-15
3.27398
-2.42861e-15
3.27398
-2.48412e-15
3.27398
-2.47025e-15
3.27398
-2.47025e-15
3.27398
-2.3731e-15
3.27398
-2.38698e-15
3.27398
-2.27596e-15
3.27398
-1.9984e-15
3.27398
-1.73472e-15
3.27398
-1.4988e-15
3.27398
-1.36002e-15
3.27398
-1.29063e-15
3.27398
-1.40166e-15
3.27398
-1.41553e-15
3.27398
-1.30451e-15
3.27398
-1.17961e-15
3.27398
-1.08247e-15
3.27398
-1.13798e-15
3.27398
-1.40166e-15
3.27398
-1.67921e-15
3.27398
-1.9984e-15
3.27398
-2.20657e-15
3.27398
-2.45637e-15
3.27398
-2.55351e-15
3.27398
-2.48412e-15
3.27398
-2.56739e-15
3.27398
-2.77556e-15
3.27398
-2.76168e-15
3.27398
-2.55351e-15
3.27398
-2.48412e-15
3.27398
-2.53964e-15
3.27398
-2.77556e-15
3.27398
-2.96985e-15
3.27398
-2.98372e-15
3.27398
-2.77556e-15
3.27398
-2.42861e-15
3.27398
-2.15106e-15
3.27398
-1.92901e-15
3.27398
-1.8735e-15
3.27398
-1.73472e-15
3.27398
-1.60982e-15
3.27398
-1.56819e-15
3.27398
-1.63758e-15
3.27398
-1.77636e-15
3.27398
-1.77636e-15
3.27398
-1.48492e-15
3.27398
-1.01308e-15
3.27398
-4.71845e-16
3.27398
-1.249e-16
3.27398
-4.89266e-31
3.27398
5.55112e-17
3.27398
-8.32667e-17
3.27398
-1.94289e-16
3.27398
-1.80411e-16
3.27398
-8.32667e-17
3.27398
-9.71445e-17
3.27398
-4.30211e-16
3.27398
-9.99201e-16
3.27398
-1.56819e-15
3.27398
-1.77636e-15
3.27398
-1.70697e-15
3.27398
-1.47105e-15
3.27398
-1.29063e-15
3.27398
-1.16573e-15
3.27398
-1.08247e-15
3.27398
-1.13798e-15
3.27398
-1.33227e-15
3.27398
-1.6237e-15
3.27398
-1.9984e-15
3.27398
-2.27596e-15
3.27398
-2.27596e-15
3.27398
-2.10942e-15
3.27398
-2.01228e-15
3.27398
-1.98452e-15
3.27398
-1.85962e-15
3.27398
-1.69309e-15
3.27398
-1.47105e-15
3.27398
-1.17961e-15
3.27398
-1.11022e-15
3.27398
-1.11022e-15
3.27398
-9.29812e-16
3.27398
-8.04912e-16
3.27398
-6.93889e-16
3.27398
-4.57967e-16
3.27398
-1.94289e-16
3.27398
2.77556e-17
3.27398
1.94289e-16
3.27398
9.71445e-17
3.27398
-1.38778e-17
3.27398
1.38778e-17
3.27398
8.32667e-17
3.27398
1.80411e-16
3.27398
3.19189e-16
3.27398
5.96745e-16
3.27398
9.29812e-16
3.27398
1.30451e-15
3.27398
1.97065e-15
3.27398
3.35842e-15
3.27398
5.81479e-15
3.27398
9.99201e-15
3.27398
1.7264e-14
3.27398
2.94348e-14
3.27398
4.95159e-14
3.27398
8.26006e-14
3.27398
1.37237e-13
3.27398
2.27443e-13
3.27398
3.76699e-13
3.27398
6.23515e-13
3.27398
1.03154e-12
3.27398
1.70702e-12
3.27398
2.82573e-12
3.27398
4.6791e-12
3.27398
7.75059e-12
3.27398
1.28429e-11
3.27398
2.12883e-11
3.27398
3.52992e-11
3.27398
5.85522e-11
3.27398
9.71583e-11
3.27398
1.6128e-10
3.27398
2.67825e-10
3.27398
4.44934e-10
3.27398
7.39463e-10
3.27398
1.22947e-09
3.27398
2.04506e-09
3.27398
3.40317e-09
3.27398
5.66566e-09
3.27398
9.43655e-09
3.27398
1.57243e-08
3.27398
2.62139e-08
3.27398
4.37213e-08
3.27398
7.29554e-08
3.27398
1.21794e-07
3.27398
2.03423e-07
3.27398
3.39922e-07
3.27398
5.68281e-07
3.27398
9.50495e-07
3.27398
1.59052e-06
3.27398
2.66271e-06
3.27398
4.4597e-06
3.27397
7.4727e-06
3.27397
1.25267e-05
3.27397
2.10077e-05
3.27396
3.52452e-05
3.27395
5.91567e-05
3.27393
9.93338e-05
3.2739
0.000166877
3.27386
0.000280506
3.27381
0.000471852
3.27375
0.000794514
3.27369
0.00133982
3.27367
0.00226432
3.27381
0.00383994
3.27439
0.00654298
3.27608
0.0112326
3.28067
0.019423
0.0340109
3.29194
3.27398
-1.38778e-16
3.27398
-1.80411e-16
3.27398
-1.80411e-16
3.27398
-1.249e-16
3.27398
-1.52656e-16
3.27398
-2.08167e-16
3.27398
-2.91434e-16
3.27398
-4.44089e-16
3.27398
-4.71845e-16
3.27398
-3.46945e-16
3.27398
-1.80411e-16
3.27398
1.38778e-17
3.27398
6.93889e-17
3.27398
6.93889e-17
3.27398
-4.16334e-17
3.27398
-1.80411e-16
3.27398
-2.91434e-16
3.27398
-3.46945e-16
3.27398
-3.46945e-16
3.27398
-3.88578e-16
3.27398
-3.33067e-16
3.27398
-3.05311e-16
3.27398
-5.13478e-16
3.27398
-9.15934e-16
3.27398
-1.29063e-15
3.27398
-1.47105e-15
3.27398
-1.55431e-15
3.27398
-1.66533e-15
3.27398
-1.73472e-15
3.27398
-1.79023e-15
3.27398
-1.80411e-15
3.27398
-1.76248e-15
3.27398
-1.59595e-15
3.27398
-1.42941e-15
3.27398
-1.22125e-15
3.27398
-8.88178e-16
3.27398
-7.49401e-16
3.27398
-7.35523e-16
3.27398
-8.60423e-16
3.27398
-9.71445e-16
3.27398
-9.57567e-16
3.27398
-8.88178e-16
3.27398
-8.46545e-16
3.27398
-8.18789e-16
3.27398
-8.04912e-16
3.27398
-8.04912e-16
3.27398
-6.93889e-16
3.27398
-6.245e-16
3.27398
-6.93889e-16
3.27398
-8.04912e-16
3.27398
-9.02056e-16
3.27398
-9.85323e-16
3.27398
-1.09635e-15
3.27398
-1.249e-15
3.27398
-1.41553e-15
3.27398
-1.3739e-15
3.27398
-1.34615e-15
3.27398
-1.40166e-15
3.27398
-1.33227e-15
3.27398
-1.11022e-15
3.27398
-9.99201e-16
3.27398
-9.57567e-16
3.27398
-9.99201e-16
3.27398
-1.05471e-15
3.27398
-1.08247e-15
3.27398
-1.16573e-15
3.27398
-1.249e-15
3.27398
-1.26288e-15
3.27398
-1.29063e-15
3.27398
-1.33227e-15
3.27398
-1.33227e-15
3.27398
-1.20737e-15
3.27398
-1.01308e-15
3.27398
-8.18789e-16
3.27398
-8.04912e-16
3.27398
-9.29812e-16
3.27398
-1.31839e-15
3.27398
-1.66533e-15
3.27398
-1.83187e-15
3.27398
-1.94289e-15
3.27398
-1.94289e-15
3.27398
-1.8735e-15
3.27398
-1.77636e-15
3.27398
-1.76248e-15
3.27398
-1.77636e-15
3.27398
-1.92901e-15
3.27398
-2.17881e-15
3.27398
-2.20657e-15
3.27398
-1.98452e-15
3.27398
-1.81799e-15
3.27398
-1.69309e-15
3.27398
-1.66533e-15
3.27398
-1.73472e-15
3.27398
-1.83187e-15
3.27398
-2.09555e-15
3.27398
-2.38698e-15
3.27398
-2.69229e-15
3.27398
-2.83107e-15
3.27398
-2.7478e-15
3.27398
-2.6229e-15
3.27398
-2.55351e-15
3.27398
-2.73392e-15
3.27398
-2.98372e-15
3.27398
-3.1225e-15
3.27398
-3.09475e-15
3.27398
-2.96985e-15
3.27398
-2.73392e-15
3.27398
-2.51188e-15
3.27398
-2.42861e-15
3.27398
-2.38698e-15
3.27398
-2.3731e-15
3.27398
-2.33147e-15
3.27398
-2.26208e-15
3.27398
-2.10942e-15
3.27398
-1.90126e-15
3.27398
-1.80411e-15
3.27398
-1.92901e-15
3.27398
-2.06779e-15
3.27398
-2.15106e-15
3.27398
-2.2482e-15
3.27398
-2.33147e-15
3.27398
-2.30371e-15
3.27398
-2.13718e-15
3.27398
-1.92901e-15
3.27398
-1.54043e-15
3.27398
-1.19349e-15
3.27398
-9.57567e-16
3.27398
-8.32667e-16
3.27398
-8.74301e-16
3.27398
-1.13798e-15
3.27398
-1.59595e-15
3.27398
-1.9984e-15
3.27398
-2.26208e-15
3.27398
-2.35922e-15
3.27398
-2.44249e-15
3.27398
-2.53964e-15
3.27398
-2.51188e-15
3.27398
-2.45637e-15
3.27398
-2.45637e-15
3.27398
-2.35922e-15
3.27398
-2.19269e-15
3.27398
-1.98452e-15
3.27398
-1.88738e-15
3.27398
-2.01228e-15
3.27398
-2.3731e-15
3.27398
-2.55351e-15
3.27398
-2.56739e-15
3.27398
-2.45637e-15
3.27398
-2.23432e-15
3.27398
-1.92901e-15
3.27398
-1.48492e-15
3.27398
-9.99201e-16
3.27398
-8.04912e-16
3.27398
-9.02056e-16
3.27398
-9.4369e-16
3.27398
-9.02056e-16
3.27398
-8.32667e-16
3.27398
-7.21645e-16
3.27398
-7.35523e-16
3.27398
-9.02056e-16
3.27398
-1.23512e-15
3.27398
-1.58207e-15
3.27398
-1.95677e-15
3.27398
-2.17881e-15
3.27398
-2.19269e-15
3.27398
-1.98452e-15
3.27398
-1.81799e-15
3.27398
-1.81799e-15
3.27398
-1.77636e-15
3.27398
-1.70697e-15
3.27398
-1.73472e-15
3.27398
-1.7486e-15
3.27398
-1.76248e-15
3.27398
-1.88738e-15
3.27398
-2.23432e-15
3.27398
-2.66454e-15
3.27398
-3.15026e-15
3.27398
-3.46945e-15
3.27398
-3.42781e-15
3.27398
-3.1225e-15
3.27398
-2.88658e-15
3.27398
-2.77556e-15
3.27398
-2.69229e-15
3.27398
-2.66454e-15
3.27398
-2.69229e-15
3.27398
-2.70617e-15
3.27398
-2.6229e-15
3.27398
-2.3731e-15
3.27398
-2.17881e-15
3.27398
-2.05391e-15
3.27398
-2.13718e-15
3.27398
-2.27596e-15
3.27398
-2.40086e-15
3.27398
-2.2482e-15
3.27398
-1.85962e-15
3.27398
-1.47105e-15
3.27398
-1.16573e-15
3.27398
-1.04083e-15
3.27398
-9.85323e-16
3.27398
-9.15934e-16
3.27398
-7.35523e-16
3.27398
-5.68989e-16
3.27398
-4.996e-16
3.27398
-4.16334e-16
3.27398
-3.33067e-16
3.27398
-4.16334e-16
3.27398
-6.38378e-16
3.27398
-1.16573e-15
3.27398
-1.72085e-15
3.27398
-1.9984e-15
3.27398
-2.22045e-15
3.27398
-2.2482e-15
3.27398
-2.13718e-15
3.27398
-2.01228e-15
3.27398
-1.90126e-15
3.27398
-1.81799e-15
3.27398
-1.44329e-15
3.27398
-9.4369e-16
3.27398
-5.13478e-16
3.27398
-2.08167e-16
3.27398
-1.66533e-16
3.27398
-3.747e-16
3.27398
-6.80012e-16
3.27398
-9.15934e-16
3.27398
-1.08247e-15
3.27398
-1.04083e-15
3.27398
-9.15934e-16
3.27398
-7.91034e-16
3.27398
-7.77156e-16
3.27398
-7.21645e-16
3.27398
-5.41234e-16
3.27398
-3.33067e-16
3.27398
-1.11022e-16
3.27398
-6.93889e-17
3.27398
6.19738e-30
3.27398
1.52656e-16
3.27398
2.77556e-16
3.27398
4.57967e-16
3.27398
8.88178e-16
3.27398
1.77636e-15
3.27398
3.03924e-15
3.27398
5.03764e-15
3.27398
8.31279e-15
3.27398
1.38778e-14
3.27398
2.32175e-14
3.27398
3.86496e-14
3.27398
6.40182e-14
3.27398
1.05846e-13
3.27398
1.74541e-13
3.27398
2.87506e-13
3.27398
4.73566e-13
3.27398
7.80112e-13
3.27398
1.28551e-12
3.27398
2.11892e-12
3.27398
3.49322e-12
3.27398
5.75967e-12
3.27398
9.49818e-12
3.27398
1.56657e-11
3.27398
2.58416e-11
3.27398
4.26334e-11
3.27398
7.03466e-11
3.27398
1.16092e-10
3.27398
1.91611e-10
3.27398
3.16303e-10
3.27398
5.22212e-10
3.27398
8.62285e-10
3.27398
1.42401e-09
3.27398
2.35195e-09
3.27398
3.88506e-09
3.27398
6.41822e-09
3.27398
1.06042e-08
3.27398
1.75218e-08
3.27398
2.89544e-08
3.27398
4.78495e-08
3.27398
7.90791e-08
3.27398
1.30695e-07
3.27398
2.16003e-07
3.27398
3.56987e-07
3.27398
5.89968e-07
3.27398
9.74929e-07
3.27398
1.61092e-06
3.27398
2.66141e-06
3.27398
4.39614e-06
3.27398
7.25996e-06
3.27398
1.19861e-05
3.27398
1.97826e-05
3.27398
3.26379e-05
3.27399
5.3824e-05
3.274
8.87196e-05
3.27402
0.000146163
3.27406
0.000240669
3.27414
0.000396073
3.27428
0.000651527
3.27455
0.00107147
3.27505
0.00176212
3.27598
0.00289999
3.27775
0.00477851
3.28107
0.00789817
3.2874
0.0130867
0.0218582
3.29954
3.27398
4.16334e-17
3.27398
5.55112e-17
3.27398
2.77556e-17
3.27398
6.84973e-34
3.27398
-1.38778e-17
3.27398
-1.38778e-17
3.27398
-6.93889e-17
3.27398
-2.77556e-17
3.27398
6.93889e-17
3.27398
1.80411e-16
3.27398
2.35922e-16
3.27398
2.63678e-16
3.27398
4.44089e-16
3.27398
4.57967e-16
3.27398
4.30211e-16
3.27398
4.30211e-16
3.27398
4.02456e-16
3.27398
3.19189e-16
3.27398
2.08167e-16
3.27398
2.08167e-16
3.27398
1.38778e-16
3.27398
-2.85405e-31
3.27398
-1.80411e-16
3.27398
-3.60822e-16
3.27398
-6.80012e-16
3.27398
-9.99201e-16
3.27398
-1.29063e-15
3.27398
-1.44329e-15
3.27398
-1.4988e-15
3.27398
-1.52656e-15
3.27398
-1.42941e-15
3.27398
-1.29063e-15
3.27398
-1.17961e-15
3.27398
-1.13798e-15
3.27398
-1.05471e-15
3.27398
-9.57567e-16
3.27398
-9.85323e-16
3.27398
-1.04083e-15
3.27398
-9.85323e-16
3.27398
-8.88178e-16
3.27398
-7.63278e-16
3.27398
-5.68989e-16
3.27398
-4.85723e-16
3.27398
-5.55112e-16
3.27398
-6.245e-16
3.27398
-6.10623e-16
3.27398
-6.66134e-16
3.27398
-7.63278e-16
3.27398
-8.32667e-16
3.27398
-6.93889e-16
3.27398
-4.996e-16
3.27398
-4.85723e-16
3.27398
-5.13478e-16
3.27398
-5.27356e-16
3.27398
-6.10623e-16
3.27398
-8.18789e-16
3.27398
-1.01308e-15
3.27398
-1.09635e-15
3.27398
-9.29812e-16
3.27398
-7.49401e-16
3.27398
-6.80012e-16
3.27398
-7.77156e-16
3.27398
-1.01308e-15
3.27398
-1.3739e-15
3.27398
-1.6237e-15
3.27398
-1.65146e-15
3.27398
-1.6237e-15
3.27398
-1.63758e-15
3.27398
-1.63758e-15
3.27398
-1.66533e-15
3.27398
-1.45717e-15
3.27398
-1.16573e-15
3.27398
-1.02696e-15
3.27398
-9.29812e-16
3.27398
-8.46545e-16
3.27398
-9.15934e-16
3.27398
-9.57567e-16
3.27398
-9.15934e-16
3.27398
-8.74301e-16
3.27398
-9.15934e-16
3.27398
-1.06859e-15
3.27398
-1.36002e-15
3.27398
-1.67921e-15
3.27398
-1.67921e-15
3.27398
-1.51268e-15
3.27398
-1.40166e-15
3.27398
-1.42941e-15
3.27398
-1.60982e-15
3.27398
-1.66533e-15
3.27398
-1.65146e-15
3.27398
-1.80411e-15
3.27398
-1.90126e-15
3.27398
-2.02616e-15
3.27398
-2.13718e-15
3.27398
-2.2482e-15
3.27398
-2.3731e-15
3.27398
-2.47025e-15
3.27398
-2.72005e-15
3.27398
-3.09475e-15
3.27398
-3.27516e-15
3.27398
-3.34455e-15
3.27398
-3.34455e-15
3.27398
-3.45557e-15
3.27398
-3.58047e-15
3.27398
-3.73312e-15
3.27398
-3.76088e-15
3.27398
-3.69149e-15
3.27398
-3.58047e-15
3.27398
-3.40006e-15
3.27398
-3.17801e-15
3.27398
-2.9976e-15
3.27398
-2.73392e-15
3.27398
-2.56739e-15
3.27398
-2.38698e-15
3.27398
-2.23432e-15
3.27398
-2.1233e-15
3.27398
-2.05391e-15
3.27398
-2.19269e-15
3.27398
-2.22045e-15
3.27398
-2.08167e-15
3.27398
-1.90126e-15
3.27398
-1.79023e-15
3.27398
-1.7486e-15
3.27398
-1.65146e-15
3.27398
-1.60982e-15
3.27398
-1.77636e-15
3.27398
-1.85962e-15
3.27398
-1.90126e-15
3.27398
-1.90126e-15
3.27398
-1.83187e-15
3.27398
-1.76248e-15
3.27398
-1.79023e-15
3.27398
-1.91513e-15
3.27398
-2.04003e-15
3.27398
-2.08167e-15
3.27398
-2.13718e-15
3.27398
-2.16493e-15
3.27398
-2.15106e-15
3.27398
-1.98452e-15
3.27398
-1.8735e-15
3.27398
-1.76248e-15
3.27398
-1.56819e-15
3.27398
-1.55431e-15
3.27398
-1.76248e-15
3.27398
-1.91513e-15
3.27398
-1.8735e-15
3.27398
-1.65146e-15
3.27398
-1.47105e-15
3.27398
-1.41553e-15
3.27398
-1.33227e-15
3.27398
-1.29063e-15
3.27398
-1.38778e-15
3.27398
-1.48492e-15
3.27398
-1.70697e-15
3.27398
-1.88738e-15
3.27398
-1.80411e-15
3.27398
-1.48492e-15
3.27398
-1.26288e-15
3.27398
-1.3739e-15
3.27398
-1.7486e-15
3.27398
-2.17881e-15
3.27398
-2.41474e-15
3.27398
-2.51188e-15
3.27398
-2.52576e-15
3.27398
-2.498e-15
3.27398
-2.55351e-15
3.27398
-2.3731e-15
3.27398
-2.17881e-15
3.27398
-2.05391e-15
3.27398
-1.8735e-15
3.27398
-1.65146e-15
3.27398
-1.59595e-15
3.27398
-1.69309e-15
3.27398
-2.06779e-15
3.27398
-2.38698e-15
3.27398
-2.40086e-15
3.27398
-2.26208e-15
3.27398
-2.09555e-15
3.27398
-1.97065e-15
3.27398
-1.9984e-15
3.27398
-2.06779e-15
3.27398
-2.19269e-15
3.27398
-2.23432e-15
3.27398
-2.34535e-15
3.27398
-2.45637e-15
3.27398
-2.58127e-15
3.27398
-2.65066e-15
3.27398
-2.53964e-15
3.27398
-2.42861e-15
3.27398
-2.498e-15
3.27398
-2.73392e-15
3.27398
-3.10862e-15
3.27398
-3.08087e-15
3.27398
-2.90046e-15
3.27398
-2.63678e-15
3.27398
-2.26208e-15
3.27398
-1.8735e-15
3.27398
-1.63758e-15
3.27398
-1.56819e-15
3.27398
-1.63758e-15
3.27398
-1.7486e-15
3.27398
-1.77636e-15
3.27398
-1.72085e-15
3.27398
-1.66533e-15
3.27398
-1.83187e-15
3.27398
-2.04003e-15
3.27398
-2.2482e-15
3.27398
-2.27596e-15
3.27398
-2.35922e-15
3.27398
-2.27596e-15
3.27398
-1.90126e-15
3.27398
-1.42941e-15
3.27398
-1.13798e-15
3.27398
-9.15934e-16
3.27398
-8.60423e-16
3.27398
-9.85323e-16
3.27398
-1.01308e-15
3.27398
-7.91034e-16
3.27398
-3.88578e-16
3.27398
6.93889e-17
3.27398
4.85723e-16
3.27398
5.68989e-16
3.27398
4.16334e-16
3.27398
2.91434e-16
3.27398
3.05311e-16
3.27398
4.02456e-16
3.27398
3.60822e-16
3.27398
2.498e-16
3.27398
1.80411e-16
3.27398
1.11022e-16
3.27398
1.249e-16
3.27398
2.498e-16
3.27398
3.33067e-16
3.27398
2.77556e-16
3.27398
1.80411e-16
3.27398
2.22045e-16
3.27398
3.747e-16
3.27398
6.38378e-16
3.27398
1.09635e-15
3.27398
1.97065e-15
3.27398
3.41394e-15
3.27398
5.55112e-15
3.27398
9.07607e-15
3.27398
1.51407e-14
3.27398
2.49384e-14
3.27398
4.12032e-14
3.27398
6.80289e-14
3.27398
1.12313e-13
3.27398
1.85074e-13
3.27398
3.04395e-13
3.27398
4.99933e-13
3.27398
8.20691e-13
3.27398
1.34733e-12
3.27398
2.21168e-12
3.27398
3.63012e-12
3.27398
5.95761e-12
3.27398
9.77675e-12
3.27398
1.60436e-11
3.27398
2.63273e-11
3.27398
4.32015e-11
3.27398
7.08884e-11
3.27398
1.16315e-10
3.27398
1.90841e-10
3.27398
3.13099e-10
3.27398
5.13645e-10
3.27398
8.42576e-10
3.27398
1.38202e-09
3.27398
2.26659e-09
3.27398
3.71689e-09
3.27398
6.09432e-09
3.27398
9.99084e-09
3.27398
1.63758e-08
3.27398
2.68359e-08
3.27398
4.39676e-08
3.27398
7.2018e-08
3.27398
1.17932e-07
3.27398
1.93057e-07
3.27398
3.15933e-07
3.27398
5.16822e-07
3.27398
8.451e-07
3.27398
1.38127e-06
3.27398
2.25648e-06
3.27398
3.68422e-06
3.27398
6.01176e-06
3.27398
9.80332e-06
3.27399
1.59748e-05
3.274
2.60115e-05
3.27401
4.2319e-05
3.27403
6.87889e-05
3.27406
0.00011171
3.27412
0.000181234
3.27422
0.000293732
3.2744
0.00047559
3.2747
0.000769358
3.27522
0.00124362
3.2761
0.00200954
3.27763
0.00324677
3.28028
0.00525231
3.28485
0.00850136
0.0138372
3.29286
3.27398
9.71445e-17
3.27398
1.38778e-16
3.27398
1.94289e-16
3.27398
1.249e-16
3.27398
8.32667e-17
3.27398
9.71445e-17
3.27398
2.498e-16
3.27398
3.747e-16
3.27398
4.44089e-16
3.27398
3.747e-16
3.27398
3.33067e-16
3.27398
3.88578e-16
3.27398
3.33067e-16
3.27398
2.22045e-16
3.27398
1.80411e-16
3.27398
3.60822e-16
3.27398
6.52256e-16
3.27398
8.18789e-16
3.27398
7.49401e-16
3.27398
5.55112e-16
3.27398
2.77556e-16
3.27398
1.38778e-17
3.27398
-1.38778e-16
3.27398
-1.80411e-16
3.27398
-8.32667e-17
3.27398
2.77556e-17
3.27398
1.80411e-16
3.27398
2.22045e-16
3.27398
1.249e-16
3.27398
-1.38778e-17
3.27398
-8.32667e-17
3.27398
-1.80411e-16
3.27398
-4.44089e-16
3.27398
-7.77156e-16
3.27398
-9.57567e-16
3.27398
-1.16573e-15
3.27398
-1.23512e-15
3.27398
-1.13798e-15
3.27398
-1.02696e-15
3.27398
-1.01308e-15
3.27398
-1.02696e-15
3.27398
-1.13798e-15
3.27398
-1.1241e-15
3.27398
-1.09635e-15
3.27398
-1.06859e-15
3.27398
-1.17961e-15
3.27398
-1.27676e-15
3.27398
-1.36002e-15
3.27398
-1.16573e-15
3.27398
-1.09635e-15
3.27398
-1.20737e-15
3.27398
-1.40166e-15
3.27398
-1.41553e-15
3.27398
-1.16573e-15
3.27398
-9.02056e-16
3.27398
-9.29812e-16
3.27398
-9.71445e-16
3.27398
-8.88178e-16
3.27398
-9.15934e-16
3.27398
-9.29812e-16
3.27398
-9.02056e-16
3.27398
-8.74301e-16
3.27398
-9.02056e-16
3.27398
-9.57567e-16
3.27398
-1.16573e-15
3.27398
-1.3739e-15
3.27398
-1.47105e-15
3.27398
-1.56819e-15
3.27398
-1.54043e-15
3.27398
-1.38778e-15
3.27398
-1.17961e-15
3.27398
-9.4369e-16
3.27398
-7.91034e-16
3.27398
-8.60423e-16
3.27398
-9.57567e-16
3.27398
-8.46545e-16
3.27398
-7.35523e-16
3.27398
-6.52256e-16
3.27398
-4.996e-16
3.27398
-3.46945e-16
3.27398
-3.88578e-16
3.27398
-5.27356e-16
3.27398
-6.66134e-16
3.27398
-8.18789e-16
3.27398
-9.57567e-16
3.27398
-1.01308e-15
3.27398
-9.99201e-16
3.27398
-1.15186e-15
3.27398
-1.45717e-15
3.27398
-1.84575e-15
3.27398
-2.13718e-15
3.27398
-2.42861e-15
3.27398
-2.48412e-15
3.27398
-2.3731e-15
3.27398
-2.26208e-15
3.27398
-2.22045e-15
3.27398
-2.27596e-15
3.27398
-2.28983e-15
3.27398
-2.2482e-15
3.27398
-2.47025e-15
3.27398
-2.72005e-15
3.27398
-2.84495e-15
3.27398
-2.77556e-15
3.27398
-2.72005e-15
3.27398
-2.81719e-15
3.27398
-3.08087e-15
3.27398
-3.31679e-15
3.27398
-3.34455e-15
3.27398
-2.83107e-15
3.27398
-2.3731e-15
3.27398
-2.30371e-15
3.27398
-2.33147e-15
3.27398
-2.42861e-15
3.27398
-2.47025e-15
3.27398
-2.48412e-15
3.27398
-2.44249e-15
3.27398
-2.41474e-15
3.27398
-2.41474e-15
3.27398
-2.498e-15
3.27398
-2.45637e-15
3.27398
-2.40086e-15
3.27398
-2.35922e-15
3.27398
-2.33147e-15
3.27398
-2.33147e-15
3.27398
-2.48412e-15
3.27398
-2.48412e-15
3.27398
-2.59515e-15
3.27398
-2.66454e-15
3.27398
-2.47025e-15
3.27398
-2.16493e-15
3.27398
-1.66533e-15
3.27398
-1.15186e-15
3.27398
-7.21645e-16
3.27398
-5.82867e-16
3.27398
-6.10623e-16
3.27398
-7.21645e-16
3.27398
-8.18789e-16
3.27398
-8.18789e-16
3.27398
-8.88178e-16
3.27398
-1.06859e-15
3.27398
-1.23512e-15
3.27398
-1.38778e-15
3.27398
-1.52656e-15
3.27398
-1.60982e-15
3.27398
-1.73472e-15
3.27398
-1.79023e-15
3.27398
-1.81799e-15
3.27398
-1.85962e-15
3.27398
-1.97065e-15
3.27398
-2.08167e-15
3.27398
-2.20657e-15
3.27398
-2.47025e-15
3.27398
-2.70617e-15
3.27398
-2.85882e-15
3.27398
-3.02536e-15
3.27398
-3.02536e-15
3.27398
-2.9976e-15
3.27398
-3.03924e-15
3.27398
-3.10862e-15
3.27398
-3.16414e-15
3.27398
-3.09475e-15
3.27398
-2.8727e-15
3.27398
-2.55351e-15
3.27398
-2.38698e-15
3.27398
-2.3731e-15
3.27398
-2.48412e-15
3.27398
-2.63678e-15
3.27398
-2.70617e-15
3.27398
-2.7478e-15
3.27398
-2.7478e-15
3.27398
-2.6229e-15
3.27398
-2.44249e-15
3.27398
-2.51188e-15
3.27398
-2.6229e-15
3.27398
-2.60902e-15
3.27398
-2.38698e-15
3.27398
-2.01228e-15
3.27398
-1.76248e-15
3.27398
-1.65146e-15
3.27398
-1.58207e-15
3.27398
-1.59595e-15
3.27398
-1.66533e-15
3.27398
-1.7486e-15
3.27398
-1.54043e-15
3.27398
-1.47105e-15
3.27398
-1.40166e-15
3.27398
-1.42941e-15
3.27398
-1.58207e-15
3.27398
-1.70697e-15
3.27398
-1.83187e-15
3.27398
-1.90126e-15
3.27398
-1.95677e-15
3.27398
-1.98452e-15
3.27398
-1.95677e-15
3.27398
-1.9984e-15
3.27398
-2.08167e-15
3.27398
-2.10942e-15
3.27398
-2.05391e-15
3.27398
-1.9984e-15
3.27398
-2.04003e-15
3.27398
-2.26208e-15
3.27398
-2.35922e-15
3.27398
-2.35922e-15
3.27398
-2.44249e-15
3.27398
-2.47025e-15
3.27398
-2.44249e-15
3.27398
-2.27596e-15
3.27398
-2.16493e-15
3.27398
-2.01228e-15
3.27398
-1.83187e-15
3.27398
-1.4988e-15