/*--------------------------------*- C++ -*----------------------------------*\
| =========                 |                                                 |
| \\      /  F ield         | OpenFOAM: The Open Source CFD Toolbox           |
|  \\    /   O peration     | Version:  2412                                  |
|   \\  /    A nd           | Website:  www.openfoam.com                      |
|    \\/     M anipulation  |                                                 |
\*---------------------------------------------------------------------------*/
FoamFile
{
    version     2.0;
    format      ascii;
    arch        "LSB;label=32;scalar=64";
    class       volVectorField;
    location    "0.0025";
    object      U;
}
// * * * * * * * * * * * * * * * * * * * * * * * * * * * * * * * * * * * * * //

dimensions      [0 1 -1 0 0 0 0];

internalField   nonuniform List<vector> 
180000
(
(664 8.46944e-15 0)
(664 1.52238e-14 0)
(664 3.39532e-14 0)
(664 6.2083e-15 0)
(664 -6.29679e-14 0)
(664 -1.32028e-13 0)
(664 -1.21188e-13 0)
(664 -1.44412e-13 0)
(664 -1.86503e-13 0)
(664 -2.28533e-13 0)
(664 -2.65771e-13 0)
(664 -4.06374e-13 0)
(664 -5.27671e-13 0)
(664 -5.48563e-13 0)
(664 -5.5061e-13 0)
(664 -5.8524e-13 0)
(664 -6.96794e-13 0)
(664 -7.86883e-13 0)
(664 -8.18083e-13 0)
(664 -7.94214e-13 0)
(664 -8.13326e-13 0)
(664 -8.31826e-13 0)
(664 -7.62735e-13 0)
(664 -5.63494e-13 0)
(664 -2.94516e-13 0)
(664 -1.5683e-13 0)
(664 -2.10735e-13 0)
(664 -3.06675e-13 0)
(664 -3.76181e-13 0)
(664 -4.38787e-13 0)
(664 -4.38975e-13 0)
(664 -4.46609e-13 0)
(664 -4.87949e-13 0)
(664 -4.86748e-13 0)
(664 -5.02195e-13 0)
(664 -5.52455e-13 0)
(664 -6.64795e-13 0)
(664 -7.45719e-13 0)
(664 -7.28702e-13 0)
(664 -6.76079e-13 0)
(664 -6.70852e-13 0)
(664 -7.02981e-13 0)
(664 -7.14356e-13 0)
(664 -6.99677e-13 0)
(664 -6.16783e-13 0)
(664 -5.82077e-13 0)
(664 -6.17608e-13 0)
(664 -7.2072e-13 0)
(664 -8.08412e-13 0)
(664 -8.62985e-13 0)
(664 -7.79296e-13 0)
(664 -6.21022e-13 0)
(664 -4.87417e-13 0)
(664 -4.94959e-13 0)
(664 -6.00044e-13 0)
(664 -7.48368e-13 0)
(664 -8.52664e-13 0)
(664 -8.61772e-13 0)
(664 -8.0407e-13 0)
(664 -7.07035e-13 0)
(664 -5.61481e-13 0)
(664 -4.43897e-13 0)
(664 -4.18378e-13 0)
(664 -4.72237e-13 0)
(664 -5.68626e-13 0)
(664 -6.43647e-13 0)
(664 -6.75854e-13 0)
(664 -7.48821e-13 0)
(664 -8.32496e-13 0)
(664 -9.13019e-13 0)
(664 -1.03566e-12 0)
(664 -1.08207e-12 0)
(664 -1.11358e-12 0)
(664 -1.19735e-12 0)
(664 -1.28013e-12 0)
(664 -1.28355e-12 0)
(664 -1.17368e-12 0)
(664 -1.05951e-12 0)
(664 -1.02255e-12 0)
(664 -1.02814e-12 0)
(664 -1.07868e-12 0)
(664 -1.05452e-12 0)
(664 -1.01438e-12 0)
(664 -1.01745e-12 0)
(664 -1.01071e-12 0)
(664 -9.1943e-13 0)
(664 -7.97772e-13 0)
(664 -7.81484e-13 0)
(664 -8.49677e-13 0)
(664 -9.79881e-13 0)
(664 -1.09754e-12 0)
(664 -1.16877e-12 0)
(664 -1.18094e-12 0)
(664 -1.11194e-12 0)
(664 -9.75736e-13 0)
(664 -8.21173e-13 0)
(664 -7.01545e-13 0)
(664 -6.84976e-13 0)
(664 -7.85921e-13 0)
(664 -8.376e-13 0)
(664 -8.1197e-13 0)
(664 -7.23179e-13 0)
(664 -5.56901e-13 0)
(664 -4.32186e-13 0)
(664 -4.41106e-13 0)
(664 -5.23883e-13 0)
(664 -5.94593e-13 0)
(664 -6.5566e-13 0)
(664 -7.28994e-13 0)
(664 -8.81859e-13 0)
(664 -9.92643e-13 0)
(664 -9.76346e-13 0)
(664 -9.07886e-13 0)
(664 -8.78965e-13 0)
(664 -8.75057e-13 0)
(664 -8.97557e-13 0)
(664 -8.545e-13 0)
(664 -6.76928e-13 0)
(664 -4.09737e-13 0)
(664 -2.17904e-13 0)
(664 -1.67791e-13 0)
(664 -2.11122e-13 0)
(664 -3.05917e-13 0)
(664 -4.05811e-13 0)
(664 -5.40951e-13 0)
(664 -7.03777e-13 0)
(664 -8.65341e-13 0)
(664 -1.02004e-12 0)
(664 -1.3012e-12 0)
(664 -1.55659e-12 0)
(664 -1.65004e-12 0)
(664 -1.66842e-12 0)
(664 -1.74773e-12 0)
(664 -1.86371e-12 0)
(664 -1.86701e-12 0)
(664 -1.81434e-12 0)
(664 -1.77973e-12 0)
(664 -1.73384e-12 0)
(664 -1.60942e-12 0)
(664 -1.40191e-12 0)
(664 -1.21892e-12 0)
(664 -1.11134e-12 0)
(664 -1.0632e-12 0)
(664 -1.08196e-12 0)
(664 -1.13301e-12 0)
(664 -1.08575e-12 0)
(664 -9.9059e-13 0)
(664 -9.07585e-13 0)
(664 -8.90726e-13 0)
(664 -9.71545e-13 0)
(664 -1.14129e-12 0)
(664 -1.28915e-12 0)
(664 -1.31006e-12 0)
(664 -1.26523e-12 0)
(664 -1.25937e-12 0)
(664 -1.33111e-12 0)
(664 -1.4513e-12 0)
(664 -1.57764e-12 0)
(664 -1.59968e-12 0)
(664 -1.52584e-12 0)
(664 -1.33179e-12 0)
(664 -1.15085e-12 0)
(664 -1.06282e-12 0)
(664 -9.23323e-13 0)
(664 -6.83946e-13 0)
(664 -4.78481e-13 0)
(664 -3.51611e-13 0)
(664 -2.59228e-13 0)
(664 -2.51147e-13 0)
(664 -4.26695e-13 0)
(664 -6.38723e-13 0)
(664 -8.15929e-13 0)
(664 -1.00741e-12 0)
(664 -1.1672e-12 0)
(664 -1.21573e-12 0)
(664 -1.17371e-12 0)
(664 -1.10515e-12 0)
(664 -1.00502e-12 0)
(664 -9.3973e-13 0)
(664 -8.43128e-13 0)
(664 -7.22578e-13 0)
(664 -5.66716e-13 0)
(664 -4.81382e-13 0)
(664 -4.58327e-13 0)
(664 -4.86899e-13 0)
(664 -4.88975e-13 0)
(664 -4.60315e-13 0)
(664 -3.52e-13 0)
(664 -2.23877e-13 0)
(664 -1.00903e-13 0)
(664 2.55824e-14 0)
(664 1.38973e-13 0)
(664 1.572e-13 0)
(664 7.24397e-14 0)
(664 -3.81575e-14 0)
(664 -1.76368e-13 0)
(664 -3.4204e-13 0)
(664 -5.30461e-13 0)
(664 -6.5825e-13 0)
(664 -7.03392e-13 0)
(664 -6.93907e-13 0)
(664 -6.35323e-13 0)
(664 -5.78876e-13 0)
(664 -5.4947e-13 0)
(664 -5.01342e-13 0)
(664 -4.21828e-13 0)
(664 -3.61242e-13 0)
(664 -2.81501e-13 0)
(664 -1.5018e-13 0)
(664 -3.84355e-14 0)
(664 -1.75318e-14 0)
(664 -6.61507e-14 0)
(664 -1.33985e-13 0)
(664 -2.15506e-13 0)
(664 -3.76242e-13 0)
(664 -5.85401e-13 0)
(664 -7.64324e-13 0)
(664 -9.5381e-13 0)
(664 -1.15724e-12 0)
(664 -1.28876e-12 0)
(664 -1.38365e-12 0)
(664 -1.50653e-12 0)
(664 -1.57776e-12 0)
(664 -1.59429e-12 0)
(664 -1.63099e-12 0)
(664 -1.69138e-12 0)
(664 -1.61735e-12 0)
(664 -1.37634e-12 0)
(664 -1.08585e-12 0)
(664 -8.17389e-13 0)
(664 -6.2215e-13 0)
(664 -5.66874e-13 0)
(664 -6.15604e-13 0)
(664 -7.05873e-13 0)
(664 -7.08379e-13 0)
(664 -6.08953e-13 0)
(664 -4.62457e-13 0)
(664 -3.53646e-13 0)
(664 -3.02463e-13 0)
(664 -2.43212e-13 0)
(664 -1.30985e-13 0)
(664 7.53562e-14 0)
(664 4.55691e-13 0)
(664 1.17634e-12 0)
(664 2.40328e-12 0)
(664 4.36299e-12 0)
(664 7.39047e-12 0)
(664 1.22426e-11 0)
(664 2.02825e-11 0)
(664 3.36783e-11 0)
(664 5.58969e-11 0)
(664 9.28686e-11 0)
(664 1.54338e-10 0)
(664 2.56461e-10 0)
(664 4.26236e-10 0)
(664 7.0871e-10 0)
(664 1.17916e-09 0)
(664 1.96313e-09 0)
(664 3.27036e-09 0)
(664 5.45195e-09 0)
(664 9.09547e-09 0)
(664 1.5185e-08 0)
(664 2.53712e-08 0)
(664 4.2424e-08 0)
(664 7.09969e-08 0)
(664 1.18916e-07 0)
(664 1.99357e-07 0)
(664 3.34525e-07 0)
(664 5.61889e-07 0)
(664 9.44752e-07 0)
(664 1.59019e-06 0)
(664 2.67959e-06 0)
(664 4.52058e-06 0)
(664 7.6357e-06 0)
(664 1.29139e-05 0)
(663.999 2.18695e-05 0)
(663.999 3.70871e-05 0)
(663.999 6.29837e-05 0)
(663.998 0.000107123 0)
(663.996 0.000182477 0)
(663.994 0.000311335 0)
(663.99 0.000532071 0)
(663.983 0.000910863 0)
(663.972 0.00156208 0)
(663.954 0.00268374 0)
(663.924 0.00461941 0)
(663.876 0.0079664 0)
(663.795 0.0137653 0)
(663.662 0.0238327 0)
(663.442 0.0413467 0)
(663.078 0.071881 0)
(662.475 0.125224 0)
(661.477 0.218636 0)
(659.82 0.382531 0)
(657.071 0.670951 0)
(652.507 1.17915 0)
(644.945 2.07881 0)
(632.44 3.66784 0)
(612.09 6.49981 0)
(580.129 11.447 0)
(664 1.36007e-14 0)
(664 3.82352e-14 0)
(664 5.0162e-14 0)
(664 6.32789e-14 0)
(664 8.8327e-14 0)
(664 9.53832e-14 0)
(664 5.22357e-14 0)
(664 8.19125e-15 0)
(664 8.85789e-15 0)
(664 -5.54598e-14 0)
(664 -1.38127e-13 0)
(664 -2.72023e-13 0)
(664 -4.10359e-13 0)
(664 -4.78008e-13 0)
(664 -4.65435e-13 0)
(664 -4.66483e-13 0)
(664 -5.06796e-13 0)
(664 -5.52599e-13 0)
(664 -6.21667e-13 0)
(664 -6.57086e-13 0)
(664 -7.13809e-13 0)
(664 -7.93115e-13 0)
(664 -8.29009e-13 0)
(664 -8.0503e-13 0)
(664 -7.19118e-13 0)
(664 -6.42651e-13 0)
(664 -6.56611e-13 0)
(664 -6.67058e-13 0)
(664 -6.75755e-13 0)
(664 -7.40704e-13 0)
(664 -7.6758e-13 0)
(664 -7.42765e-13 0)
(664 -7.78983e-13 0)
(664 -8.73766e-13 0)
(664 -8.98366e-13 0)
(664 -8.84707e-13 0)
(664 -8.5657e-13 0)
(664 -7.65164e-13 0)
(664 -6.39859e-13 0)
(664 -5.34074e-13 0)
(664 -4.76882e-13 0)
(664 -4.1379e-13 0)
(664 -3.58033e-13 0)
(664 -2.6067e-13 0)
(664 -1.74086e-13 0)
(664 -1.19005e-13 0)
(664 -5.40112e-14 0)
(664 -4.86536e-14 0)
(664 -4.18479e-14 0)
(664 -6.86768e-14 0)
(664 -1.66228e-13 0)
(664 -2.85093e-13 0)
(664 -3.28883e-13 0)
(664 -3.85525e-13 0)
(664 -5.28863e-13 0)
(664 -6.60515e-13 0)
(664 -7.74242e-13 0)
(664 -8.62223e-13 0)
(664 -9.43345e-13 0)
(664 -1.00759e-12 0)
(664 -9.82797e-13 0)
(664 -9.03116e-13 0)
(664 -8.15295e-13 0)
(664 -7.18071e-13 0)
(664 -6.9765e-13 0)
(664 -7.34414e-13 0)
(664 -7.94357e-13 0)
(664 -8.83259e-13 0)
(664 -9.52448e-13 0)
(664 -9.85825e-13 0)
(664 -9.8098e-13 0)
(664 -9.92071e-13 0)
(664 -1.05846e-12 0)
(664 -1.18993e-12 0)
(664 -1.30935e-12 0)
(664 -1.2903e-12 0)
(664 -1.23067e-12 0)
(664 -1.10901e-12 0)
(664 -9.4197e-13 0)
(664 -7.86838e-13 0)
(664 -6.16423e-13 0)
(664 -4.47803e-13 0)
(664 -3.92814e-13 0)
(664 -3.86592e-13 0)
(664 -3.8196e-13 0)
(664 -4.00501e-13 0)
(664 -4.88477e-13 0)
(664 -6.14993e-13 0)
(664 -8.00721e-13 0)
(664 -1.03616e-12 0)
(664 -1.17086e-12 0)
(664 -1.21542e-12 0)
(664 -1.26333e-12 0)
(664 -1.3485e-12 0)
(664 -1.42165e-12 0)
(664 -1.40448e-12 0)
(664 -1.37985e-12 0)
(664 -1.3742e-12 0)
(664 -1.49093e-12 0)
(664 -1.56797e-12 0)
(664 -1.5919e-12 0)
(664 -1.54735e-12 0)
(664 -1.43485e-12 0)
(664 -1.3378e-12 0)
(664 -1.29777e-12 0)
(664 -1.287e-12 0)
(664 -1.34964e-12 0)
(664 -1.47327e-12 0)
(664 -1.54724e-12 0)
(664 -1.58583e-12 0)
(664 -1.67855e-12 0)
(664 -1.7377e-12 0)
(664 -1.71768e-12 0)
(664 -1.76361e-12 0)
(664 -1.88329e-12 0)
(664 -1.95332e-12 0)
(664 -1.87473e-12 0)
(664 -1.64109e-12 0)
(664 -1.38951e-12 0)
(664 -1.18176e-12 0)
(664 -1.03646e-12 0)
(664 -9.64208e-13 0)
(664 -9.92385e-13 0)
(664 -1.0503e-12 0)
(664 -1.06824e-12 0)
(664 -1.08878e-12 0)
(664 -1.09016e-12 0)
(664 -1.08609e-12 0)
(664 -1.07098e-12 0)
(664 -1.0969e-12 0)
(664 -1.13644e-12 0)
(664 -1.18934e-12 0)
(664 -1.20811e-12 0)
(664 -1.25455e-12 0)
(664 -1.30184e-12 0)
(664 -1.27786e-12 0)
(664 -1.17381e-12 0)
(664 -1.13041e-12 0)
(664 -1.1955e-12 0)
(664 -1.20619e-12 0)
(664 -1.1527e-12 0)
(664 -1.1011e-12 0)
(664 -1.11953e-12 0)
(664 -1.13462e-12 0)
(664 -9.9715e-13 0)
(664 -8.06898e-13 0)
(664 -6.79521e-13 0)
(664 -6.66348e-13 0)
(664 -6.9613e-13 0)
(664 -7.6645e-13 0)
(664 -9.3074e-13 0)
(664 -1.01326e-12 0)
(664 -9.8383e-13 0)
(664 -8.79649e-13 0)
(664 -7.94913e-13 0)
(664 -7.9911e-13 0)
(664 -8.82454e-13 0)
(664 -9.83501e-13 0)
(664 -1.02694e-12 0)
(664 -9.40314e-13 0)
(664 -7.40332e-13 0)
(664 -5.55609e-13 0)
(664 -5.21266e-13 0)
(664 -6.00911e-13 0)
(664 -6.54425e-13 0)
(664 -7.49201e-13 0)
(664 -8.71204e-13 0)
(664 -9.5527e-13 0)
(664 -9.61066e-13 0)
(664 -1.03247e-12 0)
(664 -1.20154e-12 0)
(664 -1.3366e-12 0)
(664 -1.42705e-12 0)
(664 -1.48185e-12 0)
(664 -1.5397e-12 0)
(664 -1.619e-12 0)
(664 -1.6633e-12 0)
(664 -1.59256e-12 0)
(664 -1.41447e-12 0)
(664 -1.25902e-12 0)
(664 -1.14377e-12 0)
(664 -1.05821e-12 0)
(664 -1.02551e-12 0)
(664 -1.04494e-12 0)
(664 -1.02825e-12 0)
(664 -9.99588e-13 0)
(664 -9.65848e-13 0)
(664 -1.02518e-12 0)
(664 -1.12944e-12 0)
(664 -1.0901e-12 0)
(664 -8.02832e-13 0)
(664 -3.57817e-13 0)
(664 6.03273e-14 0)
(664 2.63371e-13 0)
(664 2.39808e-13 0)
(664 9.84326e-14 0)
(664 -1.12109e-13 0)
(664 -2.66312e-13 0)
(664 -2.67684e-13 0)
(664 -2.458e-13 0)
(664 -3.82786e-13 0)
(664 -7.18521e-13 0)
(664 -1.12857e-12 0)
(664 -1.50862e-12 0)
(664 -1.69548e-12 0)
(664 -1.64728e-12 0)
(664 -1.48762e-12 0)
(664 -1.20264e-12 0)
(664 -8.53557e-13 0)
(664 -5.20083e-13 0)
(664 -3.455e-13 0)
(664 -3.33136e-13 0)
(664 -4.5089e-13 0)
(664 -6.29881e-13 0)
(664 -8.63902e-13 0)
(664 -9.97887e-13 0)
(664 -1.05586e-12 0)
(664 -1.18806e-12 0)
(664 -1.35846e-12 0)
(664 -1.38817e-12 0)
(664 -1.2894e-12 0)
(664 -1.12608e-12 0)
(664 -9.30453e-13 0)
(664 -7.95178e-13 0)
(664 -7.14701e-13 0)
(664 -6.56279e-13 0)
(664 -6.05733e-13 0)
(664 -5.23376e-13 0)
(664 -3.41155e-13 0)
(664 -1.11837e-13 0)
(664 4.74239e-14 0)
(664 9.54087e-14 0)
(664 -6.06535e-15 0)
(664 -9.8855e-14 0)
(664 -9.69729e-14 0)
(664 -5.19111e-14 0)
(664 4.63175e-14 0)
(664 2.07265e-13 0)
(664 4.13542e-13 0)
(664 6.45831e-13 0)
(664 9.00787e-13 0)
(664 1.35448e-12 0)
(664 2.29957e-12 0)
(664 3.99104e-12 0)
(664 6.90462e-12 0)
(664 1.18397e-11 0)
(664 2.0039e-11 0)
(664 3.35693e-11 0)
(664 5.59703e-11 0)
(664 9.31235e-11 0)
(664 1.54664e-10 0)
(664 2.56707e-10 0)
(664 4.25821e-10 0)
(664 7.06002e-10 0)
(664 1.17074e-09 0)
(664 1.94218e-09 0)
(664 3.22339e-09 0)
(664 5.35221e-09 0)
(664 8.89119e-09 0)
(664 1.47774e-08 0)
(664 2.45726e-08 0)
(664 4.08816e-08 0)
(664 6.80507e-08 0)
(664 1.13338e-07 0)
(664 1.88871e-07 0)
(664 3.14928e-07 0)
(664 5.25436e-07 0)
(664 8.7721e-07 0)
(664 1.46545e-06 0)
(664 2.4498e-06 0)
(664 4.09822e-06 0)
(664 6.86079e-06 0)
(664 1.14942e-05 0)
(664 1.92716e-05 0)
(664 3.23374e-05 0)
(664 5.43064e-05 0)
(663.999 9.12781e-05 0)
(663.999 0.000153555 0)
(663.998 0.000258558 0)
(663.997 0.000435768 0)
(663.995 0.000735143 0)
(663.991 0.00124142 0)
(663.986 0.00209849 0)
(663.977 0.00355098 0)
(663.962 0.00601529 0)
(663.938 0.010201 0)
(663.899 0.0173186 0)
(663.835 0.0294363 0)
(663.731 0.0500912 0)
(663.563 0.0853402 0)
(663.289 0.14557 0)
(662.845 0.248602 0)
(662.125 0.425084 0)
(660.96 0.727662 0)
(659.078 1.24712 0)
(656.05 2.13895 0)
(651.202 3.6719 0)
(643.529 6.29619 0)
(631.505 10.7856 0)
(613.999 18.2896 0)
(664 -1.36232e-14 0)
(664 -4.78743e-14 0)
(664 -6.79013e-14 0)
(664 -4.30809e-14 0)
(664 1.19012e-14 0)
(664 6.37733e-14 0)
(664 2.56651e-14 0)
(664 -4.2636e-14 0)
(664 -8.82141e-14 0)
(664 -1.17739e-13 0)
(664 -1.08269e-13 0)
(664 -5.02156e-14 0)
(664 -2.1596e-14 0)
(664 -5.6638e-14 0)
(664 -1.06014e-13 0)
(664 -1.33595e-13 0)
(664 -9.96825e-14 0)
(664 -1.42163e-13 0)
(664 -1.90453e-13 0)
(664 -2.3365e-13 0)
(664 -2.84569e-13 0)
(664 -3.24808e-13 0)
(664 -3.77068e-13 0)
(664 -5.06538e-13 0)
(664 -6.98633e-13 0)
(664 -8.41106e-13 0)
(664 -8.36243e-13 0)
(664 -7.76434e-13 0)
(664 -7.45966e-13 0)
(664 -7.56264e-13 0)
(664 -7.90266e-13 0)
(664 -8.44876e-13 0)
(664 -8.59352e-13 0)
(664 -8.03294e-13 0)
(664 -7.03509e-13 0)
(664 -5.50128e-13 0)
(664 -3.59048e-13 0)
(664 -2.09366e-13 0)
(664 -1.53099e-13 0)
(664 -2.3637e-13 0)
(664 -3.16643e-13 0)
(664 -3.80381e-13 0)
(664 -4.12254e-13 0)
(664 -4.37212e-13 0)
(664 -4.68074e-13 0)
(664 -4.80129e-13 0)
(664 -4.23765e-13 0)
(664 -3.26356e-13 0)
(664 -2.80527e-13 0)
(664 -3.61364e-13 0)
(664 -5.45352e-13 0)
(664 -7.59366e-13 0)
(664 -8.94408e-13 0)
(664 -9.5171e-13 0)
(664 -9.68414e-13 0)
(664 -9.33133e-13 0)
(664 -8.47912e-13 0)
(664 -8.10378e-13 0)
(664 -8.67095e-13 0)
(664 -9.5607e-13 0)
(664 -9.4665e-13 0)
(664 -8.95612e-13 0)
(664 -7.63341e-13 0)
(664 -6.07411e-13 0)
(664 -5.10095e-13 0)
(664 -5.46067e-13 0)
(664 -6.74507e-13 0)
(664 -7.33724e-13 0)
(664 -7.21137e-13 0)
(664 -6.85282e-13 0)
(664 -6.1886e-13 0)
(664 -6.09201e-13 0)
(664 -6.07986e-13 0)
(664 -5.41601e-13 0)
(664 -5.03094e-13 0)
(664 -5.86361e-13 0)
(664 -7.25267e-13 0)
(664 -8.80027e-13 0)
(664 -9.55621e-13 0)
(664 -9.05392e-13 0)
(664 -7.89091e-13 0)
(664 -6.76908e-13 0)
(664 -6.1121e-13 0)
(664 -5.86848e-13 0)
(664 -6.18283e-13 0)
(664 -7.57933e-13 0)
(664 -9.82161e-13 0)
(664 -1.10306e-12 0)
(664 -1.08619e-12 0)
(664 -1.04992e-12 0)
(664 -1.01454e-12 0)
(664 -1.0031e-12 0)
(664 -1.01701e-12 0)
(664 -1.09649e-12 0)
(664 -1.16926e-12 0)
(664 -1.25812e-12 0)
(664 -1.33082e-12 0)
(664 -1.36443e-12 0)
(664 -1.27102e-12 0)
(664 -1.14708e-12 0)
(664 -1.04741e-12 0)
(664 -1.02182e-12 0)
(664 -1.09542e-12 0)
(664 -1.18336e-12 0)
(664 -1.18085e-12 0)
(664 -1.09201e-12 0)
(664 -1.00109e-12 0)
(664 -8.87863e-13 0)
(664 -7.9055e-13 0)
(664 -7.53117e-13 0)
(664 -8.08067e-13 0)
(664 -8.62639e-13 0)
(664 -8.96657e-13 0)
(664 -8.54916e-13 0)
(664 -8.19473e-13 0)
(664 -7.4035e-13 0)
(664 -7.19047e-13 0)
(664 -8.27187e-13 0)
(664 -9.59397e-13 0)
(664 -1.08711e-12 0)
(664 -1.17072e-12 0)
(664 -1.20892e-12 0)
(664 -1.19726e-12 0)
(664 -1.18732e-12 0)
(664 -1.05419e-12 0)
(664 -8.07748e-13 0)
(664 -5.53004e-13 0)
(664 -3.35113e-13 0)
(664 -1.46697e-13 0)
(664 -1.00243e-13 0)
(664 -2.66461e-13 0)
(664 -5.58906e-13 0)
(664 -7.24406e-13 0)
(664 -7.2822e-13 0)
(664 -7.23003e-13 0)
(664 -7.26739e-13 0)
(664 -7.22912e-13 0)
(664 -7.59661e-13 0)
(664 -9.18465e-13 0)
(664 -1.16895e-12 0)
(664 -1.29778e-12 0)
(664 -1.34745e-12 0)
(664 -1.41669e-12 0)
(664 -1.50597e-12 0)
(664 -1.55175e-12 0)
(664 -1.6773e-12 0)
(664 -1.80618e-12 0)
(664 -1.86241e-12 0)
(664 -1.82248e-12 0)
(664 -1.72756e-12 0)
(664 -1.54639e-12 0)
(664 -1.27045e-12 0)
(664 -9.72777e-13 0)
(664 -7.69772e-13 0)
(664 -6.49491e-13 0)
(664 -5.31798e-13 0)
(664 -4.81646e-13 0)
(664 -4.62797e-13 0)
(664 -4.26548e-13 0)
(664 -3.70521e-13 0)
(664 -4.21945e-13 0)
(664 -5.2801e-13 0)
(664 -7.26432e-13 0)
(664 -9.96862e-13 0)
(664 -1.26298e-12 0)
(664 -1.37619e-12 0)
(664 -1.42161e-12 0)
(664 -1.50922e-12 0)
(664 -1.59071e-12 0)
(664 -1.54434e-12 0)
(664 -1.52636e-12 0)
(664 -1.5373e-12 0)
(664 -1.41223e-12 0)
(664 -1.20446e-12 0)
(664 -1.11585e-12 0)
(664 -1.16942e-12 0)
(664 -1.34856e-12 0)
(664 -1.57368e-12 0)
(664 -1.66864e-12 0)
(664 -1.5472e-12 0)
(664 -1.32514e-12 0)
(664 -1.15615e-12 0)
(664 -1.01232e-12 0)
(664 -8.9291e-13 0)
(664 -7.4408e-13 0)
(664 -6.53019e-13 0)
(664 -6.57068e-13 0)
(664 -6.81255e-13 0)
(664 -6.98644e-13 0)
(664 -6.77594e-13 0)
(664 -6.07009e-13 0)
(664 -5.37224e-13 0)
(664 -4.47375e-13 0)
(664 -3.97017e-13 0)
(664 -3.01143e-13 0)
(664 -1.44491e-13 0)
(664 -4.87725e-14 0)
(664 -4.98959e-15 0)
(664 3.84938e-14 0)
(664 1.13184e-13 0)
(664 1.72294e-13 0)
(664 1.46232e-13 0)
(664 1.41345e-14 0)
(664 -1.14423e-13 0)
(664 -1.03696e-13 0)
(664 -4.34662e-14 0)
(664 -6.02903e-16 0)
(664 -8.14166e-14 0)
(664 -3.19083e-13 0)
(664 -5.69337e-13 0)
(664 -7.88071e-13 0)
(664 -1.01955e-12 0)
(664 -1.24357e-12 0)
(664 -1.38666e-12 0)
(664 -1.40066e-12 0)
(664 -1.29436e-12 0)
(664 -1.12346e-12 0)
(664 -9.23867e-13 0)
(664 -7.47916e-13 0)
(664 -5.87417e-13 0)
(664 -5.01721e-13 0)
(664 -4.57934e-13 0)
(664 -4.25758e-13 0)
(664 -4.42443e-13 0)
(664 -4.38783e-13 0)
(664 -3.48455e-13 0)
(664 -2.47947e-13 0)
(664 -1.60201e-13 0)
(664 -7.27442e-14 0)
(664 -4.32112e-14 0)
(664 -2.4942e-15 0)
(664 5.26758e-14 0)
(664 6.52614e-14 0)
(664 1.05364e-13 0)
(664 1.46806e-13 0)
(664 2.1229e-13 0)
(664 2.62475e-13 0)
(664 3.34995e-13 0)
(664 5.00134e-13 0)
(664 8.26072e-13 0)
(664 1.35031e-12 0)
(664 2.24321e-12 0)
(664 3.79237e-12 0)
(664 6.31266e-12 0)
(664 1.05619e-11 0)
(664 1.77725e-11 0)
(664 2.97152e-11 0)
(664 4.93519e-11 0)
(664 8.16802e-11 0)
(664 1.34962e-10 0)
(664 2.22861e-10 0)
(664 3.68051e-10 0)
(664 6.07792e-10 0)
(664 1.00383e-09 0)
(664 1.65846e-09 0)
(664 2.74077e-09 0)
(664 4.5305e-09 0)
(664 7.4908e-09 0)
(664 1.23884e-08 0)
(664 2.04928e-08 0)
(664 3.3907e-08 0)
(664 5.61159e-08 0)
(664 9.28951e-08 0)
(664 1.5382e-07 0)
(664 2.54769e-07 0)
(664 4.2208e-07 0)
(664 6.99456e-07 0)
(664 1.15942e-06 0)
(664 1.92238e-06 0)
(664 3.18823e-06 0)
(664 5.28902e-06 0)
(664 8.7763e-06 0)
(664 1.45665e-05 0)
(664 2.41829e-05 0)
(664 4.01569e-05 0)
(664 6.66975e-05 0)
(663.999 0.000110803 0)
(663.999 0.000184109 0)
(663.998 0.000305968 0)
(663.997 0.000508561 0)
(663.996 0.000845408 0)
(663.993 0.0014055 0)
(663.989 0.00233683 0)
(663.982 0.00388537 0)
(663.971 0.00645998 0)
(663.953 0.0107399 0)
(663.924 0.017853 0)
(663.878 0.0296714 0)
(663.803 0.0492998 0)
(663.683 0.0818825 0)
(663.489 0.135934 0)
(663.18 0.225525 0)
(662.685 0.373865 0)
(661.894 0.619154 0)
(660.634 1.024 0)
(658.636 1.69063 0)
(655.479 2.78411 0)
(650.547 4.56912 0)
(642.875 7.45256 0)
(631.711 12.0525 0)
(664 -3.49358e-14 0)
(664 -6.29565e-14 0)
(664 -7.81501e-14 0)
(664 -7.34111e-14 0)
(664 -8.28646e-14 0)
(664 -1.34349e-13 0)
(664 -1.64188e-13 0)
(664 -2.06762e-13 0)
(664 -2.57152e-13 0)
(664 -2.22761e-13 0)
(664 -1.4338e-13 0)
(664 -6.11158e-14 0)
(664 4.40911e-14 0)
(664 1.85426e-13 0)
(664 2.19618e-13 0)
(664 1.73234e-13 0)
(664 6.56522e-14 0)
(664 -2.86005e-14 0)
(664 -1.18671e-13 0)
(664 -1.61131e-13 0)
(664 -1.62861e-13 0)
(664 -9.39109e-14 0)
(664 -3.83152e-14 0)
(664 -1.04651e-13 0)
(664 -2.79245e-13 0)
(664 -5.07204e-13 0)
(664 -7.43516e-13 0)
(664 -9.20032e-13 0)
(664 -1.06506e-12 0)
(664 -1.17168e-12 0)
(664 -1.19796e-12 0)
(664 -1.14372e-12 0)
(664 -1.01647e-12 0)
(664 -8.5641e-13 0)
(664 -7.28615e-13 0)
(664 -5.54769e-13 0)
(664 -4.17691e-13 0)
(664 -4.01733e-13 0)
(664 -4.64528e-13 0)
(664 -4.98382e-13 0)
(664 -4.95397e-13 0)
(664 -4.34142e-13 0)
(664 -3.81869e-13 0)
(664 -3.59896e-13 0)
(664 -3.67466e-13 0)
(664 -3.84341e-13 0)
(664 -3.91603e-13 0)
(664 -4.08643e-13 0)
(664 -4.78778e-13 0)
(664 -5.31232e-13 0)
(664 -4.45128e-13 0)
(664 -3.00087e-13 0)
(664 -2.33658e-13 0)
(664 -2.84573e-13 0)
(664 -4.09046e-13 0)
(664 -5.4691e-13 0)
(664 -6.0962e-13 0)
(664 -6.16739e-13 0)
(664 -5.89082e-13 0)
(664 -4.28485e-13 0)
(664 -2.58158e-13 0)
(664 -2.20009e-13 0)
(664 -2.89454e-13 0)
(664 -4.59218e-13 0)
(664 -5.80836e-13 0)
(664 -5.75792e-13 0)
(664 -4.97868e-13 0)
(664 -4.41255e-13 0)
(664 -4.39002e-13 0)
(664 -5.31929e-13 0)
(664 -6.10764e-13 0)
(664 -5.80885e-13 0)
(664 -4.92869e-13 0)
(664 -3.89394e-13 0)
(664 -3.01952e-13 0)
(664 -2.7049e-13 0)
(664 -3.57614e-13 0)
(664 -5.6108e-13 0)
(664 -7.40609e-13 0)
(664 -8.83337e-13 0)
(664 -1.04285e-12 0)
(664 -1.16659e-12 0)
(664 -1.2238e-12 0)
(664 -1.25426e-12 0)
(664 -1.23922e-12 0)
(664 -1.16562e-12 0)
(664 -1.14572e-12 0)
(664 -1.21228e-12 0)
(664 -1.18713e-12 0)
(664 -1.07876e-12 0)
(664 -9.72368e-13 0)
(664 -9.10652e-13 0)
(664 -8.92429e-13 0)
(664 -9.13443e-13 0)
(664 -9.83383e-13 0)
(664 -1.12725e-12 0)
(664 -1.27064e-12 0)
(664 -1.39477e-12 0)
(664 -1.52289e-12 0)
(664 -1.64504e-12 0)
(664 -1.6459e-12 0)
(664 -1.67793e-12 0)
(664 -1.77919e-12 0)
(664 -1.93916e-12 0)
(664 -2.03116e-12 0)
(664 -2.04357e-12 0)
(664 -1.94018e-12 0)
(664 -1.7946e-12 0)
(664 -1.7225e-12 0)
(664 -1.72287e-12 0)
(664 -1.67878e-12 0)
(664 -1.55102e-12 0)
(664 -1.43222e-12 0)
(664 -1.35159e-12 0)
(664 -1.23766e-12 0)
(664 -1.09942e-12 0)
(664 -1.08301e-12 0)
(664 -1.16623e-12 0)
(664 -1.27204e-12 0)
(664 -1.26643e-12 0)
(664 -1.21327e-12 0)
(664 -1.15832e-12 0)
(664 -1.09123e-12 0)
(664 -9.73071e-13 0)
(664 -8.5245e-13 0)
(664 -7.43211e-13 0)
(664 -7.06926e-13 0)
(664 -7.10794e-13 0)
(664 -7.69118e-13 0)
(664 -8.6002e-13 0)
(664 -9.82853e-13 0)
(664 -1.15696e-12 0)
(664 -1.37845e-12 0)
(664 -1.55106e-12 0)
(664 -1.63755e-12 0)
(664 -1.68082e-12 0)
(664 -1.70024e-12 0)
(664 -1.67909e-12 0)
(664 -1.52056e-12 0)
(664 -1.29011e-12 0)
(664 -1.0593e-12 0)
(664 -8.27144e-13 0)
(664 -5.87243e-13 0)
(664 -5.2488e-13 0)
(664 -6.7778e-13 0)
(664 -8.34072e-13 0)
(664 -8.28102e-13 0)
(664 -7.21241e-13 0)
(664 -6.02755e-13 0)
(664 -4.78941e-13 0)
(664 -3.28172e-13 0)
(664 -2.08019e-13 0)
(664 -1.66459e-13 0)
(664 -2.68526e-13 0)
(664 -4.80173e-13 0)
(664 -6.05223e-13 0)
(664 -6.05541e-13 0)
(664 -5.03655e-13 0)
(664 -4.13426e-13 0)
(664 -4.76424e-13 0)
(664 -6.42278e-13 0)
(664 -8.25938e-13 0)
(664 -9.49248e-13 0)
(664 -9.85566e-13 0)
(664 -9.3058e-13 0)
(664 -7.97395e-13 0)
(664 -5.86475e-13 0)
(664 -3.63113e-13 0)
(664 -2.4632e-13 0)
(664 -1.70675e-13 0)
(664 -1.0002e-13 0)
(664 -1.57825e-13 0)
(664 -3.12573e-13 0)
(664 -5.23755e-13 0)
(664 -8.1581e-13 0)
(664 -1.13226e-12 0)
(664 -1.4001e-12 0)
(664 -1.62481e-12 0)
(664 -1.79424e-12 0)
(664 -1.82915e-12 0)
(664 -1.79524e-12 0)
(664 -1.79292e-12 0)
(664 -1.8314e-12 0)
(664 -1.89032e-12 0)
(664 -2.01296e-12 0)
(664 -2.13204e-12 0)
(664 -2.17919e-12 0)
(664 -2.0593e-12 0)
(664 -1.801e-12 0)
(664 -1.60776e-12 0)
(664 -1.59231e-12 0)
(664 -1.77593e-12 0)
(664 -1.98736e-12 0)
(664 -2.01773e-12 0)
(664 -1.86914e-12 0)
(664 -1.60053e-12 0)
(664 -1.27898e-12 0)
(664 -1.05909e-12 0)
(664 -9.99005e-13 0)
(664 -1.01295e-12 0)
(664 -9.83762e-13 0)
(664 -8.2079e-13 0)
(664 -5.98922e-13 0)
(664 -3.97171e-13 0)
(664 -2.77033e-13 0)
(664 -2.9544e-13 0)
(664 -4.40494e-13 0)
(664 -6.84277e-13 0)
(664 -9.40809e-13 0)
(664 -1.18323e-12 0)
(664 -1.25742e-12 0)
(664 -1.1722e-12 0)
(664 -9.8942e-13 0)
(664 -8.14506e-13 0)
(664 -6.95621e-13 0)
(664 -7.06317e-13 0)
(664 -7.09439e-13 0)
(664 -5.34972e-13 0)
(664 -2.1023e-13 0)
(664 8.35681e-14 0)
(664 2.76426e-13 0)
(664 2.34282e-13 0)
(664 -2.4721e-14 0)
(664 -3.40345e-13 0)
(664 -5.88742e-13 0)
(664 -7.51644e-13 0)
(664 -7.77606e-13 0)
(664 -7.60404e-13 0)
(664 -7.25546e-13 0)
(664 -7.00294e-13 0)
(664 -6.22651e-13 0)
(664 -4.84133e-13 0)
(664 -2.67763e-13 0)
(664 -8.5211e-14 0)
(664 -3.08138e-14 0)
(664 2.94311e-14 0)
(664 1.7871e-13 0)
(664 3.57501e-13 0)
(664 5.90041e-13 0)
(664 1.03854e-12 0)
(664 1.80628e-12 0)
(664 2.94621e-12 0)
(664 4.71555e-12 0)
(664 7.73258e-12 0)
(664 1.27817e-11 0)
(664 2.1056e-11 0)
(664 3.46884e-11 0)
(664 5.71439e-11 0)
(664 9.40727e-11 0)
(664 1.54683e-10 0)
(664 2.54207e-10 0)
(664 4.17756e-10 0)
(664 6.86773e-10 0)
(664 1.1295e-09 0)
(664 1.8579e-09 0)
(664 3.05617e-09 0)
(664 5.02751e-09 0)
(664 8.27102e-09 0)
(664 1.36081e-08 0)
(664 2.23907e-08 0)
(664 3.68434e-08 0)
(664 6.06283e-08 0)
(664 9.97725e-08 0)
(664 1.64196e-07 0)
(664 2.70227e-07 0)
(664 4.44738e-07 0)
(664 7.31956e-07 0)
(664 1.20467e-06 0)
(664 1.98265e-06 0)
(664 3.26297e-06 0)
(664 5.36988e-06 0)
(664 8.83676e-06 0)
(664 1.45408e-05 0)
(664 2.39247e-05 0)
(664 3.93597e-05 0)
(664 6.47438e-05 0)
(664 0.000106481 0)
(663.999 0.000175089 0)
(663.999 0.000287838 0)
(663.998 0.000473066 0)
(663.997 0.000777252 0)
(663.995 0.00127659 0)
(663.992 0.00209588 0)
(663.987 0.00343942 0)
(663.979 0.00564135 0)
(663.967 0.00924759 0)
(663.946 0.0151492 0)
(663.914 0.024799 0)
(663.863 0.0405617 0)
(663.781 0.0662812 0)
(663.651 0.108194 0)
(663.445 0.176396 0)
(663.117 0.287186 0)
(662.598 0.466808 0)
(661.778 0.757282 0)
(660.487 1.22569 0)
(658.459 1.97762 0)
(655.3 3.1792 0)
(650.378 5.07925 0)
(643.154 8.0601 0)
(664 3.47245e-14 0)
(664 7.20842e-14 0)
(664 1.01366e-13 0)
(664 9.59797e-14 0)
(664 6.79725e-14 0)
(664 6.47189e-14 0)
(664 7.82267e-14 0)
(664 1.18265e-13 0)
(664 2.00217e-13 0)
(664 2.84522e-13 0)
(664 2.82997e-13 0)
(664 2.52212e-13 0)
(664 2.32496e-13 0)
(664 1.98904e-13 0)
(664 1.63696e-13 0)
(664 1.52312e-13 0)
(664 2.18155e-13 0)
(664 3.16725e-13 0)
(664 3.19806e-13 0)
(664 2.52209e-13 0)
(664 2.20648e-13 0)
(664 6.45389e-14 0)
(664 -1.55584e-13 0)
(664 -2.94541e-13 0)
(664 -3.32753e-13 0)
(664 -3.62742e-13 0)
(664 -3.7506e-13 0)
(664 -3.66041e-13 0)
(664 -3.23699e-13 0)
(664 -2.7822e-13 0)
(664 -2.70031e-13 0)
(664 -2.5376e-13 0)
(664 -2.79517e-13 0)
(664 -4.10784e-13 0)
(664 -5.39095e-13 0)
(664 -6.33215e-13 0)
(664 -7.2918e-13 0)
(664 -7.75181e-13 0)
(664 -7.45084e-13 0)
(664 -6.99903e-13 0)
(664 -6.2761e-13 0)
(664 -4.97705e-13 0)
(664 -3.74602e-13 0)
(664 -2.88855e-13 0)
(664 -2.76935e-13 0)
(664 -2.92507e-13 0)
(664 -3.08669e-13 0)
(664 -3.51236e-13 0)
(664 -3.58876e-13 0)
(664 -2.85118e-13 0)
(664 -2.32611e-13 0)
(664 -2.7118e-13 0)
(664 -3.35671e-13 0)
(664 -3.0877e-13 0)
(664 -1.72779e-13 0)
(664 -1.20222e-13 0)
(664 -2.47168e-13 0)
(664 -3.66823e-13 0)
(664 -3.89965e-13 0)
(664 -3.96331e-13 0)
(664 -3.81588e-13 0)
(664 -3.94657e-13 0)
(664 -4.61823e-13 0)
(664 -6.11568e-13 0)
(664 -8.31319e-13 0)
(664 -1.046e-12 0)
(664 -1.13119e-12 0)
(664 -1.17692e-12 0)
(664 -1.15279e-12 0)
(664 -1.08003e-12 0)
(664 -1.00376e-12 0)
(664 -8.38659e-13 0)
(664 -6.76639e-13 0)
(664 -6.41391e-13 0)
(664 -6.62802e-13 0)
(664 -6.60754e-13 0)
(664 -5.82382e-13 0)
(664 -4.45143e-13 0)
(664 -2.80746e-13 0)
(664 -1.45899e-13 0)
(664 -7.41757e-14 0)
(664 -1.50948e-13 0)
(664 -3.39965e-13 0)
(664 -4.10104e-13 0)
(664 -3.41861e-13 0)
(664 -2.35503e-13 0)
(664 -1.6632e-13 0)
(664 -1.99222e-13 0)
(664 -3.56268e-13 0)
(664 -5.06942e-13 0)
(664 -6.84361e-13 0)
(664 -8.57986e-13 0)
(664 -9.974e-13 0)
(664 -1.09815e-12 0)
(664 -1.14691e-12 0)
(664 -1.11476e-12 0)
(664 -1.09605e-12 0)
(664 -1.16365e-12 0)
(664 -1.33447e-12 0)
(664 -1.47359e-12 0)
(664 -1.60628e-12 0)
(664 -1.67189e-12 0)
(664 -1.6965e-12 0)
(664 -1.6615e-12 0)
(664 -1.71392e-12 0)
(664 -1.83656e-12 0)
(664 -1.95937e-12 0)
(664 -2.0378e-12 0)
(664 -1.93721e-12 0)
(664 -1.6406e-12 0)
(664 -1.42042e-12 0)
(664 -1.35628e-12 0)
(664 -1.304e-12 0)
(664 -1.28227e-12 0)
(664 -1.24585e-12 0)
(664 -1.23208e-12 0)
(664 -1.13172e-12 0)
(664 -1.00945e-12 0)
(664 -9.49642e-13 0)
(664 -9.45772e-13 0)
(664 -8.65985e-13 0)
(664 -7.96555e-13 0)
(664 -7.98063e-13 0)
(664 -8.23655e-13 0)
(664 -8.20918e-13 0)
(664 -8.70235e-13 0)
(664 -9.65928e-13 0)
(664 -1.08162e-12 0)
(664 -1.11964e-12 0)
(664 -1.01807e-12 0)
(664 -8.62653e-13 0)
(664 -6.84256e-13 0)
(664 -5.23495e-13 0)
(664 -5.07292e-13 0)
(664 -5.67027e-13 0)
(664 -5.93237e-13 0)
(664 -6.10563e-13 0)
(664 -6.64701e-13 0)
(664 -7.17903e-13 0)
(664 -7.79187e-13 0)
(664 -8.87821e-13 0)
(664 -9.66176e-13 0)
(664 -1.01414e-12 0)
(664 -1.04373e-12 0)
(664 -1.09457e-12 0)
(664 -1.14149e-12 0)
(664 -1.11079e-12 0)
(664 -1.02958e-12 0)
(664 -9.97755e-13 0)
(664 -1.00308e-12 0)
(664 -1.00847e-12 0)
(664 -1.03594e-12 0)
(664 -1.11408e-12 0)
(664 -1.14289e-12 0)
(664 -1.18242e-12 0)
(664 -1.21909e-12 0)
(664 -1.1068e-12 0)
(664 -9.4898e-13 0)
(664 -9.33822e-13 0)
(664 -1.0699e-12 0)
(664 -1.28421e-12 0)
(664 -1.48253e-12 0)
(664 -1.54468e-12 0)
(664 -1.56771e-12 0)
(664 -1.62759e-12 0)
(664 -1.77999e-12 0)
(664 -1.95431e-12 0)
(664 -2.04573e-12 0)
(664 -2.0406e-12 0)
(664 -2.01184e-12 0)
(664 -1.90678e-12 0)
(664 -1.68557e-12 0)
(664 -1.47218e-12 0)
(664 -1.39219e-12 0)
(664 -1.41609e-12 0)
(664 -1.34961e-12 0)
(664 -1.10846e-12 0)
(664 -7.46821e-13 0)
(664 -4.34736e-13 0)
(664 -2.49711e-13 0)
(664 -2.268e-13 0)
(664 -2.94432e-13 0)
(664 -3.80778e-13 0)
(664 -3.94256e-13 0)
(664 -3.64917e-13 0)
(664 -3.58091e-13 0)
(664 -4.20757e-13 0)
(664 -5.46582e-13 0)
(664 -6.63379e-13 0)
(664 -7.16151e-13 0)
(664 -7.99069e-13 0)
(664 -8.89258e-13 0)
(664 -9.75308e-13 0)
(664 -9.96065e-13 0)
(664 -9.71344e-13 0)
(664 -1.01852e-12 0)
(664 -1.06113e-12 0)
(664 -9.73398e-13 0)
(664 -8.42809e-13 0)
(664 -8.03626e-13 0)