/*--------------------------------*- C++ -*----------------------------------*\
| =========                 |                                                 |
| \\      /  F ield         | OpenFOAM: The Open Source CFD Toolbox           |
|  \\    /   O peration     | Version:  2412                                  |
|   \\  /    A nd           | Website:  www.openfoam.com                      |
|    \\/     M anipulation  |                                                 |
\*---------------------------------------------------------------------------*/
FoamFile
{
    version     2.0;
    format      ascii;
    arch        "LSB;label=32;scalar=64";
    class       volVectorField;
    location    "0.0025";
    object      U;
}
// * * * * * * * * * * * * * * * * * * * * * * * * * * * * * * * * * * * * * //

dimensions      [0 1 -1 0 0 0 0];

internalField   nonuniform List<vector> 
180000
(
(664 -1.97746e-14 0)
(664 -4.37274e-14 0)
(664 -5.08575e-14 0)
(664 -9.00869e-14 0)
(664 -1.28777e-13 0)
(664 -1.61002e-13 0)
(664 -1.69804e-13 0)
(664 -1.74672e-13 0)
(664 -1.91627e-13 0)
(664 -2.05038e-13 0)
(664 -2.03165e-13 0)
(664 -2.07423e-13 0)
(664 -2.07254e-13 0)
(664 -1.84942e-13 0)
(664 -1.66594e-13 0)
(664 -1.66681e-13 0)
(664 -1.47869e-13 0)
(664 -1.46461e-13 0)
(664 -1.62183e-13 0)
(664 -1.74523e-13 0)
(664 -1.8999e-13 0)
(664 -2.0844e-13 0)
(664 -2.30201e-13 0)
(664 -2.23622e-13 0)
(664 -1.98259e-13 0)
(664 -1.91163e-13 0)
(664 -1.92165e-13 0)
(664 -1.75722e-13 0)
(664 -1.75385e-13 0)
(664 -1.58236e-13 0)
(664 -1.45477e-13 0)
(664 -1.34586e-13 0)
(664 -1.03821e-13 0)
(664 -6.59679e-14 0)
(664 -9.69661e-15 0)
(664 2.28016e-14 0)
(664 4.82994e-14 0)
(664 8.7068e-14 0)
(664 1.08941e-13 0)
(664 1.22046e-13 0)
(664 1.26562e-13 0)
(664 1.08388e-13 0)
(664 8.31451e-14 0)
(664 7.83251e-14 0)
(664 6.16745e-14 0)
(664 2.74631e-14 0)
(664 4.77377e-15 0)
(664 -2.84118e-14 0)
(664 -3.95785e-14 0)
(664 -3.63834e-14 0)
(664 -8.98568e-15 0)
(664 8.63037e-15 0)
(664 -4.02566e-15 0)
(664 -4.97644e-14 0)
(664 -1.16534e-13 0)
(664 -1.54899e-13 0)
(664 -1.86332e-13 0)
(664 -2.48138e-13 0)
(664 -3.01989e-13 0)
(664 -3.21464e-13 0)
(664 -3.33295e-13 0)
(664 -3.40669e-13 0)
(664 -3.5516e-13 0)
(664 -3.67818e-13 0)
(664 -3.64844e-13 0)
(664 -3.65737e-13 0)
(664 -3.86252e-13 0)
(664 -4.11997e-13 0)
(664 -4.24654e-13 0)
(664 -4.07043e-13 0)
(664 -4.07107e-13 0)
(664 -4.50184e-13 0)
(664 -5.05912e-13 0)
(664 -5.52687e-13 0)
(664 -5.74998e-13 0)
(664 -5.62679e-13 0)
(664 -5.49035e-13 0)
(664 -5.63122e-13 0)
(664 -5.78766e-13 0)
(664 -5.8653e-13 0)
(664 -5.85048e-13 0)
(664 -5.97583e-13 0)
(664 -6.25658e-13 0)
(664 -6.36497e-13 0)
(664 -6.25723e-13 0)
(664 -6.09248e-13 0)
(664 -5.58277e-13 0)
(664 -5.2197e-13 0)
(664 -4.89299e-13 0)
(664 -4.83102e-13 0)
(664 -4.62123e-13 0)
(664 -4.2818e-13 0)
(664 -4.38649e-13 0)
(664 -4.55455e-13 0)
(664 -4.70447e-13 0)
(664 -4.76024e-13 0)
(664 -4.57768e-13 0)
(664 -4.48099e-13 0)
(664 -4.62292e-13 0)
(664 -5.08932e-13 0)
(664 -5.60763e-13 0)
(664 -5.94447e-13 0)
(664 -6.07613e-13 0)
(664 -6.29833e-13 0)
(664 -6.62358e-13 0)
(664 -6.4797e-13 0)
(664 -6.06979e-13 0)
(664 -5.75885e-13 0)
(664 -5.28458e-13 0)
(664 -4.69527e-13 0)
(664 -4.15406e-13 0)
(664 -3.66569e-13 0)
(664 -3.17502e-13 0)
(664 -2.80847e-13 0)
(664 -2.56935e-13 0)
(664 -2.44082e-13 0)
(664 -2.23408e-13 0)
(664 -2.1184e-13 0)
(664 -2.0534e-13 0)
(664 -2.02935e-13 0)
(664 -2.03091e-13 0)
(664 -2.19363e-13 0)
(664 -2.39538e-13 0)
(664 -2.26162e-13 0)
(664 -2.28173e-13 0)
(664 -2.47527e-13 0)
(664 -2.79226e-13 0)
(664 -3.18845e-13 0)
(664 -3.63889e-13 0)
(664 -3.72281e-13 0)
(664 -3.93092e-13 0)
(664 -4.30832e-13 0)
(664 -4.50839e-13 0)
(664 -4.81679e-13 0)
(664 -5.31635e-13 0)
(664 -5.50834e-13 0)
(664 -5.4801e-13 0)
(664 -5.58597e-13 0)
(664 -5.59454e-13 0)
(664 -5.62105e-13 0)
(664 -5.48017e-13 0)
(664 -5.19065e-13 0)
(664 -5.01151e-13 0)
(664 -4.68584e-13 0)
(664 -4.51696e-13 0)
(664 -4.54862e-13 0)
(664 -4.53278e-13 0)
(664 -4.35396e-13 0)
(664 -4.37067e-13 0)
(664 -4.55724e-13 0)
(664 -4.41836e-13 0)
(664 -4.25313e-13 0)
(664 -4.37146e-13 0)
(664 -4.37091e-13 0)
(664 -4.19601e-13 0)
(664 -4.0302e-13 0)
(664 -3.89864e-13 0)
(664 -4.00855e-13 0)
(664 -4.16394e-13 0)
(664 -3.84289e-13 0)
(664 -3.50357e-13 0)
(664 -3.21422e-13 0)
(664 -2.71072e-13 0)
(664 -2.50623e-13 0)
(664 -2.84251e-13 0)
(664 -3.01714e-13 0)
(664 -3.21495e-13 0)
(664 -3.62636e-13 0)
(664 -4.03795e-13 0)
(664 -4.07464e-13 0)
(664 -3.94339e-13 0)
(664 -3.80051e-13 0)
(664 -3.7611e-13 0)
(664 -3.80896e-13 0)
(664 -3.72281e-13 0)
(664 -3.89352e-13 0)
(664 -4.07648e-13 0)
(664 -4.03543e-13 0)
(664 -4.22784e-13 0)
(664 -4.68168e-13 0)
(664 -5.00713e-13 0)
(664 -5.39132e-13 0)
(664 -6.02905e-13 0)
(664 -6.44231e-13 0)
(664 -6.61795e-13 0)
(664 -6.88622e-13 0)
(664 -7.04789e-13 0)
(664 -7.16723e-13 0)
(664 -7.19132e-13 0)
(664 -7.01238e-13 0)
(664 -7.0095e-13 0)
(664 -7.39201e-13 0)
(664 -7.74694e-13 0)
(664 -7.9832e-13 0)
(664 -8.17159e-13 0)
(664 -8.21706e-13 0)
(664 -8.23669e-13 0)
(664 -8.45784e-13 0)
(664 -8.71375e-13 0)
(664 -8.54926e-13 0)
(664 -8.12301e-13 0)
(664 -7.53641e-13 0)
(664 -6.97236e-13 0)
(664 -6.59703e-13 0)
(664 -6.46344e-13 0)
(664 -6.36754e-13 0)
(664 -6.15734e-13 0)
(664 -5.94735e-13 0)
(664 -5.97257e-13 0)
(664 -6.1979e-13 0)
(664 -6.03206e-13 0)
(664 -5.87096e-13 0)
(664 -5.65638e-13 0)
(664 -5.29476e-13 0)
(664 -4.86148e-13 0)
(664 -4.28928e-13 0)
(664 -3.7112e-13 0)
(664 -3.22039e-13 0)
(664 -2.95693e-13 0)
(664 -2.62959e-13 0)
(664 -2.17659e-13 0)
(664 -2.09637e-13 0)
(664 -2.30535e-13 0)
(664 -2.47861e-13 0)
(664 -2.70151e-13 0)
(664 -3.06653e-13 0)
(664 -3.42304e-13 0)
(664 -3.91462e-13 0)
(664 -4.23941e-13 0)
(664 -4.52207e-13 0)
(664 -5.01489e-13 0)
(664 -5.30236e-13 0)
(664 -5.31376e-13 0)
(664 -5.35635e-13 0)
(664 -5.55193e-13 0)
(664 -5.6172e-13 0)
(664 -5.79299e-13 0)
(664 -5.81197e-13 0)
(664 -5.84484e-13 0)
(664 -5.83474e-13 0)
(664 -5.7064e-13 0)
(664 -5.45206e-13 0)
(664 -5.04376e-13 0)
(664 -4.12852e-13 0)
(664 -2.87146e-13 0)
(664 -7.44131e-14 0)
(664 3.33405e-13 0)
(664 1.06588e-12 0)
(664 2.33199e-12 0)
(664 4.50816e-12 0)
(664 8.22972e-12 0)
(664 1.46426e-11 0)
(664 2.5718e-11 0)
(664 4.48446e-11 0)
(664 7.78009e-11 0)
(664 1.34774e-10 0)
(664 2.33306e-10 0)
(664 4.03657e-10 0)
(664 6.98438e-10 0)
(664 1.20892e-09 0)
(664 2.09366e-09 0)
(664 3.62814e-09 0)
(664 6.29195e-09 0)
(664 1.09199e-08 0)
(664 1.89682e-08 0)
(664 3.2977e-08 0)
(664 5.73862e-08 0)
(664 9.9958e-08 0)
(664 1.74292e-07 0)
(664 3.04218e-07 0)
(664 5.31593e-07 0)
(664 9.29951e-07 0)
(664 1.62879e-06 0)
(664 2.85623e-06 0)
(664 5.01516e-06 0)
(664 8.81738e-06 0)
(664 1.55237e-05 0)
(663.999 2.73686e-05 0)
(663.999 4.83225e-05 0)
(663.998 8.54449e-05 0)
(663.997 0.000151321 0)
(663.995 0.000268402 0)
(663.991 0.000476853 0)
(663.985 0.000848578 0)
(663.975 0.00151266 0)
(663.958 0.002701 0)
(663.928 0.00483139 0)
(663.876 0.0086571 0)
(663.788 0.0155412 0)
(663.637 0.0279486 0)
(663.378 0.0503547 0)
(662.932 0.090864 0)
(662.166 0.164305 0)
(660.846 0.297631 0)
(658.577 0.540643 0)
(654.68 0.982072 0)
(648.007 1.78747 0)
(636.487 3.2497 0)
(616.928 5.95535 0)
(585.52 10.8192 0)
(664 -2.42882e-14 0)
(664 -4.51608e-14 0)
(664 -4.54775e-14 0)
(664 -6.39057e-14 0)
(664 -1.23252e-13 0)
(664 -1.65318e-13 0)
(664 -1.8308e-13 0)
(664 -1.93814e-13 0)
(664 -1.99938e-13 0)
(664 -1.94457e-13 0)
(664 -1.96153e-13 0)
(664 -1.87194e-13 0)
(664 -1.60485e-13 0)
(664 -1.38012e-13 0)
(664 -1.28846e-13 0)
(664 -1.18846e-13 0)
(664 -1.12503e-13 0)
(664 -1.13369e-13 0)
(664 -1.12501e-13 0)
(664 -1.44824e-13 0)
(664 -1.71985e-13 0)
(664 -1.72437e-13 0)
(664 -1.78046e-13 0)
(664 -1.85654e-13 0)
(664 -1.70703e-13 0)
(664 -1.67165e-13 0)
(664 -1.93206e-13 0)
(664 -2.367e-13 0)
(664 -2.73896e-13 0)
(664 -3.06865e-13 0)
(664 -3.21826e-13 0)
(664 -3.4904e-13 0)
(664 -3.71714e-13 0)
(664 -3.82436e-13 0)
(664 -3.88548e-13 0)
(664 -3.97207e-13 0)
(664 -4.0298e-13 0)
(664 -4.33247e-13 0)
(664 -4.56739e-13 0)
(664 -4.71797e-13 0)
(664 -4.97945e-13 0)
(664 -4.99094e-13 0)
(664 -4.92535e-13 0)
(664 -4.98592e-13 0)
(664 -5.00914e-13 0)
(664 -5.26694e-13 0)
(664 -5.64465e-13 0)
(664 -5.66221e-13 0)
(664 -5.57393e-13 0)
(664 -5.63231e-13 0)
(664 -5.79052e-13 0)
(664 -6.01431e-13 0)
(664 -6.0397e-13 0)
(664 -6.0989e-13 0)
(664 -6.33391e-13 0)
(664 -6.44648e-13 0)
(664 -6.58927e-13 0)
(664 -6.59234e-13 0)
(664 -6.79686e-13 0)
(664 -7.00669e-13 0)
(664 -7.13192e-13 0)
(664 -7.13687e-13 0)
(664 -6.85428e-13 0)
(664 -6.50923e-13 0)
(664 -6.00033e-13 0)
(664 -5.83427e-13 0)
(664 -6.12404e-13 0)
(664 -6.46083e-13 0)
(664 -6.72357e-13 0)
(664 -6.87254e-13 0)
(664 -6.93102e-13 0)
(664 -7.16689e-13 0)
(664 -7.63096e-13 0)
(664 -8.06122e-13 0)
(664 -8.62228e-13 0)
(664 -8.87654e-13 0)
(664 -8.7399e-13 0)
(664 -8.56442e-13 0)
(664 -8.5177e-13 0)
(664 -8.6127e-13 0)
(664 -8.59201e-13 0)
(664 -8.32803e-13 0)
(664 -8.0762e-13 0)
(664 -7.8418e-13 0)
(664 -7.69154e-13 0)
(664 -7.31581e-13 0)
(664 -7.03207e-13 0)
(664 -6.82948e-13 0)
(664 -6.59171e-13 0)
(664 -6.72716e-13 0)
(664 -6.63423e-13 0)
(664 -6.4734e-13 0)
(664 -6.47842e-13 0)
(664 -6.63856e-13 0)
(664 -6.82113e-13 0)
(664 -7.03647e-13 0)
(664 -7.09615e-13 0)
(664 -7.02143e-13 0)
(664 -7.06642e-13 0)
(664 -7.09919e-13 0)
(664 -7.32594e-13 0)
(664 -7.62911e-13 0)
(664 -7.73735e-13 0)
(664 -7.86908e-13 0)
(664 -8.00422e-13 0)
(664 -8.17465e-13 0)
(664 -8.34479e-13 0)
(664 -8.57372e-13 0)
(664 -8.5058e-13 0)
(664 -8.25566e-13 0)
(664 -7.9181e-13 0)
(664 -7.51606e-13 0)
(664 -7.15995e-13 0)
(664 -6.6806e-13 0)
(664 -6.15116e-13 0)
(664 -5.73576e-13 0)
(664 -5.50309e-13 0)
(664 -5.15102e-13 0)
(664 -4.65143e-13 0)
(664 -4.32956e-13 0)
(664 -4.15113e-13 0)
(664 -4.2465e-13 0)
(664 -4.40925e-13 0)
(664 -4.73187e-13 0)
(664 -5.22293e-13 0)
(664 -5.78666e-13 0)
(664 -6.31927e-13 0)
(664 -6.83559e-13 0)
(664 -7.3752e-13 0)
(664 -7.66266e-13 0)
(664 -7.87572e-13 0)
(664 -8.36649e-13 0)
(664 -8.9158e-13 0)
(664 -9.37266e-13 0)
(664 -9.55807e-13 0)
(664 -9.67576e-13 0)
(664 -9.909e-13 0)
(664 -1.00335e-12 0)
(664 -9.90014e-13 0)
(664 -9.75113e-13 0)
(664 -9.69937e-13 0)
(664 -9.80613e-13 0)
(664 -9.6197e-13 0)
(664 -9.32959e-13 0)
(664 -8.92285e-13 0)
(664 -8.65332e-13 0)
(664 -8.73999e-13 0)
(664 -8.75346e-13 0)
(664 -8.53939e-13 0)
(664 -8.42083e-13 0)
(664 -8.36369e-13 0)
(664 -8.34173e-13 0)
(664 -8.2652e-13 0)
(664 -8.25352e-13 0)
(664 -8.10611e-13 0)
(664 -7.88257e-13 0)
(664 -7.97402e-13 0)
(664 -8.09431e-13 0)
(664 -8.22034e-13 0)
(664 -8.09595e-13 0)
(664 -7.75795e-13 0)
(664 -7.62738e-13 0)
(664 -7.74981e-13 0)
(664 -7.85092e-13 0)
(664 -8.01964e-13 0)
(664 -8.24119e-13 0)
(664 -8.44883e-13 0)
(664 -8.73043e-13 0)
(664 -8.92931e-13 0)
(664 -8.93727e-13 0)
(664 -9.06677e-13 0)
(664 -9.09946e-13 0)
(664 -8.90547e-13 0)
(664 -8.8035e-13 0)
(664 -8.77118e-13 0)
(664 -8.76654e-13 0)
(664 -9.04971e-13 0)
(664 -9.36822e-13 0)
(664 -9.8829e-13 0)
(664 -1.03617e-12 0)
(664 -1.07313e-12 0)
(664 -1.09596e-12 0)
(664 -1.11832e-12 0)
(664 -1.1402e-12 0)
(664 -1.14921e-12 0)
(664 -1.13156e-12 0)
(664 -1.08286e-12 0)
(664 -1.05161e-12 0)
(664 -1.02878e-12 0)
(664 -9.96967e-13 0)
(664 -9.44871e-13 0)
(664 -9.04175e-13 0)
(664 -8.81004e-13 0)
(664 -8.96489e-13 0)
(664 -9.33485e-13 0)
(664 -9.5306e-13 0)
(664 -9.40817e-13 0)
(664 -9.27595e-13 0)
(664 -9.06038e-13 0)
(664 -8.59087e-13 0)
(664 -7.99554e-13 0)
(664 -7.27869e-13 0)
(664 -6.64742e-13 0)
(664 -6.34447e-13 0)
(664 -5.94489e-13 0)
(664 -5.7164e-13 0)
(664 -5.51629e-13 0)
(664 -5.30154e-13 0)
(664 -5.23484e-13 0)
(664 -5.41898e-13 0)
(664 -5.49752e-13 0)
(664 -5.58223e-13 0)
(664 -5.72254e-13 0)
(664 -5.44136e-13 0)
(664 -4.85664e-13 0)
(664 -4.26295e-13 0)
(664 -3.89095e-13 0)
(664 -3.72653e-13 0)
(664 -3.71511e-13 0)
(664 -3.47225e-13 0)
(664 -3.12285e-13 0)
(664 -3.17912e-13 0)
(664 -3.65846e-13 0)
(664 -3.66367e-13 0)
(664 -3.44602e-13 0)
(664 -3.44909e-13 0)
(664 -3.57694e-13 0)
(664 -3.88115e-13 0)
(664 -4.10503e-13 0)
(664 -4.49052e-13 0)
(664 -4.96923e-13 0)
(664 -5.44121e-13 0)
(664 -5.84466e-13 0)
(664 -6.45444e-13 0)
(664 -7.06347e-13 0)
(664 -7.60059e-13 0)
(664 -7.98847e-13 0)
(664 -8.26322e-13 0)
(664 -8.27568e-13 0)
(664 -7.9656e-13 0)
(664 -7.49934e-13 0)
(664 -6.69044e-13 0)
(664 -5.43346e-13 0)
(664 -2.93208e-13 0)
(664 1.4285e-13 0)
(664 8.60748e-13 0)
(664 2.06903e-12 0)
(664 4.13944e-12 0)
(664 7.66174e-12 0)
(664 1.36403e-11 0)
(664 2.38716e-11 0)
(664 4.14693e-11 0)
(664 7.17249e-11 0)
(664 1.23736e-10 0)
(664 2.13192e-10 0)
(664 3.6722e-10 0)
(664 6.32541e-10 0)
(664 1.08966e-09 0)
(664 1.87776e-09 0)
(664 3.23702e-09 0)
(664 5.58292e-09 0)
(664 9.63337e-09 0)
(664 1.66315e-08 0)
(664 2.87285e-08 0)
(664 4.96542e-08 0)
(664 8.58709e-08 0)
(664 1.48599e-07 0)
(664 2.57307e-07 0)
(664 4.45848e-07 0)
(664 7.73045e-07 0)
(664 1.34134e-06 0)
(664 2.32903e-06 0)
(664 4.04714e-06 0)
(664 7.03785e-06 0)
(664 1.22486e-05 0)
(664 2.13342e-05 0)
(664 3.71911e-05 0)
(663.999 6.48874e-05 0)
(663.999 0.000113313 0)
(663.999 0.00019805 0)
(663.998 0.000346489 0)
(663.996 0.000606738 0)
(663.993 0.00106353 0)
(663.988 0.00186602 0)
(663.98 0.00327749 0)
(663.966 0.00576236 0)
(663.943 0.0101422 0)
(663.903 0.0178695 0)
(663.837 0.0315205 0)
(663.725 0.0556593 0)
(663.536 0.0983974 0)
(663.219 0.174111 0)
(662.687 0.308456 0)
(661.794 0.547018 0)
(660.301 0.971631 0)
(657.819 1.72522 0)
(653.711 3.06361 0)
(646.949 5.42696 0)
(635.859 9.63575 0)
(619.072 16.9404 0)
(664 2.58334e-15 0)
(664 -2.09919e-15 0)
(664 -1.58599e-14 0)
(664 -2.71884e-14 0)
(664 -4.3628e-14 0)
(664 -7.61802e-14 0)
(664 -1.01398e-13 0)
(664 -1.39354e-13 0)
(664 -1.65371e-13 0)
(664 -2.01986e-13 0)
(664 -2.43363e-13 0)
(664 -2.51213e-13 0)
(664 -2.45656e-13 0)
(664 -2.57408e-13 0)
(664 -2.47049e-13 0)
(664 -2.12102e-13 0)
(664 -1.85122e-13 0)
(664 -1.55889e-13 0)
(664 -1.42636e-13 0)
(664 -1.32437e-13 0)
(664 -1.32996e-13 0)
(664 -1.35998e-13 0)
(664 -1.47892e-13 0)
(664 -1.6985e-13 0)
(664 -1.93734e-13 0)
(664 -2.00217e-13 0)
(664 -1.96045e-13 0)
(664 -1.83472e-13 0)
(664 -1.80722e-13 0)
(664 -2.06753e-13 0)
(664 -2.38911e-13 0)
(664 -2.6925e-13 0)
(664 -2.99714e-13 0)
(664 -3.35591e-13 0)
(664 -3.9749e-13 0)
(664 -4.20912e-13 0)
(664 -4.37113e-13 0)
(664 -4.66304e-13 0)
(664 -4.9463e-13 0)
(664 -5.22872e-13 0)
(664 -5.38067e-13 0)
(664 -5.40429e-13 0)
(664 -5.33377e-13 0)
(664 -5.08308e-13 0)
(664 -4.7998e-13 0)
(664 -4.72715e-13 0)
(664 -4.68319e-13 0)
(664 -4.47089e-13 0)
(664 -4.27433e-13 0)
(664 -4.24926e-13 0)
(664 -4.44114e-13 0)
(664 -4.74188e-13 0)
(664 -4.90102e-13 0)
(664 -4.52712e-13 0)
(664 -4.13868e-13 0)
(664 -3.88335e-13 0)
(664 -3.61944e-13 0)
(664 -3.47514e-13 0)
(664 -3.75499e-13 0)
(664 -4.16278e-13 0)
(664 -4.20629e-13 0)
(664 -3.85517e-13 0)
(664 -3.56681e-13 0)
(664 -3.57739e-13 0)
(664 -3.87918e-13 0)
(664 -4.36159e-13 0)
(664 -4.6595e-13 0)
(664 -4.79758e-13 0)
(664 -5.09348e-13 0)
(664 -5.46412e-13 0)
(664 -5.69871e-13 0)
(664 -5.76824e-13 0)
(664 -5.72471e-13 0)
(664 -5.58766e-13 0)
(664 -5.14797e-13 0)
(664 -4.90771e-13 0)
(664 -4.68082e-13 0)
(664 -4.29259e-13 0)
(664 -4.16042e-13 0)
(664 -4.29393e-13 0)
(664 -4.40154e-13 0)
(664 -4.31029e-13 0)
(664 -4.26155e-13 0)
(664 -4.24785e-13 0)
(664 -4.42516e-13 0)
(664 -4.84218e-13 0)
(664 -5.12961e-13 0)
(664 -5.34586e-13 0)
(664 -5.56913e-13 0)
(664 -5.54015e-13 0)
(664 -5.82659e-13 0)
(664 -6.41956e-13 0)
(664 -6.71729e-13 0)
(664 -6.89986e-13 0)
(664 -7.33043e-13 0)
(664 -7.7183e-13 0)
(664 -8.06277e-13 0)
(664 -8.27315e-13 0)
(664 -8.1966e-13 0)
(664 -8.09223e-13 0)
(664 -7.97335e-13 0)
(664 -7.62962e-13 0)
(664 -7.25897e-13 0)
(664 -6.80758e-13 0)
(664 -6.28224e-13 0)
(664 -5.88354e-13 0)
(664 -5.64834e-13 0)
(664 -5.40677e-13 0)
(664 -5.23398e-13 0)
(664 -5.23807e-13 0)
(664 -5.27144e-13 0)
(664 -5.36659e-13 0)
(664 -5.30917e-13 0)
(664 -4.96783e-13 0)
(664 -4.55206e-13 0)
(664 -4.00577e-13 0)
(664 -3.74043e-13 0)
(664 -3.50447e-13 0)
(664 -3.24748e-13 0)
(664 -3.23958e-13 0)
(664 -3.38304e-13 0)
(664 -3.37896e-13 0)
(664 -3.47434e-13 0)
(664 -3.77324e-13 0)
(664 -4.07261e-13 0)
(664 -4.52963e-13 0)
(664 -4.76748e-13 0)
(664 -4.93925e-13 0)
(664 -5.27424e-13 0)
(664 -6.04593e-13 0)
(664 -6.8226e-13 0)
(664 -7.31679e-13 0)
(664 -7.8842e-13 0)
(664 -8.57458e-13 0)
(664 -8.93476e-13 0)
(664 -9.31048e-13 0)
(664 -9.67334e-13 0)
(664 -9.82718e-13 0)
(664 -9.93424e-13 0)
(664 -9.92559e-13 0)
(664 -9.91595e-13 0)
(664 -9.99216e-13 0)
(664 -9.92872e-13 0)
(664 -9.56632e-13 0)
(664 -8.772e-13 0)
(664 -8.02423e-13 0)
(664 -7.19505e-13 0)
(664 -6.47318e-13 0)
(664 -5.87364e-13 0)
(664 -5.3329e-13 0)
(664 -4.97711e-13 0)
(664 -4.60478e-13 0)
(664 -4.34324e-13 0)
(664 -4.05544e-13 0)
(664 -3.92917e-13 0)
(664 -3.90112e-13 0)
(664 -3.80486e-13 0)
(664 -3.71859e-13 0)
(664 -3.65022e-13 0)
(664 -3.91072e-13 0)
(664 -4.27853e-13 0)
(664 -4.52055e-13 0)
(664 -4.92465e-13 0)
(664 -5.11389e-13 0)
(664 -5.28718e-13 0)
(664 -5.65159e-13 0)
(664 -6.03904e-13 0)
(664 -6.44973e-13 0)
(664 -6.83024e-13 0)
(664 -7.49532e-13 0)
(664 -8.24091e-13 0)
(664 -8.77609e-13 0)
(664 -9.08168e-13 0)
(664 -9.20747e-13 0)
(664 -9.44477e-13 0)
(664 -9.45078e-13 0)
(664 -9.24424e-13 0)
(664 -9.16657e-13 0)
(664 -9.05907e-13 0)
(664 -9.03081e-13 0)
(664 -9.14869e-13 0)
(664 -9.2299e-13 0)
(664 -9.15672e-13 0)
(664 -8.91576e-13 0)
(664 -8.95217e-13 0)
(664 -8.93025e-13 0)
(664 -8.7183e-13 0)
(664 -8.57604e-13 0)
(664 -8.52362e-13 0)
(664 -8.32762e-13 0)
(664 -7.88708e-13 0)
(664 -7.38576e-13 0)
(664 -6.9581e-13 0)
(664 -6.66641e-13 0)
(664 -6.48138e-13 0)
(664 -6.22418e-13 0)
(664 -5.9136e-13 0)
(664 -5.6471e-13 0)
(664 -5.28154e-13 0)
(664 -4.78992e-13 0)
(664 -4.55029e-13 0)
(664 -4.41371e-13 0)
(664 -4.36124e-13 0)
(664 -4.2794e-13 0)
(664 -4.14932e-13 0)
(664 -3.98417e-13 0)
(664 -3.89995e-13 0)
(664 -3.82268e-13 0)
(664 -3.82605e-13 0)
(664 -3.94429e-13 0)
(664 -3.97619e-13 0)
(664 -4.20977e-13 0)
(664 -4.29981e-13 0)
(664 -4.23727e-13 0)
(664 -4.35322e-13 0)
(664 -4.51436e-13 0)
(664 -4.60476e-13 0)
(664 -4.73093e-13 0)
(664 -4.77714e-13 0)
(664 -5.07437e-13 0)
(664 -5.39391e-13 0)
(664 -5.39941e-13 0)
(664 -5.23441e-13 0)
(664 -5.17761e-13 0)
(664 -4.83476e-13 0)
(664 -4.4564e-13 0)
(664 -4.37772e-13 0)
(664 -4.3434e-13 0)
(664 -4.24788e-13 0)
(664 -4.41254e-13 0)
(664 -4.83364e-13 0)
(664 -5.25435e-13 0)
(664 -5.65576e-13 0)
(664 -6.03879e-13 0)
(664 -6.50028e-13 0)
(664 -6.88552e-13 0)
(664 -6.70536e-13 0)
(664 -6.52852e-13 0)
(664 -6.274e-13 0)
(664 -5.62601e-13 0)
(664 -4.73044e-13 0)
(664 -3.59675e-13 0)
(664 -1.57377e-13 0)
(664 1.71979e-13 0)
(664 7.38814e-13 0)
(664 1.71489e-12 0)
(664 3.39453e-12 0)
(664 6.28106e-12 0)
(664 1.12036e-11 0)
(664 1.96243e-11 0)
(664 3.40715e-11 0)
(664 5.87708e-11 0)
(664 1.01067e-10 0)
(664 1.73502e-10 0)
(664 2.97623e-10 0)
(664 5.10302e-10 0)
(664 8.7479e-10 0)
(664 1.49956e-09 0)
(664 2.57084e-09 0)
(664 4.40804e-09 0)
(664 7.55988e-09 0)
(664 1.29679e-08 0)
(664 2.22507e-08 0)
(664 3.81867e-08 0)
(664 6.55542e-08 0)
(664 1.12561e-07 0)
(664 1.93328e-07 0)
(664 3.32123e-07 0)
(664 5.7072e-07 0)
(664 9.80932e-07 0)
(664 1.68644e-06 0)
(664 2.89993e-06 0)
(664 4.98785e-06 0)
(664 8.58057e-06 0)
(664 1.47645e-05 0)
(664 2.54088e-05 0)
(664 4.37357e-05 0)
(664 7.52901e-05 0)
(663.999 0.00012963 0)
(663.999 0.000223205 0)
(663.998 0.000384368 0)
(663.997 0.000661899 0)
(663.995 0.00113986 0)
(663.991 0.00196281 0)
(663.985 0.00337973 0)
(663.975 0.00581849 0)
(663.958 0.0100153 0)
(663.93 0.0172338 0)
(663.883 0.0296456 0)
(663.805 0.0509723 0)
(663.676 0.0875954 0)
(663.461 0.150415 0)
(663.106 0.258057 0)
(662.519 0.442259 0)
(661.55 0.757039 0)
(659.964 1.29338 0)
(657.375 2.20266 0)
(653.18 3.73598 0)
(646.381 6.3064 0)
(636.125 10.5826 0)
(664 -3.86214e-15 0)
(664 -1.64653e-14 0)
(664 -3.33755e-14 0)
(664 -3.60131e-14 0)
(664 -2.49772e-14 0)
(664 -1.6303e-14 0)
(664 -3.04964e-14 0)
(664 -4.31783e-14 0)
(664 -6.93726e-14 0)
(664 -1.17034e-13 0)
(664 -1.56818e-13 0)
(664 -1.93971e-13 0)
(664 -2.39199e-13 0)
(664 -2.93582e-13 0)
(664 -3.41155e-13 0)
(664 -3.83339e-13 0)
(664 -4.39196e-13 0)
(664 -4.98152e-13 0)
(664 -5.38818e-13 0)
(664 -5.81374e-13 0)
(664 -6.17745e-13 0)
(664 -6.70939e-13 0)
(664 -7.18736e-13 0)
(664 -7.77742e-13 0)
(664 -8.11623e-13 0)
(664 -8.45766e-13 0)
(664 -8.53461e-13 0)
(664 -8.42331e-13 0)
(664 -8.13793e-13 0)
(664 -7.83117e-13 0)
(664 -7.75643e-13 0)
(664 -7.55215e-13 0)
(664 -7.47933e-13 0)
(664 -7.50627e-13 0)
(664 -7.25335e-13 0)
(664 -6.94571e-13 0)
(664 -6.59729e-13 0)
(664 -6.16773e-13 0)
(664 -5.94928e-13 0)
(664 -5.97384e-13 0)
(664 -5.90458e-13 0)
(664 -5.84373e-13 0)
(664 -5.96716e-13 0)
(664 -5.91566e-13 0)
(664 -5.75492e-13 0)
(664 -5.15956e-13 0)
(664 -4.61003e-13 0)
(664 -4.50758e-13 0)
(664 -4.75559e-13 0)
(664 -4.76536e-13 0)
(664 -4.55137e-13 0)
(664 -4.26802e-13 0)
(664 -4.1905e-13 0)
(664 -4.3865e-13 0)
(664 -4.52701e-13 0)
(664 -4.86869e-13 0)
(664 -5.29891e-13 0)
(664 -5.52068e-13 0)
(664 -5.41403e-13 0)
(664 -5.37422e-13 0)
(664 -5.2482e-13 0)
(664 -5.39506e-13 0)
(664 -5.66619e-13 0)
(664 -5.91069e-13 0)
(664 -6.10076e-13 0)
(664 -6.24808e-13 0)
(664 -6.33251e-13 0)
(664 -6.46018e-13 0)
(664 -6.49801e-13 0)
(664 -6.5622e-13 0)
(664 -6.56831e-13 0)
(664 -6.7053e-13 0)
(664 -6.76263e-13 0)
(664 -6.54193e-13 0)
(664 -6.49297e-13 0)
(664 -6.81204e-13 0)
(664 -7.18195e-13 0)
(664 -7.41308e-13 0)
(664 -7.53088e-13 0)
(664 -7.59059e-13 0)
(664 -7.82461e-13 0)
(664 -8.00748e-13 0)
(664 -8.19587e-13 0)
(664 -8.58473e-13 0)
(664 -8.71577e-13 0)
(664 -8.71413e-13 0)
(664 -8.81486e-13 0)
(664 -8.70332e-13 0)
(664 -8.56351e-13 0)
(664 -8.44769e-13 0)
(664 -8.52033e-13 0)
(664 -8.66399e-13 0)
(664 -8.90164e-13 0)
(664 -8.9729e-13 0)
(664 -8.75888e-13 0)
(664 -8.6434e-13 0)
(664 -8.69929e-13 0)
(664 -9.01082e-13 0)
(664 -9.3474e-13 0)
(664 -9.55913e-13 0)
(664 -9.51289e-13 0)
(664 -9.16247e-13 0)
(664 -9.05208e-13 0)
(664 -8.83221e-13 0)
(664 -8.47697e-13 0)
(664 -7.92226e-13 0)
(664 -7.2304e-13 0)
(664 -6.55644e-13 0)
(664 -6.28119e-13 0)
(664 -6.08138e-13 0)
(664 -5.82161e-13 0)
(664 -5.78274e-13 0)
(664 -6.14953e-13 0)
(664 -6.63025e-13 0)
(664 -6.91119e-13 0)
(664 -7.38962e-13 0)
(664 -7.83627e-13 0)
(664 -8.24539e-13 0)
(664 -8.762e-13 0)
(664 -9.15558e-13 0)
(664 -9.31513e-13 0)
(664 -9.51118e-13 0)
(664 -9.62343e-13 0)
(664 -9.50886e-13 0)
(664 -9.56659e-13 0)
(664 -9.79001e-13 0)
(664 -9.88597e-13 0)
(664 -9.84597e-13 0)
(664 -9.95628e-13 0)
(664 -1.01447e-12 0)
(664 -1.03504e-12 0)
(664 -1.05561e-12 0)
(664 -1.04947e-12 0)
(664 -1.02199e-12 0)
(664 -1.00867e-12 0)
(664 -9.92985e-13 0)
(664 -9.73207e-13 0)
(664 -9.65239e-13 0)
(664 -9.50827e-13 0)
(664 -9.42239e-13 0)
(664 -9.17722e-13 0)
(664 -8.83405e-13 0)
(664 -8.74191e-13 0)
(664 -8.81089e-13 0)
(664 -8.83055e-13 0)
(664 -8.48417e-13 0)
(664 -8.19152e-13 0)
(664 -8.1076e-13 0)
(664 -8.13923e-13 0)
(664 -7.93758e-13 0)
(664 -7.71009e-13 0)
(664 -7.5811e-13 0)
(664 -7.49353e-13 0)
(664 -7.56667e-13 0)
(664 -7.67331e-13 0)
(664 -7.82052e-13 0)
(664 -7.96193e-13 0)
(664 -8.06102e-13 0)
(664 -8.43221e-13 0)
(664 -8.87312e-13 0)
(664 -9.19353e-13 0)
(664 -9.20362e-13 0)
(664 -8.91632e-13 0)
(664 -8.83174e-13 0)
(664 -8.90075e-13 0)
(664 -9.01994e-13 0)
(664 -9.17758e-13 0)
(664 -9.26307e-13 0)
(664 -9.535e-13 0)
(664 -1.00425e-12 0)
(664 -1.02622e-12 0)
(664 -1.03198e-12 0)
(664 -1.01816e-12 0)
(664 -1.02413e-12 0)
(664 -1.06768e-12 0)
(664 -1.13262e-12 0)
(664 -1.15224e-12 0)
(664 -1.13482e-12 0)
(664 -1.11486e-12 0)
(664 -1.11332e-12 0)
(664 -1.11433e-12 0)
(664 -1.13211e-12 0)
(664 -1.14773e-12 0)
(664 -1.14895e-12 0)
(664 -1.16305e-12 0)
(664 -1.17712e-12 0)
(664 -1.17496e-12 0)
(664 -1.14629e-12 0)
(664 -1.11741e-12 0)
(664 -1.10629e-12 0)
(664 -1.10919e-12 0)
(664 -1.10336e-12 0)
(664 -1.09044e-12 0)
(664 -1.04807e-12 0)
(664 -9.90945e-13 0)
(664 -9.36653e-13 0)
(664 -8.95008e-13 0)
(664 -8.54437e-13 0)
(664 -8.22423e-13 0)
(664 -8.17297e-13 0)
(664 -7.96531e-13 0)
(664 -7.67911e-13 0)
(664 -7.38253e-13 0)
(664 -7.27743e-13 0)
(664 -7.44695e-13 0)
(664 -7.71086e-13 0)
(664 -8.08062e-13 0)
(664 -8.3666e-13 0)
(664 -8.31713e-13 0)
(664 -8.03463e-13 0)
(664 -7.9915e-13 0)
(664 -8.14335e-13 0)
(664 -8.32735e-13 0)
(664 -8.61136e-13 0)
(664 -8.64513e-13 0)
(664 -8.61025e-13 0)
(664 -8.48714e-13 0)
(664 -8.40522e-13 0)
(664 -8.44658e-13 0)
(664 -8.64169e-13 0)
(664 -9.04945e-13 0)
(664 -9.40899e-13 0)
(664 -9.54458e-13 0)
(664 -9.73221e-13 0)
(664 -9.94323e-13 0)
(664 -9.99363e-13 0)
(664 -9.93132e-13 0)
(664 -9.90646e-13 0)
(664 -9.81146e-13 0)
(664 -9.72526e-13 0)
(664 -9.63366e-13 0)
(664 -9.63445e-13 0)
(664 -9.54059e-13 0)
(664 -9.01228e-13 0)
(664 -8.51341e-13 0)
(664 -8.31041e-13 0)
(664 -8.23179e-13 0)
(664 -7.88048e-13 0)
(664 -7.37403e-13 0)
(664 -6.91296e-13 0)
(664 -6.0195e-13 0)
(664 -4.2093e-13 0)
(664 -1.33242e-13 0)
(664 2.76872e-13 0)
(664 9.44274e-13 0)
(664 2.0876e-12 0)
(664 4.01499e-12 0)
(664 7.25993e-12 0)
(664 1.277e-11 0)
(664 2.21796e-11 0)
(664 3.82502e-11 0)
(664 6.56238e-11 0)
(664 1.12262e-10 0)
(664 1.91795e-10 0)
(664 3.2739e-10 0)
(664 5.58471e-10 0)
(664 9.52368e-10 0)
(664 1.62382e-09 0)
(664 2.76854e-09 0)
(664 4.71997e-09 0)
(664 8.04714e-09 0)
(664 1.37196e-08 0)
(664 2.33917e-08 0)
(664 3.98826e-08 0)
(664 6.80021e-08 0)
(664 1.15945e-07 0)
(664 1.97695e-07 0)
(664 3.37071e-07 0)
(664 5.74705e-07 0)
(664 9.79804e-07 0)
(664 1.67039e-06 0)
(664 2.84743e-06 0)
(664 4.8535e-06 0)
(664 8.27168e-06 0)
(664 1.40955e-05 0)
(664 2.40148e-05 0)
(664 4.09075e-05 0)
(664 6.96647e-05 0)
(664 0.000118609 0)
(663.999 0.000201871 0)
(663.999 0.000343472 0)
(663.998 0.000584148 0)
(663.996 0.000993046 0)
(663.994 0.00168727 0)
(663.99 0.00286525 0)
(663.983 0.00486239 0)
(663.971 0.00824583 0)
(663.953 0.0139719 0)
(663.922 0.0236534 0)
(663.871 0.0400017 0)
(663.787 0.0675726 0)
(663.649 0.113993 0)
(663.422 0.192008 0)
(663.052 0.322865 0)
(662.446 0.541821 0)
(661.462 0.907035 0)
(659.867 1.51283 0)
(657.291 2.51292 0)
(653.109 4.15058 0)
(646.74 6.81799 0)
(664 -7.39938e-15 0)
(664 7.99175e-15 0)
(664 2.27031e-14 0)
(664 1.84742e-14 0)
(664 3.05873e-14 0)
(664 6.37908e-14 0)
(664 1.11212e-13 0)
(664 1.38524e-13 0)
(664 1.52003e-13 0)
(664 1.94039e-13 0)
(664 2.40926e-13 0)
(664 2.70781e-13 0)
(664 2.73565e-13 0)
(664 2.66964e-13 0)
(664 2.37724e-13 0)
(664 1.82594e-13 0)
(664 8.511e-14 0)
(664 -2.17621e-14 0)
(664 -1.04305e-13 0)
(664 -1.66336e-13 0)
(664 -2.13129e-13 0)
(664 -2.41237e-13 0)
(664 -2.83383e-13 0)
(664 -3.19046e-13 0)
(664 -3.54594e-13 0)
(664 -3.93597e-13 0)
(664 -4.56145e-13 0)
(664 -5.10334e-13 0)
(664 -5.62994e-13 0)
(664 -6.06584e-13 0)
(664 -6.20089e-13 0)
(664 -6.33208e-13 0)
(664 -6.29094e-13 0)
(664 -5.9764e-13 0)
(664 -5.63325e-13 0)
(664 -5.64283e-13 0)
(664 -5.61396e-13 0)
(664 -5.48124e-13 0)
(664 -5.22026e-13 0)
(664 -4.85526e-13 0)
(664 -4.75474e-13 0)
(664 -4.91618e-13 0)
(664 -5.05782e-13 0)
(664 -5.00778e-13 0)
(664 -4.92718e-13 0)
(664 -4.96927e-13 0)
(664 -5.00204e-13 0)
(664 -5.2357e-13 0)
(664 -5.36047e-13 0)
(664 -5.50176e-13 0)
(664 -5.69076e-13 0)
(664 -5.66466e-13 0)
(664 -5.28036e-13 0)
(664 -5.38156e-13 0)
(664 -5.73572e-13 0)
(664 -5.82226e-13 0)
(664 -5.68564e-13 0)
(664 -5.69171e-13 0)
(664 -5.64147e-13 0)
(664 -5.55676e-13 0)
(664 -5.6989e-13 0)
(664 -6.06314e-13 0)
(664 -6.54143e-13 0)
(664 -6.55339e-13 0)
(664 -6.44215e-13 0)
(664 -6.48415e-13 0)
(664 -6.82003e-13 0)
(664 -7.11611e-13 0)
(664 -7.21681e-13 0)
(664 -7.5856e-13 0)
(664 -8.04733e-13 0)
(664 -8.1797e-13 0)
(664 -8.19303e-13 0)
(664 -8.58783e-13 0)
(664 -9.14723e-13 0)
(664 -9.51007e-13 0)
(664 -9.84296e-13 0)
(664 -1.02778e-12 0)
(664 -1.04655e-12 0)
(664 -1.05365e-12 0)
(664 -1.07163e-12 0)
(664 -1.07994e-12 0)
(664 -1.06243e-12 0)
(664 -1.03827e-12 0)
(664 -1.01102e-12 0)
(664 -9.92689e-13 0)
(664 -9.96436e-13 0)
(664 -1.00045e-12 0)
(664 -1.00223e-12 0)
(664 -1.01298e-12 0)
(664 -9.93187e-13 0)
(664 -9.61647e-13 0)
(664 -9.60931e-13 0)
(664 -9.55407e-13 0)
(664 -9.27131e-13 0)
(664 -9.28078e-13 0)
(664 -9.41944e-13 0)
(664 -9.48802e-13 0)
(664 -9.54091e-13 0)
(664 -9.5188e-13 0)
(664 -9.46951e-13 0)
(664 -9.68971e-13 0)
(664 -9.6587e-13 0)
(664 -9.73971e-13 0)
(664 -9.92e-13 0)
(664 -1.01178e-12 0)
(664 -1.03239e-12 0)
(664 -1.01016e-12 0)
(664 -9.77614e-13 0)
(664 -9.66496e-13 0)
(664 -9.48115e-13 0)
(664 -8.94502e-13 0)
(664 -8.56354e-13 0)
(664 -8.67575e-13 0)
(664 -8.9896e-13 0)
(664 -9.40223e-13 0)
(664 -9.78229e-13 0)
(664 -1.01182e-12 0)
(664 -1.04945e-12 0)
(664 -1.0693e-12 0)
(664 -1.10318e-12 0)
(664 -1.14441e-12 0)
(664 -1.16507e-12 0)
(664 -1.18035e-12 0)
(664 -1.17257e-12 0)
(664 -1.14236e-12 0)
(664 -1.14154e-12 0)
(664 -1.12676e-12 0)
(664 -1.064e-12 0)
(664 -9.94687e-13 0)
(664 -9.58446e-13 0)
(664 -9.43779e-13 0)
(664 -8.93916e-13 0)
(664 -8.36375e-13 0)
(664 -7.64727e-13 0)
(664 -6.93199e-13 0)
(664 -6.24388e-13 0)
(664 -5.42835e-13 0)
(664 -4.81839e-13 0)
(664 -4.30597e-13 0)
(664 -3.91063e-13 0)
(664 -3.77179e-13 0)
(664 -3.6271e-13 0)
(664 -3.64825e-13 0)
(664 -4.09705e-13 0)
(664 -4.8361e-13 0)
(664 -5.69181e-13 0)
(664 -6.64248e-13 0)
(664 -7.40563e-13 0)
(664 -7.93519e-13 0)
(664 -8.21807e-13 0)
(664 -8.43835e-13 0)
(664 -8.7323e-13 0)
(664 -9.27592e-13 0)
(664 -9.64952e-13 0)
(664 -9.89203e-13 0)
(664 -1.01921e-12 0)
(664 -1.04121e-12 0)
(664 -1.04585e-12 0)
(664 -1.02987e-12 0)
(664 -1.00372e-12 0)
(664 -9.97228e-13 0)
(664 -9.8532e-13 0)
(664 -9.48053e-13 0)
(664 -9.02434e-13 0)
(664 -8.67539e-13 0)
(664 -8.29857e-13 0)
(664 -7.93144e-13 0)
(664 -7.80797e-13 0)
(664 -7.60435e-13 0)
(664 -7.23619e-13 0)
(664 -6.95427e-13 0)
(664 -7.06186e-13 0)
(664 -7.3496e-13 0)
(664 -7.63827e-13 0)
(664 -7.97961e-13 0)
(664 -8.40833e-13 0)
(664 -8.88383e-13 0)
(664 -9.3012e-13 0)
(664 -9.30943e-13 0)
(664 -8.99439e-13 0)
(664 -8.73674e-13 0)
(664 -8.56917e-13 0)
(664 -8.76682e-13 0)
(664 -8.75509e-13 0)
(664 -8.57733e-13 0)
(664 -8.13892e-13 0)
(664 -7.41614e-13 0)
(664 -7.02362e-13 0)
(664 -6.84039e-13 0)
(664 -6.73e-13 0)
(664 -6.60396e-13 0)
(664 -6.30452e-13 0)
(664 -6.03427e-13 0)
(664 -5.77896e-13 0)
(664 -5.52262e-13 0)