/*--------------------------------*- C++ -*----------------------------------*\
| =========                 |                                                 |
| \\      /  F ield         | OpenFOAM: The Open Source CFD Toolbox           |
|  \\    /   O peration     | Version:  2412                                  |
|   \\  /    A nd           | Website:  www.openfoam.com                      |
|    \\/     M anipulation  |                                                 |
\*---------------------------------------------------------------------------*/
FoamFile
{
    version     2.0;
    format      ascii;
    arch        "LSB;label=32;scalar=64";
    class       volVectorField;
    location    "0.0025";
    object      U_0;
}
// * * * * * * * * * * * * * * * * * * * * * * * * * * * * * * * * * * * * * //

dimensions      [0 1 -1 0 0 0 0];

internalField   nonuniform List<vector> 
180000
(
(664 9.39722e-16 0)
(664 5.24611e-15 0)
(664 3.66413e-15 0)
(664 -8.71441e-15 0)
(664 -2.72779e-14 0)
(664 -5.37464e-14 0)
(664 -6.36492e-14 0)
(664 -7.74533e-14 0)
(664 -6.68511e-14 0)
(664 -5.20761e-14 0)
(664 -3.42617e-14 0)
(664 -1.29744e-14 0)
(664 1.79683e-15 0)
(664 1.84757e-14 0)
(664 3.2448e-14 0)
(664 4.04224e-14 0)
(664 4.5769e-14 0)
(664 5.28103e-14 0)
(664 6.85185e-14 0)
(664 8.33871e-14 0)
(664 1.01733e-13 0)
(664 1.30053e-13 0)
(664 1.52805e-13 0)
(664 1.59552e-13 0)
(664 1.59775e-13 0)
(664 1.58582e-13 0)
(664 1.38132e-13 0)
(664 1.17728e-13 0)
(664 9.16678e-14 0)
(664 6.22105e-14 0)
(664 5.42476e-14 0)
(664 6.3214e-14 0)
(664 8.54307e-14 0)
(664 1.12664e-13 0)
(664 1.38337e-13 0)
(664 1.7731e-13 0)
(664 1.99456e-13 0)
(664 2.16602e-13 0)
(664 2.15659e-13 0)
(664 2.03902e-13 0)
(664 1.87696e-13 0)
(664 1.46458e-13 0)
(664 9.52887e-14 0)
(664 5.33057e-14 0)
(664 1.89889e-15 0)
(664 -7.46206e-14 0)
(664 -1.55543e-13 0)
(664 -2.37172e-13 0)
(664 -3.03555e-13 0)
(664 -3.61504e-13 0)
(664 -4.13388e-13 0)
(664 -4.48348e-13 0)
(664 -4.67334e-13 0)
(664 -4.81494e-13 0)
(664 -4.89019e-13 0)
(664 -4.77177e-13 0)
(664 -4.73464e-13 0)
(664 -4.57482e-13 0)
(664 -4.53071e-13 0)
(664 -4.68657e-13 0)
(664 -4.94126e-13 0)
(664 -5.33273e-13 0)
(664 -5.87399e-13 0)
(664 -6.25413e-13 0)
(664 -6.46227e-13 0)
(664 -6.42879e-13 0)
(664 -6.34822e-13 0)
(664 -6.2572e-13 0)
(664 -6.30267e-13 0)
(664 -6.33143e-13 0)
(664 -6.12742e-13 0)
(664 -5.89736e-13 0)
(664 -5.53884e-13 0)
(664 -5.24075e-13 0)
(664 -5.08959e-13 0)
(664 -5.00965e-13 0)
(664 -4.89479e-13 0)
(664 -4.93379e-13 0)
(664 -4.94403e-13 0)
(664 -5.03804e-13 0)
(664 -5.19389e-13 0)
(664 -5.28214e-13 0)
(664 -5.42639e-13 0)
(664 -5.52658e-13 0)
(664 -5.43274e-13 0)
(664 -5.22976e-13 0)
(664 -5.23679e-13 0)
(664 -5.07421e-13 0)
(664 -5.10501e-13 0)
(664 -5.21358e-13 0)
(664 -5.13327e-13 0)
(664 -5.27508e-13 0)
(664 -5.4388e-13 0)
(664 -5.22686e-13 0)
(664 -4.99e-13 0)
(664 -4.89924e-13 0)
(664 -4.73155e-13 0)
(664 -4.66687e-13 0)
(664 -4.60261e-13 0)
(664 -4.62608e-13 0)
(664 -4.63415e-13 0)
(664 -4.63722e-13 0)
(664 -4.77095e-13 0)
(664 -4.83774e-13 0)
(664 -4.92647e-13 0)
(664 -4.83075e-13 0)
(664 -4.67437e-13 0)
(664 -4.71398e-13 0)
(664 -4.93125e-13 0)
(664 -5.34027e-13 0)
(664 -5.77498e-13 0)
(664 -6.17027e-13 0)
(664 -6.53115e-13 0)
(664 -6.87235e-13 0)
(664 -7.34094e-13 0)
(664 -7.76055e-13 0)
(664 -8.22693e-13 0)
(664 -8.83796e-13 0)
(664 -9.34715e-13 0)
(664 -9.95417e-13 0)
(664 -1.05834e-12 0)
(664 -1.09134e-12 0)
(664 -1.12221e-12 0)
(664 -1.14322e-12 0)
(664 -1.13422e-12 0)
(664 -1.12101e-12 0)
(664 -1.08626e-12 0)
(664 -1.04954e-12 0)
(664 -1.03209e-12 0)
(664 -1.03734e-12 0)
(664 -1.03225e-12 0)
(664 -1.02738e-12 0)
(664 -1.00229e-12 0)
(664 -9.59691e-13 0)
(664 -9.32824e-13 0)
(664 -9.00295e-13 0)
(664 -8.84855e-13 0)
(664 -8.77859e-13 0)
(664 -8.47734e-13 0)
(664 -8.25421e-13 0)
(664 -7.99624e-13 0)
(664 -7.5428e-13 0)
(664 -7.22489e-13 0)
(664 -7.09009e-13 0)
(664 -6.97367e-13 0)
(664 -6.90519e-13 0)
(664 -6.65223e-13 0)
(664 -6.32285e-13 0)
(664 -6.05872e-13 0)
(664 -6.05216e-13 0)
(664 -6.09055e-13 0)
(664 -6.2613e-13 0)
(664 -6.37116e-13 0)
(664 -6.25808e-13 0)
(664 -5.98265e-13 0)
(664 -5.71007e-13 0)
(664 -5.63895e-13 0)
(664 -5.39525e-13 0)
(664 -5.20594e-13 0)
(664 -5.12173e-13 0)
(664 -5.07733e-13 0)
(664 -5.24868e-13 0)
(664 -5.35787e-13 0)
(664 -5.3483e-13 0)
(664 -5.48159e-13 0)
(664 -5.52436e-13 0)
(664 -5.56185e-13 0)
(664 -6.00034e-13 0)
(664 -6.40596e-13 0)
(664 -6.60971e-13 0)
(664 -6.81295e-13 0)
(664 -6.95882e-13 0)
(664 -7.12332e-13 0)
(664 -7.28746e-13 0)
(664 -7.43291e-13 0)
(664 -7.50005e-13 0)
(664 -7.59456e-13 0)
(664 -7.82765e-13 0)
(664 -8.03111e-13 0)
(664 -8.2541e-13 0)
(664 -8.40172e-13 0)
(664 -8.5061e-13 0)
(664 -8.56351e-13 0)
(664 -8.47524e-13 0)
(664 -8.42182e-13 0)
(664 -8.35493e-13 0)
(664 -8.30947e-13 0)
(664 -8.23431e-13 0)
(664 -8.51429e-13 0)
(664 -9.04941e-13 0)
(664 -9.41049e-13 0)
(664 -9.60466e-13 0)
(664 -9.62094e-13 0)
(664 -9.39125e-13 0)
(664 -9.13245e-13 0)
(664 -8.94926e-13 0)
(664 -8.78756e-13 0)
(664 -8.73351e-13 0)
(664 -8.72494e-13 0)
(664 -8.82886e-13 0)
(664 -8.88177e-13 0)
(664 -8.95656e-13 0)
(664 -8.87317e-13 0)
(664 -9.05833e-13 0)
(664 -9.20826e-13 0)
(664 -9.08281e-13 0)
(664 -9.04522e-13 0)
(664 -8.84844e-13 0)
(664 -8.57825e-13 0)
(664 -8.35093e-13 0)
(664 -8.27484e-13 0)
(664 -8.08984e-13 0)
(664 -8.13694e-13 0)
(664 -8.33461e-13 0)
(664 -8.47372e-13 0)
(664 -8.76774e-13 0)
(664 -8.85202e-13 0)
(664 -8.97354e-13 0)
(664 -8.8407e-13 0)
(664 -8.66242e-13 0)
(664 -8.42485e-13 0)
(664 -8.33324e-13 0)
(664 -8.52344e-13 0)
(664 -8.73579e-13 0)
(664 -9.03058e-13 0)
(664 -9.17506e-13 0)
(664 -8.93071e-13 0)
(664 -8.84072e-13 0)
(664 -8.70947e-13 0)
(664 -8.52276e-13 0)
(664 -8.42122e-13 0)
(664 -8.2149e-13 0)
(664 -7.87152e-13 0)
(664 -7.68335e-13 0)
(664 -7.47678e-13 0)
(664 -7.35026e-13 0)
(664 -7.39625e-13 0)
(664 -7.43601e-13 0)
(664 -7.29163e-13 0)
(664 -6.84525e-13 0)
(664 -5.98322e-13 0)
(664 -4.46657e-13 0)
(664 -2.19965e-13 0)
(664 1.3883e-13 0)
(664 7.57576e-13 0)
(664 1.79069e-12 0)
(664 3.49152e-12 0)
(664 6.31514e-12 0)
(664 1.10109e-11 0)
(664 1.88875e-11 0)
(664 3.21262e-11 0)
(664 5.44062e-11 0)
(664 9.18288e-11 0)
(664 1.54688e-10 0)
(664 2.60398e-10 0)
(664 4.38217e-10 0)
(664 7.37577e-10 0)
(664 1.24184e-09 0)
(664 2.09194e-09 0)
(664 3.52602e-09 0)
(664 5.94738e-09 0)
(664 1.00387e-08 0)
(664 1.69582e-08 0)
(664 2.86702e-08 0)
(664 4.85141e-08 0)
(664 8.2165e-08 0)
(664 1.39292e-07 0)
(664 2.36365e-07 0)
(664 4.01509e-07 0)
(664 6.82752e-07 0)
(664 1.16232e-06 0)
(664 1.98097e-06 0)
(664 3.38038e-06 0)
(664 5.77546e-06 0)
(664 9.88055e-06 0)
(664 1.69258e-05 0)
(663.999 2.90358e-05 0)
(663.999 4.98807e-05 0)
(663.998 8.58199e-05 0)
(663.997 0.000147876 0)
(663.995 0.000255214 0)
(663.992 0.000441168 0)
(663.986 0.000763902 0)
(663.977 0.00132494 0)
(663.962 0.00230211 0)
(663.936 0.00400692 0)
(663.894 0.00698701 0)
(663.824 0.0122054 0)
(663.706 0.0213616 0)
(663.51 0.0374548 0)
(663.182 0.0658011 0)
(662.632 0.115806 0)
(661.712 0.204234 0)
(660.168 0.360803 0)
(657.581 0.639036 0)
(653.241 1.13304 0)
(645.995 2.01463 0)
(633.828 3.57892 0)
(613.698 6.40072 0)
(581.847 11.3705 0)
(664 4.6425e-16 0)
(664 -4.42311e-16 0)
(664 -1.1492e-14 0)
(664 -5.10481e-14 0)
(664 -8.26172e-14 0)
(664 -1.27043e-13 0)
(664 -1.97205e-13 0)
(664 -2.60334e-13 0)
(664 -3.21026e-13 0)
(664 -3.57491e-13 0)
(664 -3.69789e-13 0)
(664 -3.73882e-13 0)
(664 -3.80999e-13 0)
(664 -3.90738e-13 0)
(664 -4.00476e-13 0)
(664 -4.21797e-13 0)
(664 -4.26133e-13 0)
(664 -4.13829e-13 0)
(664 -3.99008e-13 0)
(664 -3.89556e-13 0)
(664 -3.79799e-13 0)
(664 -3.83283e-13 0)
(664 -3.8865e-13 0)
(664 -3.89366e-13 0)
(664 -3.84855e-13 0)
(664 -3.79634e-13 0)
(664 -3.77168e-13 0)
(664 -3.99954e-13 0)
(664 -4.13884e-13 0)
(664 -4.34599e-13 0)
(664 -4.33997e-13 0)
(664 -4.17883e-13 0)
(664 -4.10674e-13 0)
(664 -3.90312e-13 0)
(664 -3.64085e-13 0)
(664 -3.28823e-13 0)
(664 -3.03203e-13 0)
(664 -3.0022e-13 0)
(664 -3.19851e-13 0)
(664 -3.5175e-13 0)
(664 -3.76307e-13 0)
(664 -4.03886e-13 0)
(664 -4.36211e-13 0)
(664 -4.8707e-13 0)
(664 -5.41815e-13 0)
(664 -5.84641e-13 0)
(664 -6.30879e-13 0)
(664 -6.52056e-13 0)
(664 -6.58143e-13 0)
(664 -6.48742e-13 0)
(664 -6.41569e-13 0)
(664 -6.14846e-13 0)
(664 -5.74442e-13 0)
(664 -5.53038e-13 0)
(664 -5.09489e-13 0)
(664 -4.87702e-13 0)
(664 -4.8563e-13 0)
(664 -4.92142e-13 0)
(664 -5.04391e-13 0)
(664 -5.11656e-13 0)
(664 -5.06954e-13 0)
(664 -5.1208e-13 0)
(664 -5.39874e-13 0)
(664 -5.68037e-13 0)
(664 -6.32572e-13 0)
(664 -6.9077e-13 0)
(664 -7.42027e-13 0)
(664 -7.96947e-13 0)
(664 -8.43966e-13 0)
(664 -8.6682e-13 0)
(664 -8.8684e-13 0)
(664 -8.94312e-13 0)
(664 -8.80973e-13 0)
(664 -8.68488e-13 0)
(664 -8.63484e-13 0)
(664 -8.56253e-13 0)
(664 -8.43908e-13 0)
(664 -8.48203e-13 0)
(664 -8.81678e-13 0)
(664 -9.21779e-13 0)
(664 -9.67109e-13 0)
(664 -9.90857e-13 0)
(664 -1.00136e-12 0)
(664 -9.98238e-13 0)
(664 -9.70216e-13 0)
(664 -9.37532e-13 0)
(664 -8.9551e-13 0)
(664 -8.5035e-13 0)
(664 -8.13112e-13 0)
(664 -7.96232e-13 0)
(664 -7.91608e-13 0)
(664 -7.82167e-13 0)
(664 -7.65684e-13 0)
(664 -7.48283e-13 0)
(664 -7.12463e-13 0)
(664 -6.84563e-13 0)
(664 -6.58365e-13 0)
(664 -6.24079e-13 0)
(664 -6.01609e-13 0)
(664 -5.77053e-13 0)
(664 -5.6899e-13 0)
(664 -5.72957e-13 0)
(664 -5.56774e-13 0)
(664 -5.33411e-13 0)
(664 -5.09306e-13 0)
(664 -5.03746e-13 0)
(664 -5.12424e-13 0)
(664 -5.31678e-13 0)
(664 -5.76614e-13 0)
(664 -6.18172e-13 0)
(664 -6.63555e-13 0)
(664 -7.34312e-13 0)
(664 -7.99207e-13 0)
(664 -8.7046e-13 0)
(664 -9.35612e-13 0)
(664 -9.66135e-13 0)
(664 -9.91772e-13 0)
(664 -1.01318e-12 0)
(664 -1.02697e-12 0)
(664 -1.03369e-12 0)
(664 -1.03431e-12 0)
(664 -1.0312e-12 0)
(664 -1.00664e-12 0)
(664 -1.00049e-12 0)
(664 -9.78913e-13 0)
(664 -9.75933e-13 0)
(664 -9.70079e-13 0)
(664 -9.58455e-13 0)
(664 -9.49099e-13 0)
(664 -9.45151e-13 0)
(664 -9.42961e-13 0)
(664 -9.52109e-13 0)
(664 -9.13882e-13 0)
(664 -8.93796e-13 0)
(664 -8.91198e-13 0)
(664 -8.79161e-13 0)
(664 -8.90423e-13 0)
(664 -8.98072e-13 0)
(664 -8.9293e-13 0)
(664 -8.7222e-13 0)
(664 -8.59885e-13 0)
(664 -8.47747e-13 0)
(664 -8.42729e-13 0)
(664 -8.49046e-13 0)
(664 -8.36175e-13 0)
(664 -8.31956e-13 0)
(664 -8.38164e-13 0)
(664 -8.22232e-13 0)
(664 -8.00122e-13 0)
(664 -7.68919e-13 0)
(664 -7.3003e-13 0)
(664 -6.90243e-13 0)
(664 -6.66855e-13 0)
(664 -6.38201e-13 0)
(664 -6.24581e-13 0)
(664 -6.0613e-13 0)
(664 -6.17423e-13 0)
(664 -6.33991e-13 0)
(664 -6.68731e-13 0)
(664 -7.14301e-13 0)
(664 -7.52304e-13 0)
(664 -7.9983e-13 0)
(664 -8.2324e-13 0)
(664 -8.28547e-13 0)
(664 -8.41738e-13 0)
(664 -8.66567e-13 0)
(664 -8.84818e-13 0)
(664 -9.18327e-13 0)
(664 -9.67237e-13 0)
(664 -1.00884e-12 0)
(664 -1.0527e-12 0)
(664 -1.08261e-12 0)
(664 -1.08161e-12 0)
(664 -1.08769e-12 0)
(664 -1.08587e-12 0)
(664 -1.05872e-12 0)
(664 -1.05577e-12 0)
(664 -1.03473e-12 0)
(664 -1.00409e-12 0)
(664 -9.77335e-13 0)
(664 -9.51176e-13 0)
(664 -9.19038e-13 0)
(664 -8.84126e-13 0)
(664 -8.368e-13 0)
(664 -7.92424e-13 0)
(664 -7.51087e-13 0)
(664 -7.23027e-13 0)
(664 -7.06046e-13 0)
(664 -7.30832e-13 0)
(664 -7.81644e-13 0)
(664 -8.47701e-13 0)
(664 -9.03897e-13 0)
(664 -9.20493e-13 0)
(664 -9.23369e-13 0)
(664 -9.13177e-13 0)
(664 -8.87971e-13 0)
(664 -8.47745e-13 0)
(664 -8.16964e-13 0)
(664 -7.95956e-13 0)
(664 -7.92846e-13 0)
(664 -8.13755e-13 0)
(664 -8.22109e-13 0)
(664 -8.29364e-13 0)
(664 -8.4071e-13 0)
(664 -8.64384e-13 0)
(664 -8.80778e-13 0)
(664 -9.0297e-13 0)
(664 -9.00775e-13 0)
(664 -8.76988e-13 0)
(664 -8.49766e-13 0)
(664 -7.98376e-13 0)
(664 -7.46056e-13 0)
(664 -7.01858e-13 0)
(664 -6.55908e-13 0)
(664 -6.18227e-13 0)
(664 -5.95392e-13 0)
(664 -5.64926e-13 0)
(664 -5.40938e-13 0)
(664 -5.24665e-13 0)
(664 -5.05377e-13 0)
(664 -4.58438e-13 0)
(664 -4.17564e-13 0)
(664 -3.7672e-13 0)
(664 -3.33338e-13 0)
(664 -2.80081e-13 0)
(664 -2.16555e-13 0)
(664 -1.70366e-13 0)
(664 -1.51398e-13 0)
(664 -1.44716e-13 0)
(664 -1.53669e-13 0)
(664 -1.75735e-13 0)
(664 -1.99596e-13 0)
(664 -2.0118e-13 0)
(664 -1.99717e-13 0)
(664 -1.91052e-13 0)
(664 -1.93289e-13 0)
(664 -2.15499e-13 0)
(664 -2.12205e-13 0)
(664 -1.75996e-13 0)
(664 -9.7195e-14 0)
(664 7.08145e-14 0)
(664 3.83375e-13 0)
(664 9.28077e-13 0)
(664 1.90573e-12 0)
(664 3.58042e-12 0)
(664 6.37241e-12 0)
(664 1.10237e-11 0)
(664 1.87953e-11 0)
(664 3.17973e-11 0)
(664 5.35893e-11 0)
(664 9.01099e-11 0)
(664 1.51278e-10 0)
(664 2.53783e-10 0)
(664 4.25566e-10 0)
(664 7.13615e-10 0)
(664 1.19674e-09 0)
(664 2.0075e-09 0)
(664 3.36859e-09 0)
(664 5.65492e-09 0)
(664 9.49706e-09 0)
(664 1.59579e-08 0)
(664 2.68274e-08 0)
(664 4.51263e-08 0)
(664 7.59478e-08 0)
(664 1.27899e-07 0)
(664 2.15514e-07 0)
(664 3.63384e-07 0)
(664 6.13096e-07 0)
(664 1.03513e-06 0)
(664 1.74883e-06 0)
(664 2.95683e-06 0)
(664 5.00278e-06 0)
(664 8.47108e-06 0)
(664 1.43547e-05 0)
(664 2.43452e-05 0)
(664 4.13219e-05 0)
(663.999 7.01993e-05 0)
(663.999 0.000119359 0)
(663.998 0.000203133 0)
(663.997 0.000346019 0)
(663.996 0.000589992 0)
(663.993 0.00100694 0)
(663.988 0.00172033 0)
(663.981 0.00294207 0)
(663.969 0.00503691 0)
(663.948 0.00863233 0)
(663.915 0.0148109 0)
(663.86 0.0254393 0)
(663.77 0.0437459 0)
(663.622 0.0753093 0)
(663.379 0.129803 0)
(662.981 0.223969 0)
(662.329 0.386922 0)
(661.264 0.669081 0)
(659.526 1.1586 0)
(656.705 2.00689 0)
(652.147 3.47911 0)
(644.839 6.01827 0)
(633.18 10.4232 0)
(615.95 17.8882 0)
(664 -6.11838e-15 0)
(664 -1.70008e-14 0)
(664 -3.18094e-14 0)
(664 -2.53107e-14 0)
(664 -2.7136e-14 0)
(664 -2.40496e-14 0)
(664 -5.64859e-14 0)
(664 -6.12811e-14 0)
(664 -5.32837e-14 0)
(664 -6.1039e-14 0)
(664 -4.58638e-14 0)
(664 -3.51569e-14 0)
(664 -2.01486e-14 0)
(664 1.17837e-14 0)
(664 2.85827e-14 0)
(664 5.49218e-14 0)
(664 6.29042e-14 0)
(664 3.37187e-14 0)
(664 -1.87015e-14 0)
(664 -8.47067e-14 0)
(664 -1.68264e-13 0)
(664 -2.65067e-13 0)
(664 -3.56397e-13 0)
(664 -4.47073e-13 0)
(664 -5.23706e-13 0)
(664 -5.83669e-13 0)
(664 -6.25393e-13 0)
(664 -6.46558e-13 0)
(664 -6.54335e-13 0)
(664 -6.31775e-13 0)
(664 -6.09183e-13 0)
(664 -6.06323e-13 0)
(664 -5.89285e-13 0)
(664 -5.87156e-13 0)
(664 -5.83213e-13 0)
(664 -5.82623e-13 0)
(664 -5.79834e-13 0)
(664 -5.72465e-13 0)
(664 -5.58186e-13 0)
(664 -5.4505e-13 0)
(664 -5.21761e-13 0)
(664 -4.88069e-13 0)
(664 -4.79154e-13 0)
(664 -4.65364e-13 0)
(664 -4.69046e-13 0)
(664 -4.89525e-13 0)
(664 -4.7582e-13 0)
(664 -4.81608e-13 0)
(664 -4.86724e-13 0)
(664 -5.19729e-13 0)
(664 -5.498e-13 0)
(664 -5.75825e-13 0)
(664 -6.17208e-13 0)
(664 -6.47542e-13 0)
(664 -6.8108e-13 0)
(664 -7.01896e-13 0)
(664 -7.19941e-13 0)
(664 -7.42507e-13 0)
(664 -7.43067e-13 0)
(664 -7.43152e-13 0)
(664 -7.30841e-13 0)
(664 -7.00853e-13 0)
(664 -6.80721e-13 0)
(664 -6.75567e-13 0)
(664 -6.66247e-13 0)
(664 -6.66378e-13 0)
(664 -6.57498e-13 0)
(664 -6.41979e-13 0)
(664 -6.28133e-13 0)
(664 -6.20288e-13 0)
(664 -6.18976e-13 0)
(664 -6.20193e-13 0)
(664 -6.24675e-13 0)
(664 -6.22273e-13 0)
(664 -6.09429e-13 0)
(664 -5.90645e-13 0)
(664 -5.78353e-13 0)
(664 -5.63288e-13 0)
(664 -5.67702e-13 0)
(664 -5.60011e-13 0)
(664 -5.44834e-13 0)
(664 -5.31747e-13 0)
(664 -4.97533e-13 0)
(664 -4.85198e-13 0)
(664 -4.648e-13 0)
(664 -4.32575e-13 0)
(664 -3.93803e-13 0)
(664 -3.66943e-13 0)
(664 -3.48691e-13 0)
(664 -3.64148e-13 0)
(664 -3.97637e-13 0)
(664 -4.32529e-13 0)
(664 -4.84288e-13 0)
(664 -5.35737e-13 0)
(664 -5.84988e-13 0)
(664 -6.10349e-13 0)
(664 -6.17034e-13 0)
(664 -5.94785e-13 0)
(664 -5.66996e-13 0)
(664 -5.29855e-13 0)
(664 -4.82235e-13 0)
(664 -4.46511e-13 0)
(664 -4.24812e-13 0)
(664 -4.1901e-13 0)
(664 -4.32106e-13 0)
(664 -4.90332e-13 0)
(664 -5.50371e-13 0)
(664 -6.19302e-13 0)
(664 -6.74209e-13 0)
(664 -7.19398e-13 0)
(664 -7.57554e-13 0)
(664 -7.74682e-13 0)
(664 -8.02389e-13 0)
(664 -8.39186e-13 0)
(664 -8.4111e-13 0)
(664 -8.37048e-13 0)
(664 -8.30228e-13 0)
(664 -7.86371e-13 0)
(664 -7.45638e-13 0)
(664 -7.23557e-13 0)
(664 -7.03893e-13 0)
(664 -7.19845e-13 0)
(664 -7.62145e-13 0)
(664 -8.00596e-13 0)
(664 -8.58539e-13 0)
(664 -9.22277e-13 0)
(664 -9.86839e-13 0)
(664 -1.04077e-12 0)
(664 -1.06349e-12 0)
(664 -1.07661e-12 0)
(664 -1.08874e-12 0)
(664 -1.10664e-12 0)
(664 -1.12204e-12 0)
(664 -1.11272e-12 0)
(664 -1.09064e-12 0)
(664 -1.08403e-12 0)
(664 -1.08419e-12 0)
(664 -1.07769e-12 0)
(664 -1.07259e-12 0)
(664 -1.06931e-12 0)
(664 -1.05677e-12 0)
(664 -1.03994e-12 0)
(664 -1.02996e-12 0)
(664 -1.02652e-12 0)
(664 -1.01554e-12 0)
(664 -1.00392e-12 0)
(664 -1.00021e-12 0)
(664 -9.87713e-13 0)
(664 -9.50324e-13 0)
(664 -9.101e-13 0)
(664 -8.75087e-13 0)
(664 -8.29809e-13 0)
(664 -7.91705e-13 0)
(664 -7.7288e-13 0)
(664 -7.6586e-13 0)
(664 -7.75436e-13 0)
(664 -7.87198e-13 0)
(664 -8.14066e-13 0)
(664 -8.48119e-13 0)
(664 -8.72966e-13 0)
(664 -8.94641e-13 0)
(664 -8.98048e-13 0)
(664 -8.79586e-13 0)
(664 -8.64202e-13 0)
(664 -8.53494e-13 0)
(664 -8.52698e-13 0)
(664 -8.5745e-13 0)
(664 -8.58619e-13 0)
(664 -8.68015e-13 0)
(664 -8.84469e-13 0)
(664 -9.06821e-13 0)
(664 -9.14441e-13 0)
(664 -8.97699e-13 0)
(664 -8.59897e-13 0)
(664 -8.18681e-13 0)
(664 -7.70932e-13 0)
(664 -7.34681e-13 0)
(664 -6.96312e-13 0)
(664 -6.4932e-13 0)
(664 -6.26372e-13 0)
(664 -6.06009e-13 0)
(664 -5.97187e-13 0)
(664 -5.80671e-13 0)
(664 -5.64666e-13 0)
(664 -5.44579e-13 0)
(664 -5.30351e-13 0)
(664 -5.24371e-13 0)
(664 -5.28993e-13 0)
(664 -5.33024e-13 0)
(664 -5.40968e-13 0)
(664 -5.57293e-13 0)
(664 -5.81632e-13 0)
(664 -6.0915e-13 0)
(664 -6.57526e-13 0)
(664 -7.13054e-13 0)
(664 -7.49875e-13 0)
(664 -7.71668e-13 0)
(664 -8.0353e-13 0)
(664 -8.30096e-13 0)
(664 -8.62682e-13 0)
(664 -8.91488e-13 0)
(664 -9.19036e-13 0)
(664 -9.39218e-13 0)
(664 -9.44483e-13 0)
(664 -9.45964e-13 0)
(664 -9.50229e-13 0)
(664 -9.35066e-13 0)
(664 -9.04545e-13 0)
(664 -8.604e-13 0)
(664 -8.30506e-13 0)
(664 -8.00646e-13 0)
(664 -7.54845e-13 0)
(664 -7.19629e-13 0)
(664 -6.63018e-13 0)
(664 -6.12569e-13 0)
(664 -5.62073e-13 0)
(664 -5.27113e-13 0)
(664 -4.93027e-13 0)
(664 -4.94328e-13 0)
(664 -4.9927e-13 0)
(664 -4.98658e-13 0)
(664 -4.94892e-13 0)
(664 -4.61509e-13 0)
(664 -4.25334e-13 0)
(664 -3.92756e-13 0)
(664 -3.77846e-13 0)
(664 -3.88759e-13 0)
(664 -4.12001e-13 0)
(664 -4.36301e-13 0)
(664 -4.67718e-13 0)
(664 -4.74153e-13 0)
(664 -4.68126e-13 0)
(664 -4.50682e-13 0)
(664 -4.23012e-13 0)
(664 -3.74542e-13 0)
(664 -3.15493e-13 0)
(664 -2.36004e-13 0)
(664 -1.54949e-13 0)
(664 -3.77191e-14 0)
(664 1.48839e-13 0)
(664 4.33369e-13 0)
(664 9.08282e-13 0)
(664 1.73819e-12 0)
(664 3.15049e-12 0)
(664 5.53494e-12 0)
(664 9.53858e-12 0)
(664 1.62195e-11 0)
(664 2.74169e-11 0)
(664 4.61259e-11 0)
(664 7.73211e-11 0)
(664 1.29385e-10 0)
(664 2.16185e-10 0)
(664 3.60995e-10 0)
(664 6.02714e-10 0)
(664 1.00624e-09 0)
(664 1.68003e-09 0)
(664 2.80544e-09 0)
(664 4.68538e-09 0)
(664 7.82688e-09 0)
(664 1.30775e-08 0)
(664 2.18564e-08 0)
(664 3.65372e-08 0)
(664 6.1097e-08 0)
(664 1.0219e-07 0)
(664 1.70973e-07 0)
(664 2.86122e-07 0)
(664 4.78967e-07 0)
(664 8.0198e-07 0)
(664 1.34323e-06 0)
(664 2.25028e-06 0)
(664 3.77091e-06 0)
(664 6.32052e-06 0)
(664 1.05968e-05 0)
(664 1.777e-05 0)
(664 2.98063e-05 0)
(664 5.00042e-05 0)
(664 8.39074e-05 0)
(663.999 0.000140818 0)
(663.999 0.000236371 0)
(663.998 0.000396802 0)
(663.997 0.00066621 0)
(663.995 0.00111858 0)
(663.991 0.00187825 0)
(663.985 0.00315372 0)
(663.976 0.00529526 0)
(663.961 0.00888983 0)
(663.937 0.0149226 0)
(663.897 0.0250428 0)
(663.832 0.0420146 0)
(663.727 0.0704582 0)
(663.556 0.118102 0)
(663.28 0.197826 0)
(662.834 0.331107 0)
(662.115 0.553599 0)
(660.957 0.924427 0)
(659.105 1.54094 0)
(656.153 2.56183 0)
(651.486 4.24325 0)
(644.116 6.99239 0)
(633.258 11.4468 0)
(664 -4.46575e-16 0)
(664 6.4217e-15 0)
(664 3.17365e-14 0)
(664 7.1107e-14 0)
(664 1.17841e-13 0)
(664 1.6443e-13 0)
(664 2.17642e-13 0)
(664 2.68643e-13 0)
(664 2.89074e-13 0)
(664 3.12176e-13 0)
(664 3.04223e-13 0)
(664 2.92983e-13 0)
(664 2.9067e-13 0)
(664 2.89362e-13 0)
(664 2.73413e-13 0)
(664 2.49282e-13 0)
(664 1.84096e-13 0)
(664 9.76597e-14 0)
(664 -7.8635e-15 0)
(664 -1.01969e-13 0)
(664 -1.90518e-13 0)
(664 -2.58482e-13 0)
(664 -3.15038e-13 0)
(664 -3.64539e-13 0)
(664 -3.96392e-13 0)
(664 -4.27807e-13 0)
(664 -4.28004e-13 0)
(664 -4.27073e-13 0)
(664 -4.19648e-13 0)
(664 -4.21308e-13 0)
(664 -4.32453e-13 0)
(664 -4.45378e-13 0)
(664 -4.65708e-13 0)
(664 -4.68952e-13 0)
(664 -4.76035e-13 0)
(664 -4.8963e-13 0)
(664 -4.94139e-13 0)
(664 -4.91502e-13 0)
(664 -4.79746e-13 0)
(664 -4.63943e-13 0)
(664 -4.60252e-13 0)
(664 -4.57744e-13 0)
(664 -4.65835e-13 0)
(664 -4.89564e-13 0)
(664 -5.1124e-13 0)
(664 -5.33244e-13 0)
(664 -5.52194e-13 0)
(664 -5.67229e-13 0)
(664 -6.0068e-13 0)
(664 -6.32069e-13 0)
(664 -6.5911e-13 0)
(664 -6.91275e-13 0)
(664 -7.26322e-13 0)
(664 -7.6578e-13 0)
(664 -8.03155e-13 0)
(664 -8.24536e-13 0)
(664 -8.28247e-13 0)
(664 -8.10182e-13 0)
(664 -7.98094e-13 0)
(664 -7.77874e-13 0)
(664 -7.78682e-13 0)
(664 -7.83123e-13 0)
(664 -7.84312e-13 0)
(664 -7.92698e-13 0)
(664 -7.86923e-13 0)
(664 -7.77488e-13 0)
(664 -7.50245e-13 0)
(664 -7.15934e-13 0)
(664 -6.93129e-13 0)
(664 -6.5773e-13 0)
(664 -6.10887e-13 0)
(664 -5.65697e-13 0)
(664 -5.63309e-13 0)
(664 -5.87772e-13 0)
(664 -6.18422e-13 0)
(664 -6.7192e-13 0)
(664 -7.16299e-13 0)
(664 -7.52156e-13 0)
(664 -7.6104e-13 0)
(664 -7.53497e-13 0)
(664 -7.22995e-13 0)
(664 -6.8817e-13 0)
(664 -6.58421e-13 0)
(664 -6.10441e-13 0)
(664 -5.75384e-13 0)
(664 -5.60811e-13 0)
(664 -5.52859e-13 0)
(664 -5.68651e-13 0)
(664 -5.9695e-13 0)
(664 -6.15611e-13 0)
(664 -6.44429e-13 0)
(664 -6.82723e-13 0)
(664 -7.37042e-13 0)
(664 -7.93053e-13 0)
(664 -8.3428e-13 0)
(664 -8.54421e-13 0)
(664 -8.57132e-13 0)
(664 -8.58832e-13 0)
(664 -8.59078e-13 0)
(664 -8.6349e-13 0)
(664 -8.60435e-13 0)
(664 -8.60404e-13 0)
(664 -8.73082e-13 0)
(664 -8.81266e-13 0)
(664 -8.98721e-13 0)
(664 -9.24794e-13 0)
(664 -9.53247e-13 0)
(664 -9.56249e-13 0)
(664 -9.81984e-13 0)
(664 -1.00138e-12 0)
(664 -1.00186e-12 0)
(664 -1.00214e-12 0)
(664 -9.90106e-13 0)
(664 -9.80159e-13 0)
(664 -9.68103e-13 0)
(664 -9.50243e-13 0)
(664 -9.31565e-13 0)
(664 -9.20969e-13 0)
(664 -9.02906e-13 0)
(664 -8.97245e-13 0)
(664 -9.07845e-13 0)
(664 -9.17639e-13 0)
(664 -9.35985e-13 0)
(664 -9.45075e-13 0)
(664 -9.55899e-13 0)
(664 -9.60219e-13 0)
(664 -9.72279e-13 0)
(664 -9.83516e-13 0)
(664 -9.90859e-13 0)
(664 -9.94326e-13 0)
(664 -9.85885e-13 0)
(664 -9.75469e-13 0)
(664 -1.0049e-12 0)
(664 -1.04524e-12 0)
(664 -1.06821e-12 0)
(664 -1.10957e-12 0)
(664 -1.13829e-12 0)
(664 -1.16666e-12 0)
(664 -1.21751e-12 0)
(664 -1.26057e-12 0)
(664 -1.29942e-12 0)
(664 -1.31252e-12 0)
(664 -1.31309e-12 0)
(664 -1.30917e-12 0)
(664 -1.29597e-12 0)
(664 -1.26713e-12 0)
(664 -1.20121e-12 0)
(664 -1.12422e-12 0)
(664 -1.07143e-12 0)
(664 -1.03227e-12 0)
(664 -1.00073e-12 0)
(664 -9.99314e-13 0)
(664 -9.90759e-13 0)
(664 -9.77329e-13 0)
(664 -9.7848e-13 0)
(664 -9.83587e-13 0)
(664 -1.00983e-12 0)
(664 -1.04139e-12 0)
(664 -1.06919e-12 0)
(664 -1.07883e-12 0)
(664 -1.06351e-12 0)
(664 -1.0385e-12 0)
(664 -1.0102e-12 0)
(664 -9.76244e-13 0)
(664 -9.46824e-13 0)
(664 -9.37338e-13 0)
(664 -9.23699e-13 0)
(664 -9.10909e-13 0)
(664 -8.88224e-13 0)
(664 -8.54985e-13 0)
(664 -8.37947e-13 0)
(664 -8.15638e-13 0)
(664 -8.0295e-13 0)
(664 -8.05494e-13 0)
(664 -7.88249e-13 0)
(664 -7.91903e-13 0)
(664 -8.05658e-13 0)
(664 -7.96618e-13 0)
(664 -7.85486e-13 0)
(664 -7.69969e-13 0)
(664 -7.64023e-13 0)
(664 -7.53387e-13 0)
(664 -7.50313e-13 0)
(664 -7.34621e-13 0)
(664 -7.24367e-13 0)
(664 -7.17514e-13 0)
(664 -6.89283e-13 0)
(664 -6.79267e-13 0)
(664 -6.52096e-13 0)
(664 -5.9288e-13 0)
(664 -5.25438e-13 0)
(664 -4.87204e-13 0)
(664 -4.80025e-13 0)
(664 -4.65877e-13 0)
(664 -4.71225e-13 0)
(664 -4.82835e-13 0)
(664 -4.9957e-13 0)
(664 -5.20378e-13 0)
(664 -5.62035e-13 0)
(664 -5.98642e-13 0)
(664 -6.42555e-13 0)
(664 -6.7772e-13 0)
(664 -7.03442e-13 0)
(664 -7.08022e-13 0)
(664 -6.86251e-13 0)
(664 -6.54e-13 0)
(664 -6.1855e-13 0)
(664 -5.8594e-13 0)
(664 -5.63611e-13 0)
(664 -5.38061e-13 0)
(664 -4.98214e-13 0)
(664 -4.73544e-13 0)
(664 -4.49512e-13 0)
(664 -4.22895e-13 0)
(664 -4.09295e-13 0)
(664 -4.10252e-13 0)
(664 -4.19927e-13 0)
(664 -4.35131e-13 0)
(664 -4.3187e-13 0)
(664 -4.02661e-13 0)
(664 -3.88741e-13 0)
(664 -3.94514e-13 0)
(664 -4.13632e-13 0)
(664 -4.26138e-13 0)
(664 -4.57466e-13 0)
(664 -4.86478e-13 0)
(664 -4.94883e-13 0)
(664 -5.01137e-13 0)
(664 -5.08109e-13 0)
(664 -4.89425e-13 0)
(664 -4.59147e-13 0)
(664 -4.00588e-13 0)
(664 -3.46847e-13 0)
(664 -3.13757e-13 0)
(664 -2.7536e-13 0)
(664 -2.07148e-13 0)
(664 -1.34414e-13 0)
(664 -3.14708e-14 0)
(664 8.67847e-14 0)
(664 2.84943e-13 0)
(664 6.49176e-13 0)
(664 1.25838e-12 0)
(664 2.26725e-12 0)
(664 3.9226e-12 0)
(664 6.6701e-12 0)
(664 1.12494e-11 0)
(664 1.89266e-11 0)
(664 3.17083e-11 0)
(664 5.29478e-11 0)
(664 8.82578e-11 0)
(664 1.46907e-10 0)
(664 2.44329e-10 0)
(664 4.06154e-10 0)
(664 6.74934e-10 0)
(664 1.12147e-09 0)
(664 1.86332e-09 0)
(664 3.09599e-09 0)
(664 5.14415e-09 0)
(664 8.54793e-09 0)
(664 1.42043e-08 0)
(664 2.36058e-08 0)
(664 3.92313e-08 0)
(664 6.52049e-08 0)
(664 1.08377e-07 0)
(664 1.80146e-07 0)
(664 2.99444e-07 0)
(664 4.97767e-07 0)
(664 8.27428e-07 0)
(664 1.37545e-06 0)
(664 2.28633e-06 0)
(664 3.80042e-06 0)
(664 6.3167e-06 0)
(664 1.04986e-05 0)
(664 1.74469e-05 0)
(664 2.89915e-05 0)
(664 4.8167e-05 0)
(664 8.00143e-05 0)
(663.999 0.000132889 0)
(663.999 0.000220658 0)
(663.998 0.000366288 0)
(663.998 0.00060786 0)
(663.996 0.00100837 0)
(663.994 0.00167213 0)
(663.99 0.00277148 0)
(663.983 0.00459132 0)
(663.973 0.0076015 0)
(663.956 0.0125772 0)
(663.928 0.0207938 0)
(663.884 0.03435 0)
(663.814 0.0566888 0)
(663.7 0.093456 0)
(663.518 0.153876 0)
(663.226 0.253 0)
(662.759 0.415289 0)
(662.015 0.680347 0)
(660.832 1.11196 0)
(658.958 1.81142 0)
(656.005 2.93921 0)
(651.334 4.74246 0)
(644.386 7.60692 0)
(664 1.47784e-14 0)
(664 1.22449e-14 0)
(664 2.0977e-14 0)
(664 3.06979e-14 0)
(664 5.36051e-14 0)
(664 1.06591e-13 0)
(664 1.77046e-13 0)
(664 2.11949e-13 0)
(664 2.25382e-13 0)
(664 2.3623e-13 0)
(664 2.48982e-13 0)
(664 2.43356e-13 0)
(664 2.25224e-13 0)
(664 1.60223e-13 0)
(664 8.05378e-14 0)
(664 -1.42947e-14 0)
(664 -1.04426e-13 0)
(664 -1.81861e-13 0)
(664 -2.53628e-13 0)
(664 -3.21423e-13 0)
(664 -3.80843e-13 0)
(664 -4.3641e-13 0)
(664 -4.63558e-13 0)
(664 -4.57515e-13 0)
(664 -4.44538e-13 0)
(664 -4.00375e-13 0)
(664 -3.6083e-13 0)
(664 -3.2878e-13 0)
(664 -3.25411e-13 0)
(664 -3.60996e-13 0)
(664 -4.14137e-13 0)
(664 -4.73735e-13 0)
(664 -5.19048e-13 0)
(664 -5.66796e-13 0)
(664 -5.94827e-13 0)
(664 -6.06311e-13 0)
(664 -6.20276e-13 0)
(664 -6.17966e-13 0)
(664 -6.31121e-13 0)
(664 -6.2591e-13 0)
(664 -6.00015e-13 0)
(664 -6.08839e-13 0)
(664 -5.9981e-13 0)
(664 -5.79555e-13 0)
(664 -5.46125e-13 0)
(664 -4.94724e-13 0)
(664 -4.6388e-13 0)
(664 -4.43042e-13 0)
(664 -4.29988e-13 0)
(664 -4.08039e-13 0)
(664 -4.12421e-13 0)
(664 -4.21655e-13 0)
(664 -4.32261e-13 0)
(664 -4.64877e-13 0)
(664 -4.90281e-13 0)
(664 -5.01642e-13 0)
(664 -5.05751e-13 0)
(664 -5.20818e-13 0)
(664 -5.3131e-13 0)
(664 -5.56465e-13 0)
(664 -5.94829e-13 0)
(664 -6.09209e-13 0)
(664 -6.0789e-13 0)
(664 -5.85882e-13 0)
(664 -5.7961e-13 0)
(664 -5.70436e-13 0)
(664 -5.67032e-13 0)
(664 -5.59925e-13 0)
(664 -5.55158e-13 0)
(664 -5.41109e-13 0)
(664 -5.36804e-13 0)
(664 -5.49063e-13 0)
(664 -5.61933e-13 0)
(664 -5.67515e-13 0)
(664 -5.80078e-13 0)
(664 -6.02793e-13 0)
(664 -6.29413e-13 0)
(664 -6.25417e-13 0)
(664 -6.15463e-13 0)
(664 -6.02911e-13 0)
(664 -5.97853e-13 0)
(664 -6.22867e-13 0)
(664 -6.40269e-13 0)
(664 -6.45525e-13 0)
(664 -6.57311e-13 0)
(664 -6.85266e-13 0)
(664 -7.21305e-13 0)
(664 -7.44795e-13 0)
(664 -7.40036e-13 0)
(664 -7.21948e-13 0)
(664 -6.87305e-13 0)
(664 -6.43534e-13 0)
(664 -6.03142e-13 0)
(664 -5.51755e-13 0)
(664 -5.11977e-13 0)
(664 -5.0426e-13 0)
(664 -5.04649e-13 0)
(664 -5.22311e-13 0)
(664 -5.38058e-13 0)
(664 -5.47309e-13 0)
(664 -5.79789e-13 0)
(664 -6.25218e-13 0)
(664 -6.59701e-13 0)
(664 -7.02634e-13 0)
(664 -7.45782e-13 0)
(664 -7.55759e-13 0)
(664 -7.63209e-13 0)
(664 -7.69634e-13 0)
(664 -7.58044e-13 0)
(664 -7.64494e-13 0)
(664 -7.62951e-13 0)
(664 -7.69533e-13 0)
(664 -8.08457e-13 0)
(664 -8.40905e-13 0)
(664 -8.87961e-13 0)
(664 -9.40718e-13 0)
(664 -9.94751e-13 0)
(664 -1.06633e-12 0)
(664 -1.12793e-12 0)
(664 -1.15962e-12 0)
(664 -1.16349e-12 0)
(664 -1.15132e-12 0)
(664 -1.12681e-12 0)
(664 -1.0934e-12 0)
(664 -1.04301e-12 0)
(664 -1.02417e-12 0)
(664 -1.01234e-12 0)
(664 -9.95077e-13 0)
(664 -9.84518e-13 0)
(664 -9.50079e-13 0)
(664 -9.17702e-13 0)
(664 -8.94995e-13 0)
(664 -8.99417e-13 0)
(664 -9.19042e-13 0)
(664 -9.63349e-13 0)
(664 -9.84379e-13 0)
(664 -9.9876e-13 0)
(664 -1.02227e-12 0)
(664 -1.02436e-12 0)
(664 -1.02989e-12 0)
(664 -1.02967e-12 0)
(664 -1.02348e-12 0)
(664 -1.01354e-12 0)
(664 -9.70953e-13 0)
(664 -9.34458e-13 0)
(664 -9.11044e-13 0)
(664 -9.07299e-13 0)
(664 -9.32304e-13 0)
(664 -9.55096e-13 0)
(664 -9.74403e-13 0)
(664 -9.8396e-13 0)
(664 -9.84776e-13 0)
(664 -9.87204e-13 0)
(664 -9.87421e-13 0)
(664 -9.95464e-13 0)
(664 -1.00656e-12 0)
(664 -1.00042e-12 0)
(664 -1.00484e-12 0)
(664 -1.00072e-12 0)
(664 -1.00732e-12 0)
(664 -1.01783e-12 0)
(664 -9.93927e-13 0)
(664 -9.59595e-13 0)
(664 -9.24423e-13 0)
(664 -9.13598e-13 0)
(664 -8.90639e-13 0)
(664 -8.72891e-13 0)
(664 -8.32681e-13 0)
(664 -7.79512e-13 0)
(664 -7.30134e-13 0)
(664 -6.71616e-13 0)
(664 -6.39899e-13 0)
(664 -6.25474e-13 0)
(664 -6.34895e-13 0)
(664 -6.50031e-13 0)
(664 -6.64969e-13 0)
(664 -6.62718e-13 0)
(664 -6.75257e-13 0)
(664 -7.1231e-13 0)
(664 -7.53549e-13 0)
(664 -7.68424e-13 0)
(664 -7.76798e-13 0)
(664 -7.88543e-13 0)
(664 -8.08452e-13 0)
(664 -8.20906e-13 0)
(664 -8.25312e-13 0)
(664 -8.24383e-13 0)
(664 -7.97278e-13 0)
(664 -7.50482e-13 0)
(664 -6.925e-13 0)
(664 -6.24669e-13 0)
(664 -5.69479e-13 0)
(664 -5.11344e-13 0)
(664 -4.54647e-13 0)
(664 -3.99048e-13 0)
(664 -3.68203e-13 0)
(664 -3.71518e-13 0)
(664 -3.76457e-13 0)