/*--------------------------------*- C++ -*----------------------------------*\
| =========                 |                                                 |
| \\      /  F ield         | OpenFOAM: The Open Source CFD Toolbox           |
|  \\    /   O peration     | Version:  2412                                  |
|   \\  /    A nd           | Website:  www.openfoam.com                      |
|    \\/     M anipulation  |                                                 |
\*---------------------------------------------------------------------------*/
FoamFile
{
    version     2.0;
    format      ascii;
    arch        "LSB;label=32;scalar=64";
    class       volVectorField;
    location    "0.0025";
    object      U_0;
}
// * * * * * * * * * * * * * * * * * * * * * * * * * * * * * * * * * * * * * //

dimensions      [0 1 -1 0 0 0 0];

internalField   nonuniform List<vector> 
180000
(
(664 1.10395e-14 0)
(664 2.58519e-14 0)
(664 2.40884e-14 0)
(664 -3.16163e-14 0)
(664 -9.212e-14 0)
(664 -8.62206e-14 0)
(664 -9.27869e-14 0)
(664 -1.18103e-13 0)
(664 -1.629e-13 0)
(664 -1.96143e-13 0)
(664 -3.23918e-13 0)
(664 -4.86582e-13 0)
(664 -5.18109e-13 0)
(664 -4.91592e-13 0)
(664 -5.1434e-13 0)
(664 -6.33695e-13 0)
(664 -7.10288e-13 0)
(664 -7.79138e-13 0)
(664 -7.81756e-13 0)
(664 -7.98324e-13 0)
(664 -8.22929e-13 0)
(664 -7.79724e-13 0)
(664 -6.03479e-13 0)
(664 -3.55665e-13 0)
(664 -1.70823e-13 0)
(664 -1.97708e-13 0)
(664 -3.10304e-13 0)
(664 -3.83666e-13 0)
(664 -4.30326e-13 0)
(664 -4.37733e-13 0)
(664 -4.43881e-13 0)
(664 -4.92389e-13 0)
(664 -4.99869e-13 0)
(664 -4.9877e-13 0)
(664 -5.34905e-13 0)
(664 -6.44775e-13 0)
(664 -7.54984e-13 0)
(664 -7.50975e-13 0)
(664 -6.92854e-13 0)
(664 -6.84291e-13 0)
(664 -6.85559e-13 0)
(664 -6.98004e-13 0)
(664 -7.06436e-13 0)
(664 -6.26183e-13 0)
(664 -5.887e-13 0)
(664 -6.03249e-13 0)
(664 -6.7398e-13 0)
(664 -7.7e-13 0)
(664 -8.49245e-13 0)
(664 -8.06057e-13 0)
(664 -6.51947e-13 0)
(664 -5.14982e-13 0)
(664 -4.81395e-13 0)
(664 -5.74536e-13 0)
(664 -7.19888e-13 0)
(664 -8.40619e-13 0)
(664 -8.8373e-13 0)
(664 -8.33469e-13 0)
(664 -7.3551e-13 0)
(664 -5.98698e-13 0)
(664 -4.64981e-13 0)
(664 -4.13616e-13 0)
(664 -4.46742e-13 0)
(664 -5.39161e-13 0)
(664 -6.02814e-13 0)
(664 -6.4907e-13 0)
(664 -7.28074e-13 0)
(664 -8.12456e-13 0)
(664 -8.85737e-13 0)
(664 -1.01075e-12 0)
(664 -1.06582e-12 0)
(664 -1.06447e-12 0)
(664 -1.15283e-12 0)
(664 -1.25197e-12 0)
(664 -1.2962e-12 0)
(664 -1.21132e-12 0)
(664 -1.0779e-12 0)
(664 -1.03104e-12 0)
(664 -1.0455e-12 0)
(664 -1.07323e-12 0)
(664 -1.0635e-12 0)
(664 -1.0223e-12 0)
(664 -1.02313e-12 0)
(664 -1.02891e-12 0)
(664 -9.57671e-13 0)
(664 -8.27946e-13 0)
(664 -7.99941e-13 0)
(664 -8.41063e-13 0)
(664 -9.5615e-13 0)
(664 -1.07807e-12 0)
(664 -1.17594e-12 0)
(664 -1.20647e-12 0)
(664 -1.15412e-12 0)
(664 -1.01699e-12 0)
(664 -8.42118e-13 0)
(664 -7.08232e-13 0)
(664 -6.5168e-13 0)
(664 -7.23743e-13 0)
(664 -8.24138e-13 0)
(664 -8.26424e-13 0)
(664 -7.50131e-13 0)
(664 -6.06796e-13 0)
(664 -4.63773e-13 0)
(664 -4.40921e-13 0)
(664 -5.13244e-13 0)
(664 -5.92689e-13 0)
(664 -6.54223e-13 0)
(664 -7.24402e-13 0)
(664 -8.52465e-13 0)
(664 -9.7154e-13 0)
(664 -9.68245e-13 0)
(664 -8.93037e-13 0)
(664 -8.78218e-13 0)
(664 -8.85707e-13 0)
(664 -8.93852e-13 0)
(664 -8.54719e-13 0)
(664 -7.02853e-13 0)
(664 -4.59669e-13 0)
(664 -2.49386e-13 0)
(664 -1.81518e-13 0)
(664 -2.35434e-13 0)
(664 -3.0016e-13 0)
(664 -3.81757e-13 0)
(664 -5.02349e-13 0)
(664 -6.46046e-13 0)
(664 -8.14034e-13 0)
(664 -9.93582e-13 0)
(664 -1.24599e-12 0)
(664 -1.52714e-12 0)
(664 -1.67634e-12 0)
(664 -1.69204e-12 0)
(664 -1.7494e-12 0)
(664 -1.85347e-12 0)
(664 -1.89297e-12 0)
(664 -1.84917e-12 0)
(664 -1.80806e-12 0)
(664 -1.76618e-12 0)
(664 -1.66868e-12 0)
(664 -1.46882e-12 0)
(664 -1.26149e-12 0)
(664 -1.11801e-12 0)
(664 -1.0441e-12 0)
(664 -1.04457e-12 0)
(664 -1.09825e-12 0)
(664 -1.0882e-12 0)
(664 -9.78314e-13 0)
(664 -8.89176e-13 0)
(664 -8.62516e-13 0)
(664 -9.15279e-13 0)
(664 -1.06478e-12 0)
(664 -1.2363e-12 0)
(664 -1.27689e-12 0)
(664 -1.25931e-12 0)
(664 -1.26418e-12 0)
(664 -1.30171e-12 0)
(664 -1.39397e-12 0)
(664 -1.54321e-12 0)
(664 -1.61783e-12 0)
(664 -1.58066e-12 0)
(664 -1.41587e-12 0)
(664 -1.1993e-12 0)
(664 -1.09681e-12 0)
(664 -9.64934e-13 0)
(664 -7.36447e-13 0)
(664 -5.02711e-13 0)
(664 -3.65063e-13 0)
(664 -2.71642e-13 0)
(664 -2.34902e-13 0)
(664 -3.83341e-13 0)
(664 -5.90497e-13 0)
(664 -7.74074e-13 0)
(664 -9.69864e-13 0)
(664 -1.14461e-12 0)
(664 -1.22174e-12 0)
(664 -1.18476e-12 0)
(664 -1.12085e-12 0)
(664 -1.01935e-12 0)
(664 -9.46241e-13 0)
(664 -8.38092e-13 0)
(664 -7.27987e-13 0)
(664 -6.0604e-13 0)
(664 -4.99716e-13 0)
(664 -4.6092e-13 0)
(664 -4.82484e-13 0)
(664 -4.96828e-13 0)
(664 -4.79198e-13 0)
(664 -4.1175e-13 0)
(664 -2.85419e-13 0)
(664 -1.35327e-13 0)
(664 3.92458e-15 0)
(664 1.19522e-13 0)
(664 1.59702e-13 0)
(664 8.75875e-14 0)
(664 -2.02579e-14 0)
(664 -1.35991e-13 0)
(664 -2.92259e-13 0)
(664 -4.9843e-13 0)
(664 -6.42728e-13 0)
(664 -7.11029e-13 0)
(664 -7.19019e-13 0)
(664 -6.61514e-13 0)
(664 -5.96926e-13 0)
(664 -5.56632e-13 0)
(664 -5.32519e-13 0)
(664 -4.52453e-13 0)
(664 -3.89152e-13 0)
(664 -3.1955e-13 0)
(664 -1.91831e-13 0)
(664 -8.21626e-14 0)
(664 -5.00701e-14 0)
(664 -1.10596e-13 0)
(664 -1.57931e-13 0)
(664 -2.20284e-13 0)
(664 -3.52642e-13 0)
(664 -5.41626e-13 0)
(664 -7.30679e-13 0)
(664 -9.15409e-13 0)
(664 -1.11941e-12 0)
(664 -1.25287e-12 0)
(664 -1.33927e-12 0)
(664 -1.45347e-12 0)
(664 -1.55538e-12 0)
(664 -1.58473e-12 0)
(664 -1.60813e-12 0)
(664 -1.67988e-12 0)
(664 -1.64509e-12 0)
(664 -1.43116e-12 0)
(664 -1.16446e-12 0)
(664 -8.99803e-13 0)
(664 -6.71884e-13 0)
(664 -5.76317e-13 0)
(664 -5.96933e-13 0)
(664 -6.67287e-13 0)
(664 -7.13536e-13 0)
(664 -6.28992e-13 0)
(664 -4.87534e-13 0)
(664 -3.919e-13 0)
(664 -3.50462e-13 0)
(664 -3.30737e-13 0)
(664 -3.01919e-13 0)
(664 -1.8465e-13 0)
(664 2.9079e-14 0)
(664 4.50927e-13 0)
(664 1.26167e-12 0)
(664 2.53529e-12 0)
(664 4.44821e-12 0)
(664 7.41194e-12 0)
(664 1.22425e-11 0)
(664 2.0287e-11 0)
(664 3.36578e-11 0)
(664 5.59063e-11 0)
(664 9.29392e-11 0)
(664 1.54408e-10 0)
(664 2.56486e-10 0)
(664 4.26196e-10 0)
(664 7.08617e-10 0)
(664 1.17896e-09 0)
(664 1.96263e-09 0)
(664 3.2695e-09 0)
(664 5.4506e-09 0)
(664 9.09324e-09 0)
(664 1.51815e-08 0)
(664 2.53657e-08 0)
(664 4.24153e-08 0)
(664 7.09831e-08 0)
(664 1.18894e-07 0)
(664 1.99322e-07 0)
(664 3.34469e-07 0)
(664 5.618e-07 0)
(664 9.4461e-07 0)
(664 1.58997e-06 0)
(664 2.67922e-06 0)
(664 4.51999e-06 0)
(664 7.63475e-06 0)
(664 1.29124e-05 0)
(663.999 2.18671e-05 0)
(663.999 3.70831e-05 0)
(663.999 6.29774e-05 0)
(663.998 0.000107113 0)
(663.996 0.00018246 0)
(663.994 0.000311308 0)
(663.99 0.000532027 0)
(663.983 0.000910792 0)
(663.972 0.00156196 0)
(663.954 0.00268355 0)
(663.925 0.0046191 0)
(663.876 0.0079659 0)
(663.795 0.0137644 0)
(663.662 0.0238314 0)
(663.442 0.0413445 0)
(663.078 0.0718773 0)
(662.476 0.125218 0)
(661.477 0.218626 0)
(659.821 0.382514 0)
(657.072 0.670923 0)
(652.508 1.1791 0)
(644.947 2.07873 0)
(632.443 3.66771 0)
(612.094 6.49961 0)
(580.136 11.4467 0)
(664 2.41283e-14 0)
(664 2.95828e-14 0)
(664 5.89357e-14 0)
(664 7.7178e-14 0)
(664 8.95845e-14 0)
(664 7.21407e-14 0)
(664 2.70305e-14 0)
(664 2.99119e-14 0)
(664 -5.8545e-16 0)
(664 -4.81158e-14 0)
(664 -1.75937e-13 0)
(664 -3.46117e-13 0)
(664 -4.20508e-13 0)
(664 -4.10206e-13 0)
(664 -4.06806e-13 0)
(664 -4.68583e-13 0)
(664 -5.05988e-13 0)
(664 -5.79122e-13 0)
(664 -6.46274e-13 0)
(664 -6.8878e-13 0)
(664 -7.60428e-13 0)
(664 -8.07845e-13 0)
(664 -7.97153e-13 0)
(664 -7.40912e-13 0)
(664 -6.52148e-13 0)
(664 -6.4975e-13 0)
(664 -6.69652e-13 0)
(664 -6.5953e-13 0)
(664 -7.06208e-13 0)
(664 -7.34558e-13 0)
(664 -7.29302e-13 0)
(664 -7.51051e-13 0)
(664 -8.5025e-13 0)
(664 -9.10741e-13 0)
(664 -9.00515e-13 0)
(664 -9.02416e-13 0)
(664 -8.18896e-13 0)
(664 -7.23818e-13 0)
(664 -6.17508e-13 0)
(664 -5.59952e-13 0)
(664 -4.58779e-13 0)
(664 -3.90091e-13 0)
(664 -2.86358e-13 0)
(664 -1.64705e-13 0)
(664 -1.00656e-13 0)
(664 -2.06057e-14 0)
(664 1.79025e-14 0)
(664 2.65954e-14 0)
(664 9.80801e-17 0)
(664 -9.56439e-14 0)
(664 -2.1654e-13 0)
(664 -2.70216e-13 0)
(664 -3.22608e-13 0)
(664 -4.69275e-13 0)
(664 -6.15645e-13 0)
(664 -7.35793e-13 0)
(664 -8.28708e-13 0)
(664 -9.09902e-13 0)
(664 -9.95195e-13 0)
(664 -1.00489e-12 0)
(664 -9.28376e-13 0)
(664 -8.23293e-13 0)
(664 -7.27636e-13 0)
(664 -6.83418e-13 0)
(664 -7.11964e-13 0)
(664 -7.68836e-13 0)
(664 -8.57958e-13 0)
(664 -9.18341e-13 0)
(664 -9.64466e-13 0)
(664 -9.85485e-13 0)
(664 -9.78169e-13 0)
(664 -1.03992e-12 0)
(664 -1.16767e-12 0)
(664 -1.2773e-12 0)
(664 -1.29845e-12 0)
(664 -1.26311e-12 0)
(664 -1.12894e-12 0)
(664 -9.91007e-13 0)
(664 -8.52744e-13 0)
(664 -6.88343e-13 0)
(664 -5.11686e-13 0)
(664 -4.34604e-13 0)
(664 -4.30973e-13 0)
(664 -4.02098e-13 0)
(664 -3.97065e-13 0)
(664 -4.75241e-13 0)
(664 -6.09231e-13 0)
(664 -7.723e-13 0)
(664 -1.00399e-12 0)
(664 -1.1549e-12 0)
(664 -1.1878e-12 0)
(664 -1.22063e-12 0)
(664 -1.2945e-12 0)
(664 -1.37535e-12 0)
(664 -1.36263e-12 0)
(664 -1.31504e-12 0)
(664 -1.3047e-12 0)
(664 -1.40972e-12 0)
(664 -1.54126e-12 0)
(664 -1.5771e-12 0)
(664 -1.5444e-12 0)
(664 -1.44791e-12 0)
(664 -1.3552e-12 0)
(664 -1.3054e-12 0)
(664 -1.30514e-12 0)
(664 -1.3451e-12 0)
(664 -1.4745e-12 0)
(664 -1.57095e-12 0)
(664 -1.60256e-12 0)
(664 -1.67308e-12 0)
(664 -1.74607e-12 0)
(664 -1.74283e-12 0)
(664 -1.76877e-12 0)
(664 -1.90674e-12 0)
(664 -1.98094e-12 0)
(664 -1.93531e-12 0)
(664 -1.71989e-12 0)
(664 -1.43877e-12 0)
(664 -1.21674e-12 0)
(664 -1.06795e-12 0)
(664 -9.80386e-13 0)
(664 -9.79726e-13 0)
(664 -1.03525e-12 0)
(664 -1.0656e-12 0)
(664 -1.0926e-12 0)
(664 -1.10868e-12 0)
(664 -1.12039e-12 0)
(664 -1.10693e-12 0)
(664 -1.13774e-12 0)
(664 -1.17037e-12 0)
(664 -1.20018e-12 0)
(664 -1.23711e-12 0)
(664 -1.26902e-12 0)
(664 -1.28649e-12 0)
(664 -1.29038e-12 0)
(664 -1.1889e-12 0)
(664 -1.11873e-12 0)
(664 -1.1833e-12 0)
(664 -1.22319e-12 0)
(664 -1.16772e-12 0)
(664 -1.10913e-12 0)
(664 -1.11109e-12 0)
(664 -1.12516e-12 0)
(664 -1.03663e-12 0)
(664 -8.43994e-13 0)
(664 -6.97295e-13 0)
(664 -6.45522e-13 0)
(664 -6.58116e-13 0)
(664 -6.94417e-13 0)
(664 -8.3123e-13 0)
(664 -9.36232e-13 0)
(664 -9.18657e-13 0)
(664 -8.22515e-13 0)
(664 -7.393e-13 0)
(664 -7.26574e-13 0)
(664 -7.96238e-13 0)
(664 -9.14486e-13 0)
(664 -9.9573e-13 0)
(664 -9.53466e-13 0)
(664 -7.81036e-13 0)
(664 -5.84922e-13 0)
(664 -5.35036e-13 0)
(664 -6.15947e-13 0)
(664 -6.94456e-13 0)
(664 -7.90374e-13 0)
(664 -9.16736e-13 0)
(664 -9.95013e-13 0)
(664 -9.89807e-13 0)
(664 -1.01232e-12 0)
(664 -1.16218e-12 0)
(664 -1.3294e-12 0)
(664 -1.41091e-12 0)
(664 -1.46742e-12 0)
(664 -1.50379e-12 0)
(664 -1.57221e-12 0)
(664 -1.64685e-12 0)
(664 -1.5967e-12 0)
(664 -1.43369e-12 0)
(664 -1.25754e-12 0)
(664 -1.13004e-12 0)
(664 -1.04082e-12 0)
(664 -1.00015e-12 0)
(664 -1.04182e-12 0)
(664 -1.05751e-12 0)
(664 -1.02095e-12 0)
(664 -9.88251e-13 0)
(664 -1.01062e-12 0)
(664 -1.09246e-12 0)
(664 -1.08473e-12 0)
(664 -8.60746e-13 0)
(664 -4.50927e-13 0)
(664 -4.76147e-15 0)
(664 2.48065e-13 0)
(664 2.72233e-13 0)
(664 1.43238e-13 0)
(664 -7.46641e-14 0)
(664 -2.53636e-13 0)
(664 -2.73794e-13 0)
(664 -2.62035e-13 0)
(664 -3.62011e-13 0)
(664 -6.59006e-13 0)
(664 -1.05736e-12 0)
(664 -1.44003e-12 0)
(664 -1.67251e-12 0)
(664 -1.68111e-12 0)
(664 -1.53376e-12 0)
(664 -1.30407e-12 0)
(664 -9.65475e-13 0)
(664 -6.03534e-13 0)
(664 -3.89785e-13 0)
(664 -3.57147e-13 0)
(664 -4.51053e-13 0)
(664 -6.27732e-13 0)
(664 -8.28235e-13 0)
(664 -9.79621e-13 0)
(664 -1.04574e-12 0)
(664 -1.15968e-12 0)
(664 -1.32162e-12 0)
(664 -1.3942e-12 0)
(664 -1.31173e-12 0)
(664 -1.1441e-12 0)
(664 -9.52416e-13 0)
(664 -8.02742e-13 0)
(664 -7.36362e-13 0)
(664 -6.75291e-13 0)
(664 -6.45811e-13 0)
(664 -5.76596e-13 0)
(664 -4.31269e-13 0)
(664 -2.23866e-13 0)
(664 -4.44365e-14 0)
(664 4.35209e-14 0)
(664 -1.81675e-14 0)
(664 -1.18219e-13 0)
(664 -1.43707e-13 0)
(664 -1.20744e-13 0)
(664 -6.78196e-14 0)
(664 4.1135e-14 0)
(664 2.05888e-13 0)
(664 3.74488e-13 0)
(664 4.80899e-13 0)
(664 6.74882e-13 0)
(664 1.17353e-12 0)
(664 2.15489e-12 0)
(664 3.88886e-12 0)
(664 6.86637e-12 0)
(664 1.18335e-11 0)
(664 2.00446e-11 0)
(664 3.35616e-11 0)
(664 5.60103e-11 0)
(664 9.31706e-11 0)
(664 1.54777e-10 0)
(664 2.56842e-10 0)
(664 4.25804e-10 0)
(664 7.05837e-10 0)
(664 1.17041e-09 0)
(664 1.94162e-09 0)
(664 3.22244e-09 0)
(664 5.35068e-09 0)
(664 8.88876e-09 0)
(664 1.47736e-08 0)
(664 2.45666e-08 0)
(664 4.08719e-08 0)
(664 6.80354e-08 0)
(664 1.13314e-07 0)
(664 1.88832e-07 0)
(664 3.14866e-07 0)
(664 5.25338e-07 0)
(664 8.77053e-07 0)
(664 1.4652e-06 0)
(664 2.4494e-06 0)
(664 4.09758e-06 0)
(664 6.85977e-06 0)
(664 1.14925e-05 0)
(664 1.9269e-05 0)
(664 3.23332e-05 0)
(664 5.42996e-05 0)
(663.999 9.12673e-05 0)
(663.999 0.000153538 0)
(663.998 0.00025853 0)
(663.997 0.000435723 0)
(663.995 0.00073507 0)
(663.991 0.0012413 0)
(663.986 0.0020983 0)
(663.977 0.00355068 0)
(663.962 0.00601479 0)
(663.938 0.0102001 0)
(663.899 0.0173173 0)
(663.835 0.0294342 0)
(663.731 0.0500878 0)
(663.563 0.0853346 0)
(663.289 0.14556 0)
(662.845 0.248587 0)
(662.125 0.425059 0)
(660.96 0.727622 0)
(659.078 1.24705 0)
(656.051 2.13884 0)
(651.203 3.67172 0)
(643.531 6.2959 0)
(631.509 10.7851 0)
(614.004 18.2889 0)
(664 -2.38844e-14 0)
(664 -3.664e-14 0)
(664 -5.0405e-14 0)
(664 -8.88335e-15 0)
(664 3.97712e-14 0)
(664 1.50719e-14 0)
(664 -3.63887e-14 0)
(664 -9.09503e-14 0)
(664 -1.11207e-13 0)
(664 -1.14535e-13 0)
(664 -6.87259e-14 0)
(664 -1.30786e-14 0)
(664 -2.68788e-14 0)
(664 -7.906e-14 0)
(664 -1.17289e-13 0)
(664 -9.25407e-14 0)
(664 -1.24663e-13 0)
(664 -1.65178e-13 0)
(664 -2.0928e-13 0)
(664 -2.50547e-13 0)
(664 -3.00176e-13 0)
(664 -3.45337e-13 0)
(664 -4.4416e-13 0)
(664 -6.18209e-13 0)
(664 -7.83586e-13 0)
(664 -7.96092e-13 0)
(664 -7.49207e-13 0)
(664 -6.98596e-13 0)
(664 -7.07409e-13 0)
(664 -7.59822e-13 0)
(664 -8.18873e-13 0)
(664 -8.72495e-13 0)
(664 -8.47054e-13 0)
(664 -7.62516e-13 0)
(664 -6.23944e-13 0)
(664 -4.23032e-13 0)
(664 -2.66554e-13 0)
(664 -1.88847e-13 0)
(664 -2.40093e-13 0)
(664 -3.1013e-13 0)
(664 -3.73317e-13 0)
(664 -4.15288e-13 0)
(664 -4.14268e-13 0)
(664 -4.43293e-13 0)
(664 -4.45235e-13 0)
(664 -3.90446e-13 0)
(664 -2.97489e-13 0)
(664 -2.22019e-13 0)
(664 -2.67534e-13 0)
(664 -4.38925e-13 0)
(664 -6.71505e-13 0)
(664 -8.29571e-13 0)
(664 -9.10413e-13 0)
(664 -9.35762e-13 0)
(664 -9.24485e-13 0)
(664 -8.5689e-13 0)
(664 -8.10231e-13 0)
(664 -8.59885e-13 0)
(664 -9.48887e-13 0)
(664 -9.65836e-13 0)
(664 -9.2202e-13 0)
(664 -8.06456e-13 0)
(664 -6.48127e-13 0)
(664 -5.42572e-13 0)
(664 -5.57736e-13 0)
(664 -6.7574e-13 0)
(664 -7.52778e-13 0)
(664 -7.37775e-13 0)
(664 -6.96266e-13 0)
(664 -6.38411e-13 0)
(664 -6.39929e-13 0)
(664 -6.65077e-13 0)
(664 -5.84721e-13 0)
(664 -5.02805e-13 0)
(664 -5.45949e-13 0)
(664 -6.71825e-13 0)
(664 -8.2676e-13 0)
(664 -9.3779e-13 0)
(664 -9.19955e-13 0)
(664 -8.37907e-13 0)
(664 -7.23072e-13 0)
(664 -6.53351e-13 0)
(664 -6.14429e-13 0)
(664 -6.30957e-13 0)
(664 -7.41311e-13 0)
(664 -9.43216e-13 0)
(664 -1.08772e-12 0)
(664 -1.11224e-12 0)
(664 -1.06909e-12 0)
(664 -1.03046e-12 0)
(664 -9.98099e-13 0)
(664 -9.89894e-13 0)
(664 -1.05183e-12 0)
(664 -1.14081e-12 0)
(664 -1.21874e-12 0)
(664 -1.3072e-12 0)
(664 -1.36129e-12 0)
(664 -1.31524e-12 0)
(664 -1.17588e-12 0)
(664 -1.03961e-12 0)
(664 -9.91433e-13 0)
(664 -1.04366e-12 0)
(664 -1.13533e-12 0)
(664 -1.16674e-12 0)
(664 -1.09855e-12 0)
(664 -1.01204e-12 0)
(664 -9.09625e-13 0)
(664 -8.18398e-13 0)
(664 -7.67225e-13 0)
(664 -7.973e-13 0)
(664 -8.73167e-13 0)
(664 -9.2248e-13 0)
(664 -8.98613e-13 0)
(664 -8.55441e-13 0)
(664 -7.66812e-13 0)
(664 -7.23601e-13 0)
(664 -8.05805e-13 0)
(664 -9.3216e-13 0)
(664 -1.06053e-12 0)
(664 -1.15042e-12 0)
(664 -1.19467e-12 0)
(664 -1.20089e-12 0)
(664 -1.15486e-12 0)
(664 -1.06928e-12 0)
(664 -8.49646e-13 0)
(664 -6.15789e-13 0)
(664 -3.68465e-13 0)
(664 -1.6981e-13 0)
(664 -8.70648e-14 0)
(664 -1.80062e-13 0)
(664 -4.60041e-13 0)
(664 -6.67572e-13 0)
(664 -6.96446e-13 0)
(664 -6.80542e-13 0)
(664 -7.02148e-13 0)
(664 -7.0689e-13 0)
(664 -7.23055e-13 0)
(664 -8.44959e-13 0)
(664 -1.10267e-12 0)
(664 -1.28033e-12 0)
(664 -1.35772e-12 0)
(664 -1.42302e-12 0)
(664 -1.49489e-12 0)
(664 -1.54752e-12 0)
(664 -1.64613e-12 0)
(664 -1.7797e-12 0)
(664 -1.84516e-12 0)
(664 -1.82582e-12 0)
(664 -1.7203e-12 0)
(664 -1.58983e-12 0)
(664 -1.32217e-12 0)
(664 -9.99204e-13 0)
(664 -7.49831e-13 0)
(664 -6.11144e-13 0)
(664 -5.06607e-13 0)
(664 -4.41755e-13 0)
(664 -4.21903e-13 0)
(664 -3.80588e-13 0)
(664 -3.23386e-13 0)
(664 -3.56349e-13 0)
(664 -4.70923e-13 0)
(664 -6.59305e-13 0)
(664 -9.35105e-13 0)
(664 -1.20708e-12 0)
(664 -1.37726e-12 0)
(664 -1.41899e-12 0)
(664 -1.50651e-12 0)
(664 -1.6024e-12 0)
(664 -1.57539e-12 0)
(664 -1.53037e-12 0)
(664 -1.53653e-12 0)
(664 -1.43693e-12 0)
(664 -1.20485e-12 0)
(664 -1.06762e-12 0)
(664 -1.09209e-12 0)
(664 -1.23338e-12 0)
(664 -1.45636e-12 0)
(664 -1.59564e-12 0)
(664 -1.54384e-12 0)
(664 -1.3298e-12 0)
(664 -1.1412e-12 0)
(664 -9.94761e-13 0)
(664 -8.94823e-13 0)
(664 -7.68524e-13 0)
(664 -6.72314e-13 0)
(664 -6.53175e-13 0)
(664 -6.68357e-13 0)
(664 -6.70411e-13 0)
(664 -6.75023e-13 0)
(664 -6.16283e-13 0)
(664 -5.40134e-13 0)
(664 -4.67435e-13 0)
(664 -4.09997e-13 0)
(664 -3.28408e-13 0)
(664 -1.84847e-13 0)
(664 -8.0072e-14 0)
(664 -6.14153e-15 0)
(664 5.35772e-14 0)
(664 1.31148e-13 0)
(664 2.0267e-13 0)
(664 1.9848e-13 0)
(664 7.12467e-14 0)
(664 -9.57901e-14 0)
(664 -1.23274e-13 0)
(664 -4.16908e-14 0)
(664 -4.47471e-15 0)
(664 -4.26516e-14 0)
(664 -2.65834e-13 0)
(664 -5.20618e-13 0)
(664 -7.27927e-13 0)
(664 -9.58689e-13 0)
(664 -1.20569e-12 0)
(664 -1.36794e-12 0)
(664 -1.41386e-12 0)
(664 -1.31799e-12 0)
(664 -1.14615e-12 0)
(664 -9.23897e-13 0)
(664 -7.2777e-13 0)
(664 -5.75792e-13 0)
(664 -4.83845e-13 0)
(664 -4.36669e-13 0)
(664 -4.00972e-13 0)
(664 -4.20023e-13 0)
(664 -4.39578e-13 0)
(664 -3.96146e-13 0)
(664 -2.89622e-13 0)
(664 -2.19898e-13 0)
(664 -1.19929e-13 0)
(664 -9.24655e-14 0)
(664 -4.76147e-14 0)
(664 6.93686e-15 0)
(664 1.58065e-14 0)
(664 4.39128e-14 0)
(664 6.89716e-14 0)
(664 1.15396e-13 0)
(664 1.53119e-13 0)
(664 1.67248e-13 0)
(664 2.43778e-13 0)
(664 4.26366e-13 0)
(664 7.60892e-13 0)
(664 1.29194e-12 0)
(664 2.22473e-12 0)
(664 3.72682e-12 0)
(664 6.2036e-12 0)
(664 1.05275e-11 0)
(664 1.77832e-11 0)
(664 2.97141e-11 0)
(664 4.93541e-11 0)
(664 8.16693e-11 0)
(664 1.34894e-10 0)
(664 2.22819e-10 0)
(664 3.67907e-10 0)
(664 6.07447e-10 0)
(664 1.00334e-09 0)
(664 1.65776e-09 0)
(664 2.73972e-09 0)
(664 4.52896e-09 0)
(664 7.48854e-09 0)
(664 1.23849e-08 0)
(664 2.04871e-08 0)
(664 3.38981e-08 0)
(664 5.61016e-08 0)
(664 9.28723e-08 0)
(664 1.53783e-07 0)
(664 2.54711e-07 0)
(664 4.21989e-07 0)
(664 6.9931e-07 0)
(664 1.15919e-06 0)
(664 1.92201e-06 0)
(664 3.18764e-06 0)
(664 5.28808e-06 0)
(664 8.7748e-06 0)
(664 1.45642e-05 0)
(664 2.41791e-05 0)
(664 4.01508e-05 0)
(664 6.66878e-05 0)
(663.999 0.000110787 0)
(663.999 0.000184084 0)
(663.998 0.000305928 0)
(663.997 0.000508498 0)
(663.996 0.000845306 0)
(663.993 0.00140534 0)
(663.989 0.00233657 0)
(663.982 0.00388495 0)
(663.971 0.0064593 0)
(663.953 0.0107388 0)
(663.924 0.0178513 0)
(663.878 0.0296686 0)
(663.803 0.0492953 0)
(663.683 0.0818753 0)
(663.49 0.135922 0)
(663.18 0.225506 0)
(662.685 0.373835 0)
(661.894 0.619106 0)
(660.634 1.02392 0)
(658.637 1.69051 0)
(655.48 2.78391 0)
(650.549 4.5688 0)
(642.878 7.45206 0)
(631.716 12.0518 0)
(664 -3.23483e-14 0)
(664 -5.22718e-14 0)
(664 -7.09546e-14 0)
(664 -6.0668e-14 0)
(664 -1.00595e-13 0)
(664 -1.34637e-13 0)
(664 -1.86947e-13 0)
(664 -2.41137e-13 0)
(664 -2.40974e-13 0)
(664 -1.85511e-13 0)
(664 -1.06474e-13 0)
(664 -7.46167e-15 0)
(664 1.30504e-13 0)
(664 1.91992e-13 0)
(664 1.45e-13 0)
(664 6.64486e-14 0)
(664 -9.32014e-15 0)
(664 -8.14085e-14 0)
(664 -1.28128e-13 0)
(664 -1.51749e-13 0)
(664 -8.8479e-14 0)
(664 -9.7375e-16 0)
(664 -3.00638e-14 0)
(664 -1.62129e-13 0)
(664 -4.00485e-13 0)
(664 -6.39508e-13 0)
(664 -8.44373e-13 0)
(664 -1.01875e-12 0)
(664 -1.12835e-12 0)
(664 -1.18839e-12 0)
(664 -1.16761e-12 0)
(664 -1.07916e-12 0)
(664 -9.21876e-13 0)
(664 -7.67007e-13 0)
(664 -6.05161e-13 0)
(664 -4.57271e-13 0)
(664 -4.24747e-13 0)
(664 -4.62533e-13 0)
(664 -4.74719e-13 0)
(664 -4.6332e-13 0)
(664 -4.37956e-13 0)
(664 -3.75529e-13 0)
(664 -3.59567e-13 0)
(664 -3.62463e-13 0)
(664 -3.7043e-13 0)
(664 -3.82523e-13 0)
(664 -3.87062e-13 0)
(664 -4.26968e-13 0)
(664 -4.8069e-13 0)
(664 -4.37309e-13 0)
(664 -3.11582e-13 0)
(664 -2.35398e-13 0)
(664 -2.66944e-13 0)
(664 -3.79696e-13 0)
(664 -5.26366e-13 0)
(664 -6.18771e-13 0)
(664 -6.51545e-13 0)
(664 -6.44787e-13 0)
(664 -5.01674e-13 0)
(664 -3.03739e-13 0)
(664 -2.30733e-13 0)
(664 -2.94391e-13 0)
(664 -4.65713e-13 0)
(664 -6.23298e-13 0)
(664 -6.46045e-13 0)
(664 -5.71049e-13 0)
(664 -5.05246e-13 0)
(664 -4.83254e-13 0)
(664 -5.51352e-13 0)
(664 -6.14192e-13 0)
(664 -6.05838e-13 0)
(664 -5.13056e-13 0)
(664 -4.08184e-13 0)
(664 -3.1118e-13 0)
(664 -2.46074e-13 0)
(664 -2.96777e-13 0)
(664 -4.75141e-13 0)
(664 -6.6943e-13 0)
(664 -8.2212e-13 0)
(664 -9.73926e-13 0)
(664 -1.09563e-12 0)
(664 -1.18053e-12 0)
(664 -1.22996e-12 0)
(664 -1.24204e-12 0)
(664 -1.17687e-12 0)
(664 -1.1128e-12 0)
(664 -1.16574e-12 0)
(664 -1.17675e-12 0)
(664 -1.06514e-12 0)
(664 -9.47562e-13 0)
(664 -8.85691e-13 0)
(664 -8.71293e-13 0)
(664 -8.88579e-13 0)
(664 -9.47999e-13 0)
(664 -1.09171e-12 0)
(664 -1.25678e-12 0)
(664 -1.37452e-12 0)
(664 -1.49939e-12 0)
(664 -1.61864e-12 0)
(664 -1.64185e-12 0)
(664 -1.65428e-12 0)
(664 -1.73869e-12 0)
(664 -1.90066e-12 0)
(664 -2.0018e-12 0)
(664 -2.0158e-12 0)
(664 -1.93218e-12 0)
(664 -1.79429e-12 0)
(664 -1.69425e-12 0)
(664 -1.70041e-12 0)
(664 -1.67025e-12 0)
(664 -1.57236e-12 0)
(664 -1.4456e-12 0)
(664 -1.35987e-12 0)
(664 -1.22555e-12 0)
(664 -1.08206e-12 0)
(664 -1.03774e-12 0)
(664 -1.11882e-12 0)
(664 -1.23797e-12 0)
(664 -1.26194e-12 0)
(664 -1.21574e-12 0)
(664 -1.16111e-12 0)
(664 -1.09234e-12 0)
(664 -9.73386e-13 0)
(664 -8.41385e-13 0)
(664 -7.14372e-13 0)
(664 -6.61482e-13 0)
(664 -6.59694e-13 0)
(664 -7.05474e-13 0)
(664 -7.89448e-13 0)
(664 -9.10574e-13 0)
(664 -1.06632e-12 0)
(664 -1.25927e-12 0)
(664 -1.47744e-12 0)
(664 -1.6078e-12 0)
(664 -1.66911e-12 0)
(664 -1.72554e-12 0)
(664 -1.70357e-12 0)
(664 -1.57177e-12 0)
(664 -1.3309e-12 0)
(664 -1.09391e-12 0)
(664 -8.6002e-13 0)
(664 -6.02564e-13 0)
(664 -4.97027e-13 0)
(664 -5.99068e-13 0)
(664 -7.74623e-13 0)
(664 -8.2137e-13 0)
(664 -7.4363e-13 0)
(664 -6.39894e-13 0)
(664 -5.31719e-13 0)
(664 -3.94459e-13 0)
(664 -2.75646e-13 0)
(664 -2.04388e-13 0)
(664 -2.75898e-13 0)
(664 -4.62244e-13 0)
(664 -5.86585e-13 0)
(664 -6.03016e-13 0)
(664 -5.07414e-13 0)
(664 -4.11783e-13 0)
(664 -4.30955e-13 0)
(664 -5.94808e-13 0)
(664 -7.84604e-13 0)
(664 -9.19958e-13 0)
(664 -9.59215e-13 0)
(664 -8.9483e-13 0)
(664 -7.40297e-13 0)
(664 -5.49732e-13 0)
(664 -3.34142e-13 0)
(664 -2.03981e-13 0)
(664 -1.4634e-13 0)
(664 -9.04011e-14 0)
(664 -1.03315e-13 0)
(664 -2.36223e-13 0)
(664 -4.49355e-13 0)
(664 -7.40898e-13 0)
(664 -1.06839e-12 0)
(664 -1.35177e-12 0)
(664 -1.59529e-12 0)
(664 -1.79633e-12 0)
(664 -1.85953e-12 0)
(664 -1.85172e-12 0)
(664 -1.82605e-12 0)
(664 -1.83293e-12 0)
(664 -1.85501e-12 0)
(664 -1.95858e-12 0)
(664 -2.07587e-12 0)
(664 -2.13435e-12 0)
(664 -2.06609e-12 0)
(664 -1.83183e-12 0)
(664 -1.63857e-12 0)
(664 -1.57118e-12 0)
(664 -1.71105e-12 0)
(664 -1.94008e-12 0)
(664 -2.02619e-12 0)
(664 -1.91635e-12 0)
(664 -1.66626e-12 0)
(664 -1.31696e-12 0)
(664 -1.06389e-12 0)
(664 -9.73268e-13 0)
(664 -9.84911e-13 0)
(664 -9.73345e-13 0)
(664 -8.4388e-13 0)
(664 -6.33456e-13 0)
(664 -4.36172e-13 0)
(664 -3.1331e-13 0)
(664 -3.09214e-13 0)
(664 -4.28575e-13 0)
(664 -6.33194e-13 0)
(664 -8.84919e-13 0)
(664 -1.14582e-12 0)
(664 -1.27685e-12 0)
(664 -1.22625e-12 0)
(664 -1.02643e-12 0)
(664 -8.36743e-13 0)
(664 -7.02532e-13 0)
(664 -6.71048e-13 0)
(664 -6.91555e-13 0)
(664 -5.45663e-13 0)
(664 -2.36477e-13 0)
(664 8.69835e-14 0)
(664 3.04051e-13 0)
(664 3.23425e-13 0)
(664 8.16325e-14 0)
(664 -2.46469e-13 0)
(664 -5.06611e-13 0)
(664 -6.96005e-13 0)
(664 -7.57016e-13 0)
(664 -7.3915e-13 0)
(664 -7.09684e-13 0)
(664 -6.76752e-13 0)
(664 -6.17835e-13 0)
(664 -5.09411e-13 0)
(664 -3.18657e-13 0)
(664 -1.37025e-13 0)
(664 -6.69268e-14 0)
(664 -3.19818e-14 0)
(664 8.65413e-14 0)
(664 2.09615e-13 0)
(664 3.3969e-13 0)
(664 5.86228e-13 0)
(664 1.08298e-12 0)
(664 1.82236e-12 0)
(664 2.86949e-12 0)
(664 4.63864e-12 0)
(664 7.71596e-12 0)
(664 1.27372e-11 0)
(664 2.10293e-11 0)
(664 3.46993e-11 0)
(664 5.72174e-11 0)
(664 9.41184e-11 0)
(664 1.54649e-10 0)
(664 2.54028e-10 0)
(664 4.17469e-10 0)
(664 6.86478e-10 0)
(664 1.12911e-09 0)
(664 1.85724e-09 0)
(664 3.05503e-09 0)
(664 5.02568e-09 0)
(664 8.26817e-09 0)
(664 1.36037e-08 0)
(664 2.23837e-08 0)
(664 3.68323e-08 0)
(664 6.06108e-08 0)
(664 9.97448e-08 0)
(664 1.64152e-07 0)
(664 2.70157e-07 0)
(664 4.44628e-07 0)
(664 7.31782e-07 0)
(664 1.20439e-06 0)
(664 1.98221e-06 0)
(664 3.26227e-06 0)
(664 5.36878e-06 0)
(664 8.835e-06 0)
(664 1.45381e-05 0)
(664 2.39202e-05 0)
(664 3.93527e-05 0)
(664 6.47326e-05 0)
(664 0.000106463 0)
(663.999 0.000175061 0)
(663.999 0.000287793 0)
(663.998 0.000472994 0)
(663.997 0.000777139 0)
(663.995 0.00127641 0)
(663.992 0.00209559 0)
(663.987 0.00343896 0)
(663.979 0.00564061 0)
(663.967 0.00924642 0)
(663.946 0.0151474 0)
(663.914 0.024796 0)
(663.863 0.0405569 0)
(663.781 0.0662737 0)
(663.651 0.108182 0)
(663.445 0.176376 0)
(663.117 0.287155 0)
(662.599 0.466759 0)
(661.779 0.757204 0)
(660.488 1.22557 0)
(658.46 1.97743 0)
(655.302 3.17889 0)
(650.381 5.07876 0)
(643.158 8.05936 0)
(664 3.47067e-14 0)
(664 7.57714e-14 0)
(664 8.92338e-14 0)
(664 6.06269e-14 0)
(664 6.32188e-14 0)
(664 6.77379e-14 0)
(664 8.62958e-14 0)
(664 1.51191e-13 0)
(664 2.47863e-13 0)
(664 2.79118e-13 0)
(664 2.6369e-13 0)
(664 2.38034e-13 0)
(664 1.97464e-13 0)
(664 1.41898e-13 0)
(664 1.30955e-13 0)
(664 1.90442e-13 0)
(664 2.91559e-13 0)
(664 3.37094e-13 0)
(664 2.85893e-13 0)
(664 2.80884e-13 0)
(664 1.63271e-13 0)
(664 -4.54711e-14 0)
(664 -2.14496e-13 0)
(664 -3.03282e-13 0)
(664 -3.37491e-13 0)
(664 -3.70357e-13 0)
(664 -3.68315e-13 0)
(664 -3.34268e-13 0)
(664 -2.91162e-13 0)
(664 -2.77558e-13 0)
(664 -2.61779e-13 0)
(664 -2.53848e-13 0)
(664 -3.4161e-13 0)
(664 -4.84221e-13 0)
(664 -5.72937e-13 0)
(664 -6.69507e-13 0)
(664 -7.35655e-13 0)
(664 -7.35586e-13 0)
(664 -6.85844e-13 0)
(664 -6.31459e-13 0)
(664 -5.06494e-13 0)
(664 -3.64532e-13 0)
(664 -2.69917e-13 0)
(664 -2.48658e-13 0)
(664 -2.62528e-13 0)
(664 -2.86631e-13 0)
(664 -3.37409e-13 0)
(664 -3.54589e-13 0)
(664 -3.01037e-13 0)
(664 -2.4242e-13 0)
(664 -2.4987e-13 0)
(664 -3.22938e-13 0)
(664 -3.12872e-13 0)
(664 -1.92238e-13 0)
(664 -1.17453e-13 0)
(664 -2.11991e-13 0)
(664 -3.59439e-13 0)
(664 -4.02612e-13 0)
(664 -4.23999e-13 0)
(664 -4.195e-13 0)
(664 -4.13538e-13 0)
(664 -4.63053e-13 0)
(664 -5.77434e-13 0)
(664 -7.81514e-13 0)
(664 -9.90913e-13 0)
(664 -1.11975e-12 0)
(664 -1.18249e-12 0)
(664 -1.1842e-12 0)
(664 -1.11101e-12 0)
(664 -1.04872e-12 0)
(664 -8.93651e-13 0)
(664 -7.13809e-13 0)
(664 -6.38875e-13 0)
(664 -6.50767e-13 0)
(664 -6.50096e-13 0)
(664 -6.098e-13 0)
(664 -5.0029e-13 0)
(664 -3.39882e-13 0)
(664 -1.7028e-13 0)
(664 -6.05793e-14 0)
(664 -9.02153e-14 0)
(664 -2.49272e-13 0)
(664 -3.75907e-13 0)
(664 -3.32192e-13 0)
(664 -2.37276e-13 0)
(664 -1.80136e-13 0)
(664 -1.74613e-13 0)
(664 -2.99164e-13 0)
(664 -4.54047e-13 0)
(664 -6.13261e-13 0)
(664 -7.99118e-13 0)
(664 -9.66168e-13 0)
(664 -1.05859e-12 0)
(664 -1.09206e-12 0)
(664 -1.08594e-12 0)
(664 -1.07287e-12 0)
(664 -1.13108e-12 0)
(664 -1.26497e-12 0)
(664 -1.4271e-12 0)
(664 -1.58322e-12 0)
(664 -1.67936e-12 0)
(664 -1.7041e-12 0)
(664 -1.67829e-12 0)
(664 -1.69754e-12 0)
(664 -1.80088e-12 0)
(664 -1.91938e-12 0)
(664 -2.0105e-12 0)
(664 -1.95731e-12 0)
(664 -1.69829e-12 0)
(664 -1.45857e-12 0)
(664 -1.38343e-12 0)
(664 -1.30876e-12 0)
(664 -1.27754e-12 0)
(664 -1.24565e-12 0)
(664 -1.22949e-12 0)
(664 -1.15752e-12 0)
(664 -1.02504e-12 0)
(664 -9.44631e-13 0)
(664 -9.21341e-13 0)
(664 -8.53893e-13 0)
(664 -7.72376e-13 0)
(664 -7.61651e-13 0)
(664 -8.1647e-13 0)
(664 -8.22706e-13 0)
(664 -8.66938e-13 0)
(664 -9.60905e-13 0)
(664 -1.07915e-12 0)
(664 -1.15194e-12 0)
(664 -1.08e-12 0)
(664 -9.40542e-13 0)
(664 -7.61202e-13 0)
(664 -6.00293e-13 0)
(664 -5.5278e-13 0)
(664 -5.92841e-13 0)
(664 -6.23767e-13 0)
(664 -6.18285e-13 0)
(664 -6.64301e-13 0)
(664 -7.23999e-13 0)
(664 -7.64213e-13 0)
(664 -8.49143e-13 0)
(664 -9.24102e-13 0)
(664 -9.69084e-13 0)
(664 -1.00177e-12 0)
(664 -1.05828e-12 0)
(664 -1.12668e-12 0)
(664 -1.11464e-12 0)
(664 -1.04541e-12 0)
(664 -1.00682e-12 0)
(664 -1.03864e-12 0)
(664 -1.04777e-12 0)
(664 -1.07065e-12 0)
(664 -1.13563e-12 0)
(664 -1.17508e-12 0)
(664 -1.19375e-12 0)
(664 -1.23909e-12 0)
(664 -1.14605e-12 0)
(664 -9.82049e-13 0)
(664 -9.13445e-13 0)
(664 -1.02206e-12 0)
(664 -1.22378e-12 0)
(664 -1.42626e-12 0)
(664 -1.52618e-12 0)
(664 -1.5617e-12 0)
(664 -1.64115e-12 0)
(664 -1.76129e-12 0)
(664 -1.92213e-12 0)
(664 -2.005e-12 0)
(664 -2.02245e-12 0)
(664 -1.99483e-12 0)
(664 -1.92591e-12 0)
(664 -1.74056e-12 0)
(664 -1.53903e-12 0)
(664 -1.43029e-12 0)
(664 -1.4556e-12 0)
(664 -1.43126e-12 0)
(664 -1.23671e-12 0)
(664 -9.08017e-13 0)
(664 -5.65753e-13 0)
(664 -3.36548e-13 0)
(664 -2.49693e-13 0)
(664 -2.86261e-13 0)
(664 -3.74029e-13 0)
(664 -4.02113e-13 0)
(664 -3.46629e-13 0)
(664 -3.54116e-13 0)
(664 -4.03697e-13 0)
(664 -5.29369e-13 0)
(664 -6.67099e-13 0)
(664 -7.3093e-13 0)
(664 -8.21316e-13 0)
(664 -9.21637e-13 0)
(664 -1.00992e-12 0)
(664 -1.04319e-12 0)
(664 -1.00296e-12 0)
(664 -1.02149e-12 0)
(664 -1.06539e-12 0)
(664 -1.00091e-12 0)
(664 -8.8253e-13 0)
(664 -8.17799e-13 0)
(664 -9.04332e-13 0)