/*--------------------------------*- C++ -*----------------------------------*\
| =========                 |                                                 |
| \\      /  F ield         | OpenFOAM: The Open Source CFD Toolbox           |
|  \\    /   O peration     | Version:  2412                                  |
|   \\  /    A nd           | Website:  www.openfoam.com                      |
|    \\/     M anipulation  |                                                 |
\*---------------------------------------------------------------------------*/
FoamFile
{
    version     2.0;
    format      ascii;
    arch        "LSB;label=32;scalar=64";
    class       volScalarField;
    location    "5.5";
    object      p;
}
// * * * * * * * * * * * * * * * * * * * * * * * * * * * * * * * * * * * * * //

dimensions      [1 -1 -2 0 0 0 0];

internalField   nonuniform List<scalar> 
200
(
1.18798
0.869809
1.07828
0.927283
1.04001
0.980438
1.00844
1.00043
1.00099
1.00166
1.18529
0.844436
1.05512
0.988123
0.998457
0.996701
0.99705
0.998083
0.99921
1.00011
1.18004
0.848611
1.04162
0.982948
0.998997
0.996897
0.997471
0.99875
0.999827
1.0007
1.17644
0.880639
1.04895
0.952719
0.996621
0.981395
0.988544
0.991891
0.995242
0.997603
1.21668
0.931042
1.01377
0.985612
0.995259
0.994414
0.995738
0.996717
0.997799
0.998792
1.18186
0.875188
1.06181
0.955367
1.00668
0.987548
0.993128
0.993088
0.994629
0.996324
1.1841
0.83933
1.04543
0.993421
0.997914
0.997232
0.997074
0.997409
0.997865
0.998349
1.19189
0.854922
1.09185
0.977454
1.00544
1.00105
0.999336
0.999034
0.999856
1.00046
1.19095
0.872523
1.06669
0.898445
1.03646
0.981428
1.00601
0.998432
1.0014
1.00096
1.19058
0.867553
1.07939
0.949537
1.02307
0.982235
1.0114
0.990584
1.00789
0.997058
1.00202
1.00188
1.00194
1.00199
1.00206
1.00215
1.00222
1.00226
1.00226
1.00226
1.00087
1.00128
1.00144
1.00162
1.00189
1.00209
1.00221
1.00226
1.00228
1.00229
1.00123
1.0016
1.00178
1.00194
1.00206
1.00214
1.00221
1.00224
1.00226
1.00225
0.999571
1.00073
1.00127
1.00158
1.00185
1.00205
1.00218
1.00223
1.00226
1.00225
0.999819
1.00049
1.00105
1.00154
1.00187
1.00205
1.00215
1.00219
1.00219
1.00217
0.998461
0.999755
1.00093
1.00145
1.00178
1.00196
1.00205
1.00209
1.0021
1.00209
0.999373
1.00012
1.00093
1.00139
1.00165
1.00179
1.00186
1.00188
1.00192
1.00196
1.00129
1.00104
1.0014
1.00145
1.0016
1.00174
1.00178
1.00172
1.00173
1.00186
1.00157
1.00078
1.00137
1.00125
1.00138
1.00148
1.00168
1.00161
1.00161
1.00187
1.00453
0.999962
1.00189
1.00146
1.00158
1.00165
1.00172
1.00172
1.00168
1.00189
)
;

boundaryField
{
    inlet
    {
        type            fixedValue;
        value           uniform 1;
    }
    sym
    {
        type            slip;
    }
    wedge
    {
        type            slip;
    }
    top
    {
        type            slip;
    }
    back
    {
        type            empty;
    }
    front
    {
        type            empty;
    }
    outlet
    {
        type            zeroGradient;
    }
}


// ************************************************************************* //
