/*--------------------------------*- C++ -*----------------------------------*\
| =========                 |                                                 |
| \\      /  F ield         | OpenFOAM: The Open Source CFD Toolbox           |
|  \\    /   O peration     | Version:  2412                                  |
|   \\  /    A nd           | Website:  www.openfoam.com                      |
|    \\/     M anipulation  |                                                 |
\*---------------------------------------------------------------------------*/
FoamFile
{
    version     2.0;
    format      ascii;
    arch        "LSB;label=32;scalar=64";
    class       surfaceScalarField;
    location    "5.5";
    object      phi;
}
// * * * * * * * * * * * * * * * * * * * * * * * * * * * * * * * * * * * * * //

dimensions      [1 0 -1 0 0 0 0];

oriented        oriented;

internalField   nonuniform List<scalar> 
370
(
5.19365e-05
9.17964e-05
-0.0001758
0.000227696
-0.000188684
1.27619e-05
0.000317493
-0.000506177
0.000286068
3.13957e-05
0.000422417
-0.000136312
0.000427385
-4.8482e-06
0.000417108
1.03004e-05
0.000394928
2.21811e-05
3.11769e-05
0.000363749
0.000350002
-0.00013421
0.000797021
-0.000219272
0.000988773
-0.00017904
0.000634089
-0.000151492
0.000741204
-7.57369e-05
0.000619803
-1.49337e-05
0.000543454
7.13433e-05
0.000432753
0.000120974
0.000318324
0.00013661
0.000127212
0.000222291
0.000338849
-0.000362154
0.000697925
-0.000578283
0.000589264
-7.03969e-05
0.000452601
-1.47969e-05
0.000386786
-9.92365e-06
0.000280245
9.16096e-05
0.000190747
0.000160829
0.000103598
0.000208102
3.04047e-05
0.000209782
0.0001783
-2.06303e-05
0.000108316
-0.000375485
-9.19337e-05
-0.00037793
-0.000462158
0.000299766
-0.000535964
5.90025e-05
-0.000674911
0.000129054
-0.000675011
9.17038e-05
-0.000630916
0.000116742
-0.000554642
0.000131829
-0.000472554
0.000127703
0.000106834
-0.000401076
-0.000893689
0.000290249
-0.00165942
0.000387853
-0.00103526
-0.000324359
-0.000961177
-1.49775e-05
-0.000816659
-1.54211e-05
-0.000758906
3.39672e-05
-0.000692025
4.98782e-05
-0.000618602
5.84259e-05
-0.000538021
4.71413e-05
2.67157e-05
-0.000457882
4.02412e-05
0.000337383
-0.000131616
0.000559735
-0.000463267
7.67748e-06
-0.000514289
3.79847e-05
-0.000635186
0.000105788
-0.000624641
2.34811e-05
-0.000584595
9.85556e-06
-0.000506046
-2.00888e-05
-0.000406668
-5.22016e-05
-7.52687e-05
-0.000304649
0.000338877
9.99144e-05
0.000797972
0.000100773
0.000800493
4.78268e-06
0.0006027
0.000233911
0.000581123
0.000126947
0.000516886
8.76996e-05
0.000468996
5.776e-05
0.000429186
1.97529e-05
0.000392409
-1.53903e-05
-4.36657e-05
0.000360843
0.000242582
-1.03914e-05
0.000600739
-0.000257287
0.000762826
-0.000157447
0.000742137
0.000254575
0.00089922
-3.01611e-05
0.0008155
0.000171408
0.000833385
3.98717e-05
0.000778728
7.44117e-05
0.000755188
8.15704e-06
2.18216e-05
0.00068971
0.000105649
3.9576e-05
-0.000124194
-2.75208e-05
-3.69313e-05
-0.000244935
0.000470668
-0.000252944
0.000321312
0.000119172
0.000393758
9.89797e-05
0.000409612
2.40282e-05
0.000266211
0.000217815
0.000262576
1.17951e-05
9.02151e-05
0.000194182
0.000194089
0.000166571
-7.84895e-05
-0.000331386
-0.000212245
-0.000113234
-8.91982e-05
0.000128634
0.00014044
0.000230665
0.000323178
4.05664e-05
0.000284121
3.90432e-05
0.000257957
2.61491e-05
0.000229387
2.85526e-05
0.000203055
2.6314e-05
0.000185959
1.70657e-05
0.000177668
8.22902e-06
0.000175297
2.28408e-06
0.000174558
6.64236e-07
3.67527e-06
5.10505e-05
0.000211814
-4.93655e-05
0.000139472
-8.98458e-05
6.66397e-05
-9.3125e-05
3.18279e-05
-7.44639e-05
7.6413e-06
-4.57882e-05
-1.16292e-05
-1.49359e-05
-2.26492e-05
1.11776e-05
-2.38502e-05
3.22822e-05
-2.04676e-05
-6.22661e-06
-0.000111911
0.000303123
-0.00014345
0.000171005
-0.000139331
6.24974e-05
-9.83464e-05
-9.18245e-06
-5.23896e-05
-3.83437e-05
-1.56975e-05
-4.83531e-05
8.73841e-06
-4.71289e-05
2.33112e-05
-3.84899e-05
2.93174e-05
-2.65166e-05
-5.58031e-06
-0.000323165
0.000225219
-0.000241609
8.94107e-05
-0.000142168
-3.69171e-05
-6.40537e-05
-8.72617e-05
-8.03476e-06
-9.43257e-05
2.87661e-05
-8.5131e-05
4.77394e-05
-6.60907e-05
5.36543e-05
-4.44208e-05
4.84969e-05
-2.14428e-05
2.38145e-06
-0.000294172
6.15519e-05
-0.000128676
-7.60333e-05
-1.16854e-05
-0.000153858
4.91732e-05
-0.000148084
8.28575e-05
-0.000127972
0.000101149
-0.000103366
0.000109893
-7.47723e-05
0.000109046
-4.35067e-05
0.000100758
-1.31424e-05
1.20796e-05
-5.84326e-05
-0.00018462
9.00177e-05
-0.00022444
0.000134307
-0.000198118
0.000157989
-0.000171751
0.000167557
-0.000137528
0.000167931
-0.000103733
0.000164432
-7.12387e-05
0.000156917
-3.59537e-05
0.000146158
-2.30532e-06
2.20854e-05
0.00036979
-0.00019351
0.000334309
-0.00018893
0.000309833
-0.000173653
0.000279497
-0.000141418
0.000250567
-0.000108601
0.000225594
-7.87617e-05
0.000208437
-5.40302e-05
0.000192827
-2.02829e-05
0.000176671
1.39033e-05
3.1283e-05
0.00060486
-0.000108648
0.000481438
-6.55022e-05
0.000402324
-9.45712e-05
0.000317579
-5.66545e-05
0.000251233
-4.22836e-05
0.00020581
-3.33013e-05
0.000187549
-3.5681e-05
0.000175489
-8.14715e-06
0.00015718
3.23104e-05
3.63524e-05
0.000165118
-7.95849e-05
7.51055e-05
2.44811e-05
1.37128e-05
-3.33129e-05
-2.70334e-05
-1.58943e-05
-4.10441e-05
-2.82616e-05
-2.80299e-05
-4.62815e-05
-4.35152e-06
-5.9218e-05
2.22655e-05
-3.47748e-05
3.90958e-05
1.55341e-05
2.52456e-05
0.000151086
0.000175566
0.000142237
0.000126319
9.7966e-05
5.14865e-05
-7.71202e-06
-4.25315e-05
-2.69998e-05
)
;

boundaryField
{
    inlet
    {
        type            calculated;
        value           nonuniform List<scalar> 10(-0.000144181 -0.000124418 -0.000111269 -9.50356e-05 0.000227752 -8.80377e-05 -0.000102094 -0.000133237 -0.00015654 -0.000155447);
    }
    sym
    {
        type            calculated;
        value           uniform 0;
    }
    wedge
    {
        type            calculated;
        value           nonuniform List<scalar> 10(-1.20118e-20 1.20089e-20 1.2009e-20 2.4017e-20 -4.24819e-39 2.40149e-20 0 1.19988e-20 -1.19953e-20 -2.54192e-39);
    }
    top
    {
        type            calculated;
        value           uniform 0;
    }
    back
    {
        type            empty;
    }
    front
    {
        type            empty;
    }
    outlet
    {
        type            calculated;
        value           nonuniform List<scalar> 10(0.000170833 4.2148e-05 2.86559e-05 4.05106e-05 9.09904e-05 0.000136186 0.000167495 0.000152199 5.02371e-05 -1.75e-06);
    }
}


// ************************************************************************* //
