/*--------------------------------*- C++ -*----------------------------------*\
| =========                 |                                                 |
| \\      /  F ield         | OpenFOAM: The Open Source CFD Toolbox           |
|  \\    /   O peration     | Version:  2412                                  |
|   \\  /    A nd           | Website:  www.openfoam.com                      |
|    \\/     M anipulation  |                                                 |
\*---------------------------------------------------------------------------*/
FoamFile
{
    version     2.0;
    format      ascii;
    arch        "LSB;label=32;scalar=64";
    class       volVectorField;
    location    "5.5";
    object      U;
}
// * * * * * * * * * * * * * * * * * * * * * * * * * * * * * * * * * * * * * //

dimensions      [0 1 -1 0 0 0 0];

internalField   nonuniform List<vector> 
200
(
(-22.164 0.466169 0)
(16.1598 2.37117 0)
(-11.7971 -0.679156 0)
(7.36705 -3.75576 0)
(-3.17484 -0.483675 0)
(3.04975 -1.27731 0)
(0.0860595 -0.589445 0)
(1.1849 -0.451164 0)
(1.00172 -0.34323 0)
(0.858323 -0.243344 0)
(-16.1105 0.248185 0)
(10.7576 0.442011 0)
(-0.99467 0.747271 0)
(2.60884 -0.751553 0)
(1.42569 0.596381 0)
(1.53201 0.0356359 0)
(1.39328 0.477058 0)
(1.14564 0.53535 0)
(0.862965 0.556567 0)
(0.615145 0.554419 0)
(-15.8108 -1.15238 0)
(10.6496 -3.66784 0)
(-1.99226 -2.90524 0)
(2.56689 -1.34472 0)
(0.54152 -1.19405 0)
(0.792746 -0.208655 0)
(0.58803 0.526548 0)
(0.335503 1.01855 0)
(0.132996 1.1641 0)
(0.020329 1.04061 0)
(-16.6335 -2.11637 0)
(11.0797 -3.57632 0)
(-7.13374 2.46121 0)
(2.69229 0.959149 0)
(-3.46454 1.08708 0)
(-0.787604 0.952274 0)
(-1.76063 1.02029 0)
(-1.31199 1.08012 0)
(-1.17145 1.01347 0)
(-0.990547 0.8391 0)
(-12.0385 -0.217275 0)
(2.20268 -0.00882046 0)
(-5.502 -0.0891797 0)
(-0.991482 0.206638 0)
(-2.49746 0.249531 0)
(-1.64524 0.438005 0)
(-1.71122 0.58092 0)
(-1.4949 0.674082 0)
(-1.32559 0.637172 0)
(-1.1205 0.519173 0)
(-17.9838 1.98619 0)
(11.8961 3.66559 0)
(-7.7952 -2.3899 0)
(3.10124 -0.688858 0)
(-3.6529 -0.315551 0)
(-0.476425 -0.211076 0)
(-1.78019 -0.132396 0)
(-1.18905 -0.13533 0)
(-1.05499 -0.198839 0)
(-0.778335 -0.277902 0)
(-16.4205 0.952415 0)
(10.933 3.20361 0)
(-1.28383 2.21626 0)
(2.48049 1.43547 0)
(1.21398 1.21643 0)
(1.23307 0.600884 0)
(1.15548 0.290724 0)
(1.04976 -0.0280715 0)
(0.942488 -0.317191 0)
(0.847831 -0.516985 0)
(-18.0712 -0.302161 0)
(12.2179 -1.47243 0)
(-3.06826 -1.89121 0)
(3.69347 1.26744 0)
(1.47218 0.135503 0)
(1.84005 0.575923 0)
(1.93947 0.299945 0)
(1.87924 0.261348 0)
(1.76233 0.146985 0)
(1.66419 0.0601785 0)
(-22.3876 0.200069 0)
(16.8126 -1.18326 0)
(-12.4335 -0.239802 0)
(8.34753 0.679913 0)
(-2.75827 -0.256587 0)
(2.73328 0.987157 0)
(0.185267 0.226136 0)
(1.04465 0.66781 0)
(0.477114 -0.084692 0)
(0.570435 0.225238 0)
(-20.8169 0.0876785 0)
(15.2288 0.727317 0)
(-8.93605 -1.65052 0)
(5.51641 -2.66693 0)
(-5.18701 1.18578 0)
(3.14932 0.418483 0)
(-2.97985 0.0950253 0)
(2.06031 1.56784 0)
(-0.975016 0.279975 0)
(1.22178 0.681016 0)
(0.74694 -0.0813388 -2.83621e-21)
(0.730095 0.0143454 0)
(0.674722 0.100477 0)
(0.620085 0.169646 0)
(0.569118 0.202915 1.13168e-17)
(0.526928 0.215511 0)
(0.50775 0.220126 0)
(0.512245 0.222351 0)
(0.529872 0.22309 0)
(0.551793 0.221363 -6.80458e-18)
(0.258138 0.607359 -4.98294e-18)
(-0.0300152 0.411075 5.17104e-18)
(-0.222276 0.175639 0)
(-0.239311 0.0983941 0)
(-0.230308 0.0458456 -1.536e-23)
(-0.16733 -0.00594802 0)
(-0.090532 -0.038395 0)
(0.00187299 -0.0412867 0)
(0.061887 -0.024937 0)
(0.135841 0.02749 0)
(-0.198781 0.729052 0)
(-0.334617 0.352252 -5.13331e-18)
(-0.377627 0.0747384 0)
(-0.310438 -0.0494172 0)
(-0.197453 -0.117431 -1.13518e-17)
(-0.081953 -0.127351 5.88011e-18)
(-0.00433121 -0.118389 0)
(0.0529072 -0.0846282 6.32233e-18)
(0.0851067 -0.0550088 0)
(0.0921691 -0.000620555 6.83707e-18)
(-0.864824 0.627531 0)
(-0.705604 0.306602 0)
(-0.494088 0.0321204 0)
(-0.235118 -0.154306 0)
(-0.0918064 -0.195748 5.67238e-18)
(0.0468998 -0.173693 -5.87108e-18)
(0.11336 -0.129808 0)
(0.154619 -0.0790208 -1.2599e-17)
(0.164605 -0.0278121 0)
(0.130237 0.0286386 -6.82831e-18)
(-0.92102 0.372673 2.45748e-18)
(-0.502218 -0.0207651 2.55786e-18)
(-0.126201 -0.369707 0)
(0.070978 -0.362646 2.74032e-18)
(0.179628 -0.307284 2.82637e-18)
(0.255335 -0.235231 0)
(0.301073 -0.152018 0)
(0.323807 -0.0688337 6.27809e-18)
(0.322665 0.00777199 0)
(0.292234 0.0756802 0)
(-0.503811 -0.328797 -2.48898e-18)
(0.193734 -0.511914 -2.57002e-18)
(0.266651 -0.491271 0)
(0.380212 -0.418313 -2.71918e-18)
(0.430846 -0.32643 -2.80967e-18)
(0.456438 -0.231844 0)
(0.468162 -0.134647 0)
(0.470323 -0.0322016 0)
(0.460166 0.0619531 0)
(0.437317 0.12896 0)
(0.847574 -0.64117 2.46511e-18)
(0.857929 -0.599959 0)
(0.792833 -0.518825 0)
(0.744672 -0.414945 0)
(0.69112 -0.312424 2.79598e-18)
(0.641473 -0.220451 0)
(0.603591 -0.132999 0)
(0.584099 -0.0298201 0)
(0.562178 0.0719449 0)
(0.538107 0.135773 3.37951e-18)
(1.42705 -0.143341 -1.20683e-18)
(1.32052 -0.186385 1.25214e-18)
(1.07148 -0.235721 0)
(0.915252 -0.198634 1.34904e-18)
(0.744911 -0.143585 -1.40219e-18)
(0.614569 -0.0814529 1.45728e-18)
(0.527284 -0.0477058 1.51263e-18)
(0.532831 0.0321622 0)
(0.506541 0.120481 1.63079e-18)
(0.489464 0.150917 -1.69337e-18)
(0.327706 -0.42459 -1.87565e-18)
(0.373696 -0.0935242 -1.94305e-18)
(0.0439581 -0.265516 0)
(0.0117576 -0.089073 -2.08839e-18)
(-0.142332 -0.0785805 -7.17854e-19)
(-0.0887443 -0.0916739 -2.2271e-18)
(-0.0550803 -0.133132 -1.53301e-18)
(0.0249243 -0.0434287 0)
(0.099111 0.102831 -1.64204e-18)
(0.160861 0.112717 -2.55631e-18)
(-0.251779 0.0443546 6.26501e-19)
(0.752887 0.254789 6.4854e-19)
(0.255509 0.106963 0)
(0.385358 0.0234842 6.90654e-19)
(0.305738 -0.0637423 -7.14233e-19)
(0.222636 -0.152331 7.4177e-19)
(0.0707892 -0.196104 0)
(-0.119644 -0.146929 0)
(-0.146916 -0.00693073 0)
(-0.00620983 0.0422091 8.54345e-19)
)
;

boundaryField
{
    inlet
    {
        type            fixedValue;
        value           uniform (3 0 0);
    }
    sym
    {
        type            slip;
    }
    wedge
    {
        type            slip;
    }
    top
    {
        type            slip;
    }
    back
    {
        type            empty;
    }
    front
    {
        type            empty;
    }
    outlet
    {
        type            inletOutlet;
        inletValue      uniform (3 0 0);
        value           nonuniform List<vector> 10((0.551793 0.221363 -6.80458e-18) (0.135841 0.02749 0) (0.0921691 -0.000620555 6.83707e-18) (0.130237 0.0286386 -6.82831e-18) (0.292234 0.0756802 0) (0.437317 0.12896 0) (0.538107 0.135773 3.37951e-18) (0.489464 0.150917 -1.69337e-18) (0.160861 0.112717 -2.55631e-18) (3 0 0));
    }
}


// ************************************************************************* //
