/*--------------------------------*- C++ -*----------------------------------*\
| =========                 |                                                 |
| \\      /  F ield         | OpenFOAM: The Open Source CFD Toolbox           |
|  \\    /   O peration     | Version:  2412                                  |
|   \\  /    A nd           | Website:  www.openfoam.com                      |
|    \\/     M anipulation  |                                                 |
\*---------------------------------------------------------------------------*/
FoamFile
{
    version     2.0;
    format      ascii;
    arch        "LSB;label=32;scalar=64";
    class       surfaceScalarField;
    location    "4";
    object      phi;
}
// * * * * * * * * * * * * * * * * * * * * * * * * * * * * * * * * * * * * * //

dimensions      [1 0 -1 0 0 0 0];

oriented        oriented;

internalField   nonuniform List<scalar> 
85
(
1.91852e+08
716093
1.87676e+08
1.80418e+06
1.81072e+08
3.55889e+06
1.70376e+08
6.91739e+06
1.22574e+07
1.53325e+08
1.92768e+08
802140
1.9014e+08
2.02241e+06
1.86689e+08
3.95543e+06
1.82381e+08
7.3278e+06
1.28502e+07
1.77002e+08
1.93334e+08
643874
1.91403e+08
1.57903e+06
1.89301e+08
3.02296e+06
1.87217e+08
5.44165e+06
9.46745e+06
1.85529e+08
1.93796e+08
344611
1.92238e+08
824383
1.90761e+08
1.53716e+06
1.89601e+08
2.67833e+06
4.54729e+06
1.89427e+08
1.94048e+08
1.92616e+08
1.91255e+08
1.90063e+08
1.894e+08
1.7167e+08
-2.71993e+07
1.69497e+08
-5.09824e+06
1.50406e+08
1.32687e+07
1.25356e+08
1.97981e+07
1.91835e+07
1.62527e+08
-2.40764e+07
1.4762e+08
1.10121e+06
1.30742e+08
2.19226e+07
1.15767e+08
2.70711e+07
2.38749e+07
1.67221e+08
-1.86849e+07
1.57484e+08
-1.19353e+06
1.45419e+08
2.40721e+07
1.35926e+08
2.71244e+07
2.10233e+07
1.6659e+08
-1.01896e+07
1.4943e+08
767548
1.4414e+08
1.54867e+07
1.4147e+08
1.9552e+07
1.25804e+07
1.63971e+08
1.45493e+08
1.40236e+08
1.47062e+08
)
;

boundaryField
{
    inlet
    {
        type            calculated;
        value           nonuniform List<scalar> 5(-1.94415e+08 -1.94726e+08 -1.95024e+08 -1.95314e+08 -1.95489e+08);
    }
    sym
    {
        type            calculated;
        value           uniform 0;
    }
    wedge
    {
        type            calculated;
        value           nonuniform List<scalar> 5(2.13592e-08 2.14532e-08 2.13943e-08 0 2.18175e-08);
    }
    top
    {
        type            calculated;
        value           uniform 0;
    }
    back
    {
        type            empty;
    }
    front
    {
        type            empty;
    }
    outlet
    {
        type            calculated;
        value           nonuniform List<scalar> 5(1.02316e+08 1.04189e+08 1.2985e+08 1.40927e+08 1.56515e+08);
    }
}


// ************************************************************************* //
