/*--------------------------------*- C++ -*----------------------------------*\
| =========                 |                                                 |
| \\      /  F ield         | OpenFOAM: The Open Source CFD Toolbox           |
|  \\    /   O peration     | Version:  2412                                  |
|   \\  /    A nd           | Website:  www.openfoam.com                      |
|    \\/     M anipulation  |                                                 |
\*---------------------------------------------------------------------------*/
FoamFile
{
    version     2.0;
    format      ascii;
    arch        "LSB;label=32;scalar=64";
    class       volScalarField;
    location    "4";
    object      T;
}
// * * * * * * * * * * * * * * * * * * * * * * * * * * * * * * * * * * * * * //

dimensions      [0 0 0 1 0 0 0];

internalField   nonuniform List<scalar> 
50
(
353.196
367.622
391.916
420.228
470.426
343.411
354.993
373.025
397.513
432.464
334.557
343.297
356.8
376.05
404.509
326.374
332.527
341.935
355.963
377.115
321.682
326.407
333.598
344.558
361.673
502.877
503.915
501.705
498.255
490.474
475.903
486.116
492.982
499.951
502.541
449.295
474.377
488.566
496.869
498.734
417.284
456.225
489.818
505.278
508.203
399.232
447.756
503.619
532.35
522.119
)
;

boundaryField
{
    inlet
    {
        type            fixedValue;
        value           uniform 300;
    }
    sym
    {
        type            slip;
    }
    wedge
    {
        type            slip;
    }
    top
    {
        type            slip;
    }
    back
    {
        type            empty;
    }
    front
    {
        type            empty;
    }
    outlet
    {
        type            inletOutlet;
        inletValue      uniform 300;
        value           nonuniform List<scalar> 5(490.21 502.312 498.488 507.946 521.853);
    }
}


// ************************************************************************* //
