/*--------------------------------*- C++ -*----------------------------------*\
| =========                 |                                                 |
| \\      /  F ield         | OpenFOAM: The Open Source CFD Toolbox           |
|  \\    /   O peration     | Version:  2412                                  |
|   \\  /    A nd           | Website:  www.openfoam.com                      |
|    \\/     M anipulation  |                                                 |
\*---------------------------------------------------------------------------*/
FoamFile
{
    version     2.0;
    format      ascii;
    arch        "LSB;label=32;scalar=64";
    class       volVectorField;
    location    "4";
    object      U;
}
// * * * * * * * * * * * * * * * * * * * * * * * * * * * * * * * * * * * * * //

dimensions      [0 1 -1 0 0 0 0];

internalField   nonuniform List<vector> 
50
(
(585.475 2.62549 0)
(564.445 6.26432 0)
(529.631 11.4667 0)
(477.152 19.8589 0)
(389.194 32.3984 0)
(601.048 4.93219 0)
(585.748 11.6195 0)
(561.257 20.9153 0)
(523.336 34.8597 0)
(466.331 54.2499 0)
(614.73 4.43253 0)
(604.166 10.3319 0)
(587.307 18.4621 0)
(560.785 30.2652 0)
(519.791 47.2215 0)
(627.078 3.31616 0)
(620.492 7.64837 0)
(609.944 13.5128 0)
(592.969 21.8554 0)
(565.988 33.8147 0)
(634.027 1.20396 0)
(629.49 2.75993 0)
(622.15 4.85096 0)
(610.083 7.80876 0)
(590.071 12.0878 0)
(270.49 101.448 0)
(279.933 144.158 3.12058e-17)
(294.213 173.149 0)
(311.011 194.245 4.17929e-17)
(328.148 212.494 -5.21536e-17)
(372.472 130.744 2.38468e-17)
(342.2 192.153 2.91444e-17)
(331.848 226.713 3.56851e-17)
(334.888 238.313 6.35107e-19)
(348.805 237.645 -5.61675e-17)
(449.54 95.0537 -2.64565e-17)
(407.188 141.371 -3.03327e-17)
(380.489 171.427 -3.48108e-17)
(376.002 181.608 -4.10542e-17)
(390.155 180.549 5.03582e-17)
(515.626 66.1624 0)
(463.378 107.108 0)
(411.633 137.523 0)
(395.513 138.291 0)
(410.902 119.457 0)
(549.239 23.1635 0)
(494.317 36.101 0)
(423.146 51.3289 0)
(387.527 53.4529 0)
(407.46 44.1395 0)
)
;

boundaryField
{
    inlet
    {
        type            fixedValue;
        value           uniform (664 0 0);
    }
    sym
    {
        type            slip;
    }
    wedge
    {
        type            slip;
    }
    top
    {
        type            slip;
    }
    back
    {
        type            empty;
    }
    front
    {
        type            empty;
    }
    outlet
    {
        type            inletOutlet;
        inletValue      uniform (664 0 0);
        value           nonuniform List<vector> 5((328.148 212.494 -5.21536e-17) (348.805 237.645 -5.61675e-17) (390.155 180.549 5.03582e-17) (410.902 119.457 0) (407.46 44.1395 0));
    }
}


// ************************************************************************* //
