/*--------------------------------*- C++ -*----------------------------------*\
| =========                 |                                                 |
| \\      /  F ield         | OpenFOAM: The Open Source CFD Toolbox           |
|  \\    /   O peration     | Version:  2412                                  |
|   \\  /    A nd           | Website:  www.openfoam.com                      |
|    \\/     M anipulation  |                                                 |
\*---------------------------------------------------------------------------*/
FoamFile
{
    version     2.0;
    format      ascii;
    arch        "LSB;label=32;scalar=64";
    class       volScalarField;
    location    "1.5";
    object      Ma;
}
// * * * * * * * * * * * * * * * * * * * * * * * * * * * * * * * * * * * * * //

dimensions      [0 0 0 0 0 0 0];

internalField   nonuniform List<scalar> 
5250
(
3
2.99998
2.99993
2.99985
2.99953
2.99909
2.99729
2.99471
2.98466
2.96847
2.91476
2.7967
2.51712
1.86045
0.930846
0.364339
0.321013
0.33289
0.323129
0.285606
0.227949
0.174441
0.129016
0.0819319
0.0464966
3
2.99998
2.99993
2.99985
2.99954
2.9991
2.99731
2.99476
2.98481
2.9688
2.91558
2.79887
2.5218
1.86939
0.941888
0.372189
0.322938
0.33512
0.32588
0.288793
0.232254
0.180695
0.13816
0.0966217
0.0703193
3
2.99998
2.99993
2.99985
2.99955
2.99912
2.99737
2.99487
2.9851
2.96948
2.91725
2.8034
2.53155
1.88869
0.966261
0.389938
0.328076
0.34131
0.333804
0.298343
0.244959
0.197869
0.161146
0.128271
0.110128
3
2.99998
2.99993
2.99986
2.99956
2.99915
2.99745
2.99504
2.98555
2.97049
2.91975
2.81022
2.5462
1.91809
1.00423
0.416744
0.335728
0.350914
0.346361
0.313524
0.264754
0.223384
0.193095
0.167578
0.154248
3
2.99999
2.99994
2.99987
2.99958
2.99919
2.99757
2.99526
2.98619
2.97188
2.92319
2.81889
2.56593
1.95584
1.05432
0.450054
0.343659
0.362138
0.361959
0.332703
0.289593
0.254498
0.23042
0.210893
0.201003
3
2.99999
2.99994
2.99988
2.99961
2.99924
2.99772
2.99556
2.98704
2.97359
2.92776
2.82871
2.59179
2.001
1.1164
0.490239
0.352206
0.375311
0.380555
0.35563
0.319058
0.29039
0.272653
0.259253
0.252914
3
2.99999
2.99995
2.99989
2.99964
2.9993
2.99791
2.99592
2.98823
2.97562
2.93395
2.84018
2.62228
2.05541
1.19448
0.537465
0.361216
0.390142
0.401884
0.381797
0.352576
0.331361
0.3205
0.313849
0.313727
3
2.99999
2.99995
2.9999
2.99968
2.99937
2.99811
2.9963
2.98935
2.97784
2.94022
2.85483
2.65606
2.12696
1.29535
0.596014
0.375712
0.40995
0.428061
0.412549
0.39053
0.37729
0.374716
0.377761
0.388765
3
2.99999
2.99996
2.99991
2.99971
2.99943
2.99828
2.99667
2.99021
2.98023
2.94557
2.87296
2.69198
2.22609
1.42844
0.669619
0.400976
0.437916
0.460663
0.449215
0.434922
0.429625
0.436579
0.454501
0.491295
3
2.99999
2.99996
2.99992
2.99975
2.99951
2.99852
2.9971
2.99153
2.9828
2.95242
2.89163
2.73025
2.33531
1.57558
0.759443
0.445055
0.480209
0.50154
0.493274
0.485413
0.487888
0.508665
0.557535
0.660896
3
2.99999
2.99998
2.99992
2.99984
2.99952
2.99904
2.99732
2.99423
2.98478
2.96316
2.90905
2.762
2.46295
1.76978
0.872825
0.502716
0.531761
0.547895
0.544609
0.540553
0.55271
0.592198
0.680702
0.862492
3
3
2.99998
2.99995
2.99983
2.99966
2.99898
2.99796
2.99424
2.98766
2.96724
2.92003
2.80797
2.49844
1.91748
0.956945
0.566927
0.56646
0.583019
0.591453
0.596684
0.619099
0.673199
0.780007
0.972718
3
3
2.99998
2.99996
2.99985
2.99971
2.99912
2.99828
2.99499
2.98973
2.9719
2.93376
2.83635
2.57077
2.06921
1.10393
0.655412
0.59092
0.609653
0.629045
0.646892
0.679108
0.740466
0.844659
1.01014
3
3
2.99999
2.99996
2.99988
2.99975
2.99926
2.99855
2.99575
2.99142
2.97634
2.94568
2.8637
2.64384
2.21723
1.30846
0.769847
0.62081
0.636723
0.660784
0.689527
0.729998
0.792573
0.886103
1.02368
3.00001
3
2.99999
2.99997
2.9999
2.9998
2.99939
2.99882
2.9965
2.99305
2.98056
2.95723
2.89023
2.71788
2.36859
1.55169
0.913774
0.676384
0.677566
0.696758
0.72922
0.772005
0.835388
0.917944
1.03267
3.00001
3
2.99999
2.99998
2.99992
2.99984
2.99951
2.99905
2.99718
2.99451
2.9841
2.96741
2.91284
2.79297
2.51346
1.88493
1.07941
0.756316
0.73345
0.744131
0.770992
0.810434
0.868717
0.945305
1.04278
3.00001
3
3
2.99999
2.99994
2.99988
2.99962
2.99926
2.99781
2.99574
2.98761
2.97493
2.93155
2.83945
2.61939
2.07151
1.26701
0.842938
0.777426
0.787554
0.812181
0.849084
0.899171
0.967107
1.05176
3.00001
3
3
2.99999
2.99996
2.99991
2.99971
2.99944
2.99833
2.99675
2.99061
2.98086
2.94816
2.87758
2.70783
2.26425
1.52355
0.965991
0.818261
0.8222
0.84482
0.883552
0.929329
0.989309
1.06327
3.00001
3.00001
3
2.99999
2.99997
2.99993
2.99979
2.99958
2.99875
2.99756
2.99292
2.9858
2.96051
2.91393
2.78015
2.48345
1.83183
1.12998
0.881336
0.866127
0.882126
0.915048
0.959212
1.01121
1.07486
3.00001
3.00001
3
3
2.99999
2.99994
2.99988
2.99963
2.99928
2.9979
2.99581
2.9883
2.97507
2.93454
2.83983
2.63038
2.09279
1.32303
0.956561
0.903741
0.91727
0.945636
0.98733
1.03436
1.08969
3.00001
3.00001
3
3
2.99999
2.99996
2.99991
2.99972
2.99946
2.9984
2.99686
2.99089
2.98164
2.9495
2.88616
2.71966
2.31968
1.58232
1.08992
0.954181
0.952481
0.972566
1.0084
1.0532
1.10335
3.00001
3.00001
3.00001
3
2.99999
2.99998
2.99993
2.99985
2.99956
2.99911
2.99745
2.99488
2.98578
2.96964
2.92093
2.80994
2.55155
1.99492
1.27277
1.02359
0.99681
1.00849
1.03599
1.07573
1.11957
3.00001
3.00001
3.00001
3
3
2.99998
2.99996
2.99988
2.99975
2.99926
2.99852
2.99581
2.99135
2.97677
2.94654
2.86798
2.66759
2.2556
1.49974
1.11684
1.03492
1.03958
1.06171
1.09795
1.13918
3.00001
3.00001
3.00001
3.00001
3
2.99999
2.99997
2.99993
2.99979
2.99957
2.99876
2.99752
2.99297
2.98552
2.96094
2.91119
2.7812
2.47456
1.83674
1.27407
1.09217
1.07703
1.09044
1.11931
1.15995
3.00001
3.00001
3.00001
3.00001
3
3
2.99999
2.99995
2.99989
2.99966
2.99932
2.99803
2.99609
2.98907
2.97697
2.93955
2.85438
2.66522
2.18356
1.49638
1.17698
1.11615
1.12041
1.14286
1.17698
3.00001
3.00001
3.00001
3.00001
3.00001
3
2.99999
2.99997
2.99992
2.99977
2.99954
2.99864
2.99735
2.99233
2.98465
2.95774
2.90727
2.76945
2.45113
1.81207
1.32302
1.17181
1.15427
1.16547
1.192
3.00001
3.00001
3.00001
3.00001
3.00001
3
3
2.99999
2.99994
2.99988
2.99965
2.99931
2.99801
2.99602
2.98898
2.97673
2.9392
2.85407
2.66335
2.1946
1.53301
1.25144
1.20008
1.1979
1.21427
3.00001
3.00001
3.00001
3.00001
3.00001
3
3
2.99999
2.99997
2.99991
2.99982
2.99946
2.99893
2.99695
2.99386
2.98321
2.96367
2.90767
2.77577
2.48624
1.8833
1.3992
1.24802
1.23155
1.23972
3.00001
3.00001
3.00001
3.00001
3.00001
3.00001
3
3
2.99998
2.99996
2.99986
2.99972
2.99918
2.99837
2.99539
2.99066
2.97454
2.94536
2.85886
2.68342
2.22477
1.62809
1.33445
1.27138
1.26809
3.00001
3.00001
3.00001
3.00001
3.00001
3.00001
3
3
2.99999
2.99998
2.99992
2.99983
2.9995
2.99901
2.99715
2.99442
2.98426
2.96772
2.91578
2.80506
2.54538
1.99704
1.50345
1.32715
1.30172
3.00001
3.00001
3.00001
3.00001
3.00001
3.00001
3.00001
3
3
2.99998
2.99996
2.99988
2.99975
2.99928
2.99857
2.99596
2.99186
2.97792
2.95227
2.88039
2.71954
2.34175
1.73698
1.42679
1.34486
3.00001
3.00001
3.00001
3.00001
3.00001
3.00001
3.00001
3.00001
3
2.99999
2.99998
2.99993
2.99985
2.99957
2.99916
2.99759
2.99526
2.98684
2.97298
2.92931
2.84393
2.61886
2.17905
1.61244
1.40765
3.00001
3.00001
3.00001
3.00001
3.00001
3.00001
3.00001
3.00001
3
3
2.99999
2.99997
2.9999
2.99979
2.99941
2.99882
2.99668
2.99333
2.98183
2.96134
2.90239
2.77262
2.46631
1.90637
1.52217
3.00001
3.00001
3.00001
3.00001
3.00001
3.00001
3.00001
3.00001
3.00001
3
3
2.99998
2.99995
2.99986
2.99971
2.99918
2.99837
2.99547
2.99076
2.9753
2.94711
2.86484
2.70115
2.26931
1.74756
3.00001
3.00001
3.00001
3.00001
3.00001
3.00001
3.00001
3.00001
3.00001
3
3
2.99999
2.99998
2.99992
2.99984
2.99953
2.99909
2.99738
2.9949
2.98574
2.97108
2.92502
2.82917
2.60733
2.1142
3.00001
3.00001
3.00001
3.00001
3.00001
3.00001
3.00001
3.00001
3.00001
3.00001
3
3
2.99999
2.99996
2.99991
2.99974
2.99949
2.99854
2.99715
2.99206
2.98385
2.9578
2.90239
2.77574
2.44285
3.00001
3.00001
3.00001
3.00001
3.00001
3.00001
3.00001
3.00001
3.00001
3.00001
3.00001
3
3
2.99999
2.99995
2.99989
2.99966
2.99933
2.99812
2.99627
2.98973
2.97891
2.94537
2.87559
2.70853
3.00001
3.00001
3.00001
3.00001
3.00001
3.00001
3.00001
3.00001
3.00001
3.00001
3.00001
3.00001
3
3
2.99997
2.99994
2.99982
2.99964
2.99896
2.99798
2.99434
2.98873
2.96986
2.93523
2.84251
3.00001
3.00001
3.00001
3.00001
3.00001
3.00001
3.00001
3.00001
3.00001
3.00001
3.00001
3.00001
3
3
2.99999
2.99996
2.99992
2.99977
2.99954
2.99871
2.99745
2.99297
2.98562
2.96269
2.9145
3.00001
3.00001
3.00001
3.00001
3.00001
3.00001
3.00001
3.00001
3.00001
3.00001
3.00001
3.00001
3.00001
3
3
2.99999
2.99995
2.9999
2.99971
2.99942
2.99838
2.9968
2.99118
2.98204
2.95333
3.00001
3.00001
3.00001
3.00001
3.00001
3.00001
3.00001
3.00001
3.00001
3.00001
3.00001
3.00001
3.00001
3.00001
3
3
2.99998
2.99995
2.99985
2.9997
2.99914
2.99831
2.99531
2.99063
2.97498
3.00001
3.00001
3.00001
3.00001
3.00001
3.00001
3.00001
3.00001
3.00001
3.00001
3.00001
3.00001
3.00001
3.00001
3.00001
3
3
2.99997
2.99994
2.99982
2.99964
2.999
2.998
2.99455
2.98891
3.00001
3.00001
3.00001
3.00001
3.00001
3.00001
3.00001
3.00001
3.00001
3.00001
3.00001
3.00001
3.00001
3.00001
3.00001
3
3
2.99999
2.99997
2.99993
2.99978
2.99957
2.99879
2.9976
2.99345
3.00001
3.00001
3.00001
3.00001
3.00001
3.00001
3.00001
3.00001
3.00001
3.00001
3.00001
3.00001
3.00001
3.00001
3.00001
3.00001
3
3
2.99999
2.99996
2.99991
2.99974
2.99949
2.99858
2.99719
3.00001
3.00001
3.00001
3.00001
3.00001
3.00001
3.00001
3.00001
3.00001
3.00001
3.00001
3.00001
3.00001
3.00001
3.00001
3.00001
3.00001
3
3
2.99998
2.99996
2.99987
2.99975
2.99928
2.99858
3.00001
3.00001
3.00001
3.00001
3.00001
3.00001
3.00001
3.00001
3.00001
3.00001
3.00001
3.00001
3.00001
3.00001
3.00001
3.00001
3.00001
3.00001
3
3
2.99998
2.99995
2.99986
2.99971
2.9992
3.00001
3.00001
3.00001
3.00001
3.00001
3.00001
3.00001
3.00001
3.00001
3.00001
3.00001
3.00001
3.00001
3.00001
3.00001
3.00001
3.00001
3.00001
3.00001
3
2.99999
2.99998
2.99993
2.99987
2.99961
3.00001
3.00001
3.00001
3.00001
3.00001
3.00001
3.00001
3.00001
3.00001
3.00001
3.00001
3.00001
3.00001
3.00001
3.00001
3.00001
3.00001
3.00001
3.00001
3.00001
3
2.99999
2.99997
2.99994
2.99982
3.00001
3.00001
3.00001
3.00001
3.00001
3.00001
3.00001
3.00001
3.00001
3.00001
3.00001
3.00001
3.00001
3.00001
3.00001
3.00001
3.00001
3.00001
3.00001
3.00001
3
3
2.99999
2.99997
2.99993
3.00001
3.00001
3.00001
3.00001
3.00001
3.00001
3.00001
3.00001
3.00001
3.00001
3.00001
3.00001
3.00001
3.00001
3.00001
3.00001
3.00001
3.00001
3.00001
3.00001
3.00001
3
3
2.99999
2.99995
1.10151
1.2916
1.34779
1.31555
1.24508
1.17128
1.10055
1.06718
1.06343
1.0689
1.07515
1.07914
1.07943
1.07941
1.0795
1.08023
1.08177
1.08368
1.08706
1.09171
1.09683
1.10216
1.1079
1.11429
1.12143
1.12931
1.13779
1.14672
1.15597
1.16543
1.17501
1.18463
1.19421
1.2037
1.21303
1.2222
1.23119
1.23999
1.2486
1.25703
1.26529
1.27343
1.28148
1.28934
1.29695
1.30443
1.31184
1.31918
1.32649
1.33369
1.34039
1.34524
1.3487
1.35071
1.34881
1.33959
1.31381
1.26127
1.17202
1.06004
0.956758
0.880068
0.841065
0.841105
0.863363
0.884741
0.909821
0.936791
0.957476
0.974706
0.991632
1.00823
1.02512
1.043
1.06216
1.08343
1.10455
1.12462
1.1431
1.16111
1.17695
1.19259
1.20703
1.2212
1.2355
1.24965
1.26458
1.27932
1.29446
1.30874
1.32319
1.33657
1.35012
1.36273
1.37521
1.38683
1.39814
1.40795
1.41646
1.4206
1.14151
1.25793
1.32383
1.36702
1.41028
1.44814
1.46391
1.46416
1.45514
1.43831
1.42521
1.41968
1.42184
1.42477
1.42844
1.43155
1.4335
1.43488
1.43632
1.43831
1.44138
1.44506
1.44912
1.45352
1.45821
1.46324
1.46868
1.47456
1.48086
1.48749
1.49439
1.50148
1.50873
1.5161
1.52356
1.53111
1.53873
1.54641
1.55412
1.56183
1.56953
1.57719
1.58481
1.59235
1.59977
1.60704
1.61416
1.62105
1.6276
1.63382
1.63859
1.64123
1.64236
1.64008
1.63236
1.61056
1.56334
1.49351
1.42631
1.37871
1.34152
1.30258
1.25871
1.21689
1.18804
1.1758
1.18047
1.19459
1.21314
1.23912
1.26635
1.2893
1.30777
1.3221
1.33392
1.34321
1.35259
1.36328
1.37618
1.39164
1.40862
1.42597
1.44288
1.45927
1.47459
1.48881
1.50158
1.51335
1.52445
1.53529
1.54606
1.55673
1.56731
1.57783
1.58816
1.59837
1.60829
1.61685
1.62467
1.62698
1.14213
1.24959
1.34659
1.43935
1.52663
1.59502
1.63413
1.64151
1.63948
1.6294
1.61465
1.60143
1.5957
1.59428
1.59588
1.59772
1.60034
1.60289
1.60496
1.60694
1.60902
1.61156
1.6146
1.61787
1.62139
1.62524
1.62944
1.63399
1.63888
1.64408
1.64954
1.65525
1.66117
1.66731
1.67366
1.68023
1.68701
1.694
1.70117
1.70848
1.71589
1.72334
1.73079
1.73817
1.74545
1.7525
1.75935
1.7658
1.77139
1.77568
1.77802
1.77865
1.77511
1.76474
1.73773
1.68122
1.60523
1.54294
1.51873
1.52179
1.52512
1.52274
1.50921
1.48396
1.44951
1.40906
1.37171
1.349
1.34086
1.35206
1.36475
1.38267
1.40793
1.43435
1.458
1.47744
1.49371
1.50734
1.51836
1.52797
1.5382
1.54988
1.56304
1.57689
1.59071
1.60435
1.61756
1.63044
1.64283
1.65488
1.66626
1.67749
1.68816
1.69886
1.70929
1.71935
1.72951
1.73811
1.74598
1.74846
1.1491
1.25827
1.35829
1.45026
1.53265
1.60182
1.65767
1.69829
1.72427
1.7332
1.73359
1.73062
1.72262
1.7156
1.71085
1.71078
1.71203
1.71411
1.71718
1.72053
1.72351
1.72631
1.72909
1.73202
1.73527
1.73884
1.74272
1.74688
1.75129
1.75592
1.76077
1.76585
1.77116
1.77673
1.78256
1.78865
1.795
1.80158
1.80837
1.81536
1.82247
1.82968
1.83692
1.8441
1.85124
1.85793
1.86459
1.8699
1.87348
1.87525
1.87459
1.87017
1.85441
1.8184
1.74823
1.66276
1.5993
1.58212
1.5954
1.61235
1.62889
1.64389
1.65139
1.65069
1.64079
1.62121
1.59235
1.55892
1.51959
1.48885
1.46785
1.4616
1.47399
1.48832
1.50701
1.53293
1.55889
1.58249
1.60253
1.61919
1.6321
1.64254
1.65196
1.6613
1.67149
1.683
1.69548
1.70848
1.72144
1.7346
1.74727
1.75991
1.77207
1.78372
1.79524
1.80578
1.81627
1.82511
1.83304
1.83544
1.14941
1.25636
1.35325
1.44117
1.52268
1.59497
1.66034
1.71502
1.76007
1.79023
1.80679
1.80969
1.8095
1.80637
1.80006
1.79503
1.79148
1.79081
1.79173
1.79296
1.79541
1.7985
1.80165
1.80475
1.80786
1.81108
1.81448
1.81807
1.8219
1.82599
1.83036
1.835
1.83998
1.84521
1.85079
1.85661
1.86274
1.86907
1.87564
1.88236
1.88924
1.89611
1.90313
1.9099
1.91664
1.92285
1.92812
1.93106
1.93239
1.93082
1.92424
1.90389
1.85771
1.77674
1.68629
1.62537
1.6141
1.62979
1.64753
1.66856
1.68963
1.71154
1.72799
1.74037
1.74737
1.74859
1.74309
1.72873
1.70664
1.67912
1.64248
1.60899
1.57601
1.55525
1.54726
1.56001
1.57461
1.59264
1.61696
1.64236
1.66608
1.68596
1.70309
1.71739
1.73003
1.74093
1.75128
1.76172
1.77246
1.78405
1.79625
1.80852
1.82085
1.83285
1.84499
1.85629
1.86799
1.87748
1.88713
1.89025
1.14795
1.24765
1.34143
1.42714
1.50633
1.57865
1.64419
1.70176
1.75208
1.79311
1.8267
1.84881
1.86208
1.86552
1.86549
1.86384
1.85899
1.8556
1.85212
1.85253
1.85309
1.85477
1.85759
1.86144
1.86548
1.8693
1.87289
1.87632
1.87988
1.88361
1.88773
1.89211
1.8969
1.90194
1.90731
1.91292
1.9188
1.92494
1.93125
1.93786
1.94447
1.95135
1.95801
1.96473
1.97074
1.97579
1.97808
1.97882
1.97636
1.96652
1.93937
1.88229
1.78827
1.69427
1.64327
1.63773
1.65216
1.67027
1.68888
1.71153
1.73364
1.75557
1.77526
1.79278
1.80742
1.8193
1.82648
1.82972
1.82847
1.82008
1.80402
1.7829
1.753
1.72252
1.68392
1.65433
1.62953
1.62156
1.63516
1.65014
1.66744
1.69089
1.71616
1.73831
1.75891
1.77448
1.78989
1.802
1.81386
1.82407
1.83437
1.84402
1.85472
1.86523
1.87723
1.8879
1.90027
1.9099
1.92063
1.92459
1.14605
1.23813
1.32598
1.408
1.48492
1.55572
1.62174
1.68106
1.73564
1.78289
1.82444
1.85811
1.88505
1.90205
1.91115
1.91321
1.913
1.91207
1.90885
1.90688
1.90484
1.9057
1.90657
1.90828
1.91106
1.91482
1.91871
1.92242
1.92605
1.92974
1.93363
1.93776
1.94222
1.94703
1.95219
1.95766
1.96347
1.96946
1.97579
1.98207
1.98869
1.99502
2.0015
2.00714
2.01153
2.01336
2.01326
2.00957
1.99571
1.96124
1.89104
1.78661
1.69065
1.65401
1.65144
1.66514
1.68286
1.70223
1.72318
1.74507
1.76661
1.7879
1.80794
1.82715
1.84515
1.86113
1.87568
1.88717
1.89675
1.90165
1.90372
1.90134
1.89259
1.8765
1.85426
1.82963
1.79188
1.76052
1.72337
1.69832
1.68809
1.70167
1.71585
1.73189
1.754
1.7763
1.80065
1.8184
1.83686
1.85014
1.86457
1.8757
1.88775
1.89753
1.90865
1.91804
1.92918
1.93862
1.94952
1.9543
1.14591
1.23034
1.31221
1.38991
1.46332
1.53207
1.59634
1.65583
1.71069
1.76037
1.80523
1.84388
1.87736
1.90388
1.92545
1.93899
1.94726
1.94966
1.9498
1.94936
1.94755
1.9456
1.94419
1.94496
1.94572
1.94745
1.95045
1.95483
1.95959
1.96422
1.96862
1.97297
1.97746
1.98226
1.98737
1.99286
1.99865
2.00476
2.01098
2.01737
2.02357
2.02971
2.03511
2.03831
2.03968
2.03864
2.03316
2.01383
1.9717
1.88601
1.77607
1.68349
1.65933
1.66053
1.67296
1.69055
1.70904
1.73044
1.75059
1.77175
1.79222
1.81246
1.83178
1.85105
1.86964
1.88775
1.90498
1.92034
1.93528
1.94697
1.9586
1.96606
1.97057
1.97236
1.97015
1.96136
1.94572
1.9267
1.89616
1.86851
1.82747
1.79359
1.76343
1.75126
1.76487
1.77785
1.79376
1.81287
1.83683
1.85731
1.88005
1.89526
1.9128
1.92505
1.93966
1.95044
1.96322
1.97232
1.98254
1.98771
1.14799
1.22434
1.30019
1.37332
1.44307
1.50902
1.5712
1.62944
1.68382
1.73416
1.78046
1.82247
1.86019
1.89311
1.92151
1.94429
1.96199
1.97325
1.98
1.98231
1.98275
1.98252
1.98196
1.98106
1.98145
1.98197
1.98329
1.98551
1.98891
1.99326
1.9979
2.0027
2.00749
2.01237
2.01736
2.02256
2.02799
2.03352
2.03917
2.04487
2.05004
2.055
2.05698
2.05755
2.05566
2.04722
2.02327
1.971
1.87056
1.75661
1.67377
1.65752
1.66424
1.67653
1.69291
1.71266
1.73378
1.75486
1.77511
1.79542
1.81527
1.83503
1.85453
1.87374
1.89275
1.91118
1.9292
1.94668
1.96365
1.97943
1.9949
2.00733
2.02064
2.02947
2.03829
2.04249
2.04428
2.04248
2.03537
2.02071
2.00014
1.97776
1.94138
1.90999
1.86635
1.83727
1.82009
1.83142
1.8448
1.85972
1.8786
1.89835
1.92239
1.9411
1.96226
1.97571
1.99248
2.00342
2.01652
2.02213
1.15319
1.22173
1.29148
1.36002
1.4261
1.4892
1.54904
1.60566
1.65892
1.70891
1.75549
1.7987
1.83832
1.87436
1.90641
1.93449
1.95818
1.97757
1.99229
2.00226
2.0082
2.01102
2.01184
2.01207
2.01196
2.01191
2.01215
2.01309
2.01472
2.01735
2.02127
2.02598
2.03104
2.03619
2.04139
2.04644
2.05153
2.05652
2.06154
2.06609
2.06981
2.07123
2.07093
2.06789
2.05669
2.02694
1.9643
1.84987
1.73316
1.66923
1.65777
1.66744
1.68039
1.69682
1.71582
1.73732
1.75842
1.77948
1.79972
1.81991
1.83988
1.85963
1.87919
1.89818
1.91706
1.9352
1.95373
1.97119
1.9891
2.00579
2.02249
2.0382
2.0537
2.06708
2.08161
2.09151
2.10329
2.11069
2.11632
2.11898
2.11877
2.11329
2.10108
2.085
2.05906
2.03445
1.99426
1.95851
1.9188
1.90156
1.90519
1.91747
1.93415
1.94893
1.96876
1.98799
2.01068
2.02613
2.04511
2.0495
1.16066
1.22168
1.28513
1.3487
1.41088
1.47098
1.52854
1.58337
1.63546
1.68467
1.73112
1.77463
1.81533
1.85295
1.88762
1.91899
1.94702
1.97147
1.9921
2.00898
2.02175
2.03054
2.03591
2.03883
2.04003
2.0406
2.04091
2.04145
2.04197
2.04316
2.04515
2.04818
2.0524
2.05717
2.06201
2.06699
2.07184
2.07655
2.08082
2.08332
2.08444
2.08355
2.07872
2.06403
2.02807
1.95388
1.82832
1.71048
1.66319
1.65479
1.66648
1.68174
1.69877
1.71878
1.73986
1.76163
1.78301
1.80398
1.8244
1.84462
1.86458
1.88421
1.90355
1.92232
1.94075
1.95876
1.97644
1.9938
2.0112
2.02778
2.04506
2.06073
2.07755
2.09291
2.10883
2.12363
2.13905
2.1516
2.16568
2.17536
2.18672
2.19261
2.1977
2.19895
2.19614
2.18694
2.17122
2.15306
2.12231
2.09374
2.04622
2.01329
1.98186
1.97803
1.99112
2.00357
2.01884
2.03262
2.05108
2.05847
1.16973
1.2247
1.28175
1.34006
1.398
1.45476
1.50968
1.5625
1.61307
1.66128
1.70711
1.75054
1.7915
1.83002
1.86592
1.89933
1.92984
1.95765
1.98229
2.00375
2.0218
2.03642
2.04771
2.05554
2.06051
2.06326
2.06469
2.06552
2.06583
2.06652
2.06722
2.06862
2.07101
2.07428
2.0784
2.08275
2.08712
2.09118
2.09313
2.09377
2.09243
2.08569
2.06825
2.02552
1.93836
1.80575
1.69207
1.65804
1.65375
1.66582
1.68189
1.70077
1.72218
1.74411
1.76588
1.78778
1.809
1.82987
1.85034
1.87046
1.89044
1.90968
1.92869
1.94668
1.96481
1.98206
1.99971
2.01665
2.03375
2.05043
2.06729
2.08386
2.10119
2.1173
2.13519
2.15088
2.16853
2.18416
2.20096
2.21572
2.23129
2.24357
2.25673
2.26602
2.27496
2.27958
2.28187
2.28038
2.27363
2.2603
2.23974
2.21834
2.18161
2.14717
2.09511
2.07115
2.04398
2.05411
2.06318
2.06778
1.18167
1.23007
1.28125
1.33416
1.38766
1.44085
1.49306
1.54369
1.59264
1.63959
1.68458
1.7275
1.76833
1.80707
1.84361
1.87798
1.91004
1.93978
1.96699
1.99167
2.01355
2.0325
2.04846
2.06122
2.07122
2.07811
2.08283
2.08549
2.08711
2.08811
2.08851
2.0893
2.09016
2.09196
2.09455
2.09762
2.10065
2.10232
2.10227
2.1006
2.09282
2.0707
2.02285
1.91929
1.78302
1.676
1.65168
1.65291
1.66487
1.68174
1.70222
1.72534
1.74847
1.77087
1.79282
1.81415
1.83518
1.85574
1.87613
1.89595
1.91553
1.93412
1.95258
1.97003
1.98768
2.00449
2.0217
2.03826
2.05551
2.07226
2.08968
2.10659
2.12407
2.1411
2.15887
2.17569
2.19394
2.21006
2.22836
2.24392
2.26151
2.27657
2.29295
2.30664
2.32124
2.33194
2.34326
2.35113
2.35665
2.35928
2.35912
2.35435
2.34197
2.32723
2.30132
2.27589
2.23275
2.19073
2.13105
2.13276
1.19873
1.23939
1.28459
1.33218
1.38077
1.42976
1.4786
1.52673
1.57369
1.61929
1.66323
1.70552
1.74596
1.78461
1.82135
1.85623
1.88911
1.92006
1.94886
1.97556
1.9999
2.02192
2.04134
2.05817
2.07233
2.0837
2.09265
2.09889
2.10343
2.10596
2.10764
2.10859
2.10922
2.11
2.11092
2.1117
2.11225
2.11112
2.10804
2.09814
2.07231
2.01711
1.90158
1.761
1.6635
1.64647
1.65286
1.66626
1.68366
1.70473
1.72875
1.75282
1.77618
1.79842
1.8198
1.84052
1.86095
1.88095
1.90093
1.92024
1.93937
1.9574
1.97545
1.99239
2.00988
2.02645
2.04398
2.06067
2.07824
2.09501
2.11271
2.12976
2.14786
2.16505
2.18332
2.20028
2.21844
2.23497
2.25308
2.26901
2.28708
2.30238
2.31994
2.33467
2.35106
2.36479
2.37978
2.39146
2.40417
2.41276
2.42184
2.42721
2.43027
2.43087
2.42795
2.42033
2.40287
2.38512
2.34406
2.33883
1.21624
1.25402
1.29335
1.33463
1.37878
1.42365
1.46858
1.51345
1.55778
1.60127
1.64369
1.68479
1.7245
1.76269
1.7993
1.83431
1.86762
1.89925
1.92906
1.95706
1.98312
2.00718
2.02915
2.04895
2.06642
2.08171
2.09441
2.10489
2.11292
2.11881
2.12309
2.12557
2.12707
2.12742
2.12759
2.12632
2.12493
2.11894
2.10614
2.07524
2.01133
1.88477
1.74239
1.6561
1.6414
1.65131
1.66749
1.68591
1.70774
1.73171
1.75608
1.77957
1.80231
1.82366
1.84432
1.86414
1.88399
1.90346
1.92308
1.94191
1.96071
1.97846
1.9965
2.01354
2.03134
2.04814
2.0659
2.08263
2.10056
2.11758
2.13579
2.15302
2.17125
2.1884
2.20656
2.22339
2.24147
2.2578
2.27577
2.29166
2.30945
2.32489
2.34237
2.35726
2.37417
2.38851
2.40443
2.41802
2.43282
2.44495
2.45861
2.46848
2.47978
2.48682
2.49453
2.4978
2.49954
2.49801
2.48679
2.48964
1.22937
1.26741
1.30388
1.34297
1.38095
1.42178
1.46352
1.50508
1.54647
1.58737
1.6276
1.66698
1.70533
1.74253
1.77852
1.81313
1.84645
1.87817
1.9086
1.93722
1.96448
1.98984
2.01365
2.03554
2.05558
2.07371
2.08959
2.10359
2.11533
2.12459
2.13238
2.13769
2.14083
2.14154
2.14063
2.13894
2.13169
2.11618
2.07939
2.00732
1.87186
1.72877
1.65251
1.63882
1.65092
1.66788
1.68757
1.71021
1.73453
1.75841
1.78183
1.80398
1.8256
1.84596
1.86597
1.88535
1.90507
1.92436
1.94397
1.96273
1.9817
1.99964
2.018
2.03538
2.05352
2.07071
2.08897
2.10624
2.12462
2.14183
2.16017
2.17731
2.19565
2.21261
2.23083
2.24735
2.26541
2.28143
2.2994
2.31489
2.33274
2.34778
2.36532
2.38001
2.39704
2.41135
2.42769
2.44161
2.4571
2.47056
2.4852
2.49779
2.51174
2.52279
2.53585
2.54472
2.55518
2.56139
2.56585
2.57027
1.24251
1.2783
1.31403
1.3492
1.38751
1.42402
1.46202
1.50096
1.53972
1.57814
1.61605
1.65335
1.68994
1.72572
1.76053
1.79435
1.8271
1.8586
1.88892
1.91795
1.9456
1.97185
1.99679
2.01999
2.0418
2.06202
2.0802
2.09676
2.11179
2.1238
2.13533
2.14345
2.14847
2.1485
2.14744
2.14117
2.12324
2.08457
2.00531
1.86322
1.72138
1.65135
1.6395
1.65184
1.67003
1.68977
1.71233
1.73636
1.7604
1.78327
1.80538
1.82629
1.84695
1.86677
1.88683
1.90647
1.92649
1.94599
1.96571
1.98451
2.0036
2.02171
2.04049
2.05833
2.07712
2.09489
2.11366
2.13118
2.14977
2.16707
2.1855
2.20255
2.2207
2.23738
2.25528
2.27156
2.28933
2.30511
2.32279
2.33807
2.35564
2.37049
2.38787
2.4024
2.41938
2.43368
2.45007
2.46414
2.4799
2.49367
2.50881
2.52215
2.53676
2.5494
2.5636
2.57508
2.58885
2.59859
2.61042
2.61579
1.26149
1.292
1.32455
1.35782
1.39233
1.429
1.46445
1.50035
1.53661
1.57292
1.60883
1.64416
1.67895
1.71307
1.74655
1.77923
1.8109
1.84201
1.87158
1.90058
1.9283
1.95464
1.98015
2.00438
2.0267
2.04866
2.06849
2.08649
2.10432
2.11872
2.13207
2.14383
2.14689
2.14634
2.14145
2.12474
2.08529
2.00013
1.85726
1.71577
1.65108
1.64217
1.65565
1.67348
1.69418
1.7171
1.74101
1.764
1.78644
1.80803
1.82912
1.84938
1.86966
1.88956
1.90998
1.93009
1.95052
1.97018
1.98993
2.00871
2.02788
2.04613
2.06519
2.08337
2.10257
2.12069
2.13976
2.15751
2.17615
2.19334
2.21146
2.22813
2.24588
2.26219
2.27972
2.29569
2.31314
2.32872
2.34619
2.36136
2.37888
2.39365
2.41106
2.4255
2.4426
2.45682
2.47341
2.4875
2.50345
2.5174
2.53273
2.54639
2.56122
2.57437
2.58885
2.60125
2.61553
2.62681
2.64027
2.64715
1.28165
1.30574
1.33766
1.36867
1.40003
1.43343
1.46808
1.50227
1.53658
1.5709
1.60491
1.63869
1.67186
1.70467
1.73663
1.76822
1.79896
1.82877
1.8583
1.8862
1.91383
1.94042
1.96542
1.99015
2.01352
2.03482
2.05676
2.07571
2.09368
2.11158
2.1249
2.13511
2.13576
2.13171
2.11576
2.07745
1.98617
1.84756
1.71236
1.64903
1.64265
1.65862
1.6785
1.69981
1.72469
1.74908
1.77201
1.79328
1.81399
1.83442
1.85494
1.87504
1.89524
1.91519
1.93563
1.95577
1.97615
1.99573
2.01535
2.03394
2.05293
2.0711
2.0902
2.10848
2.12776
2.14587
2.16486
2.18244
2.20088
2.21782
2.23573
2.25214
2.26965
2.28571
2.30302
2.31884
2.33615
2.35177
2.36917
2.3845
2.40196
2.41691
2.43432
2.4489
2.46609
2.48038
2.49715
2.51122
2.52741
2.54129
2.55682
2.57038
2.58534
2.5984
2.613
2.6254
2.63987
2.65136
2.66523
2.67249
1.30461
1.32355
1.35192
1.38314
1.41274
1.44171
1.47308
1.50538
1.53785
1.57027
1.60296
1.63531
1.66734
1.69874
1.72992
1.76023
1.79013
1.81933
1.84772
1.87541
1.90247
1.92811
1.95383
1.97781
2.00104
2.02426
2.04452
2.0657
2.08468
2.10091
2.11535
2.11747
2.11376
2.09895
2.06209
1.96881
1.82642
1.69903
1.64439
1.63964
1.65723
1.68134
1.70526
1.73133
1.75668
1.78075
1.80307
1.82353
1.84344
1.86301
1.88286
1.90243
1.92249
1.94224
1.9625
1.98226
2.00232
2.02153
2.04092
2.05934
2.07838
2.09651
2.11563
2.13368
2.15282
2.17067
2.18957
2.20696
2.22534
2.24209
2.25994
2.27616
2.29367
2.30958
2.32697
2.34275
2.36021
2.37588
2.39345
2.4089
2.42654
2.44166
2.45924
2.47395
2.49131
2.50563
2.52259
2.5366
2.55296
2.56669
2.58238
2.59578
2.61086
2.6238
2.63851
2.65086
2.66548
2.67698
2.69106
2.69837
1.33358
1.3424
1.36457
1.39496
1.42496
1.45374
1.48214
1.51138
1.54154
1.57217
1.60267
1.6335
1.66426
1.69465
1.72465
1.75421
1.78324
1.81169
1.83947
1.86692
1.89289
1.9193
1.94365
1.9679
1.99168
2.01317
2.03564
2.05583
2.07379
2.09081
2.094
2.09086
2.0775
2.03907
1.95064
1.79679
1.67425
1.63236
1.63357
1.6512
1.67723
1.70606
1.73299
1.75809
1.78326
1.80747
1.83052
1.85184
1.87218
1.89145
1.91093
1.93034
1.95045
1.97009
1.99023
2.00956
2.02928
2.04804
2.06734
2.08566
2.10479
2.12282
2.14191
2.1597
2.17864
2.19601
2.21457
2.23144
2.24959
2.26605
2.28388
2.29999
2.31763
2.33352
2.3511
2.36689
2.38452
2.40021
2.41794
2.43346
2.45126
2.46648
2.48422
2.49901
2.51652
2.53082
2.54793
2.56176
2.5783
2.59174
2.60763
2.6207
2.63599
2.64868
2.66357
2.67576
2.69051
2.70192
2.71612
2.72337
1.37532
1.37145
1.38398
1.40701
1.4362
1.46419
1.49129
1.51863
1.54654
1.57515
1.60426
1.63323
1.66228
1.69162
1.72038
1.74907
1.77722
1.80482
1.83223
1.85867
1.88495
1.91042
1.93498
1.95966
1.98218
2.00537
2.02642
2.04593
2.06369
2.06795
2.06467
2.05043
2.01268
1.92068
1.76471
1.64429
1.61224
1.62186
1.64177
1.66622
1.6993
1.72879
1.75586
1.78068
1.80521
1.82921
1.85291
1.87534
1.89719
1.91784
1.93864
1.95867
1.9792
1.99894
2.01909
2.03815
2.05766
2.07614
2.09536
2.1135
2.1326
2.15034
2.16916
2.18633
2.20479
2.22148
2.23966
2.25605
2.274
2.29011
2.30785
2.32381
2.3415
2.35739
2.37508
2.39091
2.40864
2.42437
2.44218
2.45774
2.47559
2.49086
2.50864
2.52347
2.54101
2.5553
2.57242
2.58615
2.60275
2.61601
2.63203
2.64492
2.66041
2.67299
2.68811
2.70029
2.71525
2.72677
2.74113
2.74858
1.41547
1.40121
1.40682
1.42395
1.44944
1.47673
1.50275
1.52836
1.55403
1.58018
1.60727
1.63488
1.66255
1.69023
1.71775
1.74556
1.77238
1.79966
1.82585
1.85187
1.87784
1.90215
1.92748
1.95064
1.97431
1.99648
2.01697
2.03492
2.04069
2.03608
2.02077
1.98244
1.87964
1.73153
1.61007
1.5862
1.6019
1.62667
1.65254
1.68504
1.71852
1.74887
1.77644
1.80116
1.82521
1.84882
1.87263
1.8958
1.91883
1.94086
1.96296
1.98405
2.00531
2.02543
2.04583
2.06513
2.08486
2.10349
2.1227
2.14074
2.15951
2.17688
2.19523
2.21199
2.23004
2.24631
2.26407
2.27998
2.2976
2.31343
2.33112
2.34701
2.36476
2.38066
2.39844
2.41433
2.43212
2.44791
2.46571
2.48129
2.49908
2.51433
2.53203
2.54681
2.56428
2.5785
2.5956
2.60922
2.62585
2.63896
2.65509
2.66779
2.68346
2.69585
2.71116
2.72321
2.73834
2.74978
2.76427
2.77169
1.4981
1.44125
1.43367
1.44169
1.46052
1.48705
1.51306
1.53817
1.56323
1.58806
1.61328
1.63871
1.66481
1.691
1.7174
1.74322
1.76967
1.79548
1.82086
1.8467
1.87078
1.89624
1.91949
1.94349
1.96598
1.98682
2.0051
2.01089
2.00558
1.9889
1.94723
1.83792
1.69126
1.57463
1.55712
1.57571
1.60566
1.63624
1.66903
1.70203
1.73461
1.76496
1.79289
1.81842
1.84302
1.86725
1.89154
1.91537
1.93882
1.96136
1.98387
2.00544
2.02732
2.04827
2.06949
2.08953
2.10982
2.12885
2.14826
2.16643
2.18526
2.20276
2.22115
2.23793
2.25581
2.27189
2.28942
2.30516
2.32266
2.33835
2.35595
2.3717
2.38945
2.4053
2.42316
2.43902
2.45687
2.47262
2.49038
2.50588
2.52353
2.53863
2.55615
2.57074
2.58808
2.6021
2.61917
2.63263
2.64935
2.66231
2.67863
2.69119
2.7071
2.71931
2.73488
2.74675
2.76211
2.77341
2.78807
2.79538
1.67436
1.49848
1.46828
1.46631
1.47674
1.49622
1.52167
1.54652
1.57114
1.59577
1.62026
1.64515
1.6697
1.69444
1.71915
1.74372
1.76863
1.79279
1.81822
1.84171
1.86659
1.8898
1.91337
1.93593
1.95664
1.97469
1.97994
1.97352
1.95454
1.90912
1.79385
1.64661
1.53954
1.52609
1.5467
1.57866
1.61596
1.6515
1.68426
1.71578
1.74733
1.77773
1.80643
1.8331
1.85875
1.88376
1.90868
1.93326
1.95737
1.98057
2.00344
2.02558
2.04803
2.06959
2.09138
2.11204
2.13283
2.15244
2.17244
2.19127
2.2106
2.22853
2.24715
2.26413
2.28216
2.29838
2.31604