/*--------------------------------*- C++ -*----------------------------------*\
| =========                 |                                                 |
| \\      /  F ield         | OpenFOAM: The Open Source CFD Toolbox           |
|  \\    /   O peration     | Version:  2412                                  |
|   \\  /    A nd           | Website:  www.openfoam.com                      |
|    \\/     M anipulation  |                                                 |
\*---------------------------------------------------------------------------*/
FoamFile
{
    version     2.0;
    format      ascii;
    arch        "LSB;label=32;scalar=64";
    class       volScalarField;
    location    "1.5";
    object      p;
}
// * * * * * * * * * * * * * * * * * * * * * * * * * * * * * * * * * * * * * //

dimensions      [1 -1 -2 0 0 0 0];

internalField   nonuniform List<scalar> 
5250
(
1
1.00002
1.00005
1.00015
1.00032
1.0009
1.00184
1.00524
1.01045
1.03148
1.05831
1.2025
1.38789
2.3925
4.49542
10.8028
11.469
11.33
11.3281
11.4336
11.6787
11.8856
12.0162
12.1127
12.1843
1
1.00002
1.00005
1.00015
1.00032
1.0009
1.00182
1.00519
1.01034
1.03115
1.05774
1.20036
1.3831
2.37832
4.45161
10.7195
11.4615
11.3218
11.3167
11.4226
11.6684
11.8754
12.007
12.1047
12.1777
1
1.00002
1.00005
1.00015
1.00031
1.00088
1.00179
1.00508
1.01014
1.03047
1.0566
1.19587
1.37336
2.34819
4.35911
10.5335
11.4429
11.299
11.2813
11.3846
11.6267
11.8303
11.9598
12.0563
12.129
1
1.00002
1.00005
1.00014
1.0003
1.00085
1.00173
1.00492
1.00983
1.02944
1.05489
1.18914
1.35891
2.3029
4.22133
10.2432
11.4157
11.2628
11.2208
11.3183
11.5515
11.7489
11.8734
11.9666
12.0394
1
1.00002
1.00005
1.00014
1.00029
1.00081
1.00165
1.00469
1.00939
1.02808
1.05246
1.18059
1.3395
2.24428
4.04511
9.84736
11.3801
11.213
11.1362
11.226
11.4466
11.6348
11.7522
11.841
11.9136
1
1.00002
1.00004
1.00013
1.00027
1.00076
1.00155
1.00441
1.0088
1.02641
1.04903
1.17077
1.31503
2.17222
3.83839
9.33688
11.3382
11.1491
11.0262
11.1059
11.309
11.4835
11.5888
11.6686
11.7402
1
1.00002
1.00004
1.00012
1.00025
1.0007
1.00142
1.00405
1.00802
1.02448
1.04438
1.15951
1.28596
2.08919
3.59436
8.70765
11.2983
11.0746
10.8916
10.9582
11.1364
11.2886
11.3732
11.4345
11.4952
1
1.00002
1.00004
1.00011
1.00022
1.00063
1.00129
1.00367
1.00726
1.02224
1.04009
1.14486
1.25605
1.98772
3.31274
7.95162
11.2667
10.9959
10.7344
10.7845
10.9282
11.0465
11.0947
11.1167
11.145
1
1.00001
1.00003
1.0001
1.0002
1.00057
1.00116
1.00331
1.00664
1.0197
1.03698
1.12637
1.22933
1.85406
3.0044
7.05815
11.2334
10.919
10.5612
10.5874
10.683
10.7477
10.7374
10.6807
10.6003
1
1.00001
1.00003
1.00008
1.00017
1.00049
1.00101
1.00287
1.00579
1.01701
1.03287
1.10704
1.20134
1.71607
2.68626
6.06846
11.1444
10.8278
10.3866
10.3665
10.4009
10.3894
10.2969
10.0666
9.67827
1
1.00001
1.00003
1.00006
1.00016
1.00033
1.00095
1.00186
1.00575
1.01014
1.03672
1.06026
1.23285
1.45629
2.53264
5.02952
10.8358
10.6409
10.2324
10.1152
10.0881
9.99329
9.72774
9.10617
7.52879
1
1.00001
1.00002
1.00006
1.00012
1.00035
1.00071
1.00203
1.00398
1.01234
1.02199
1.07933
1.13625
1.51271
2.15267
4.54205
9.98483
10.2702
10.0739
9.86518
9.76707
9.56892
9.14985
8.3057
6.67113
1
1.00001
1.00002
1.00005
1.0001
1.0003
1.0006
1.00172
1.00341
1.01033
1.01877
1.06653
1.11212
1.43514
1.92172
3.98916
8.74814
9.99335
9.87515
9.62424
9.44278
9.16868
8.657
7.78455
6.45725
1
1.00001
1.00001
1.00004
1.00009
1.00025
1.00051
1.00145
1.00289
1.00859
1.01595
1.05466
1.09268
1.35677
1.73395
3.42021
7.35174
9.8061
9.70276
9.43307
9.15262
8.82002
8.29054
7.48563
6.4156
1
1
1.00001
1.00003
1.00007
1.00021
1.00042
1.00118
1.00239
1.00691
1.01337
1.04304
1.07518
1.27902
1.5669
2.8531
5.84985
9.6072
9.54896
9.29393
8.91703
8.5355
8.02288
7.30425
6.40462
1
1
1.00001
1.00003
1.00006
1.00016
1.00034
1.00095
1.00193
1.00545
1.0109
1.03255
1.06092
1.20485
1.41087
2.33954
4.36837
9.12662
9.35837
9.16293
8.74472
8.3099
7.81432
7.17366
6.39894
1
1
1.00001
1.00002
1.00005
1.00013
1.00026
1.00074
1.0015
1.00424
1.00849
1.02515
1.04705
1.16039
1.29568
2.07227
3.52338
7.91996
9.07561
8.9449
8.60458
8.1315
7.64572
7.0669
6.38631
1
1
1.00001
1.00002
1.00004
1.0001
1.0002
1.00056
1.00115
1.00323
1.00644
1.01918
1.03534
1.12226
1.21788
1.80481
2.84285
6.25654
8.81407
8.74983
8.49483
7.99685
7.51232
6.97891
6.37336
1
1
1
1.00001
1.00003
1.00007
1.00015
1.00042
1.00086
1.00242
1.00489
1.01404
1.02782
1.08476
1.16749
1.5418
2.25441
4.51697
8.41181
8.58548
8.39678
7.95168
7.42138
6.90937
6.36031
1
1
1
1.00001
1.00002
1.00005
1.00013
1.00026
1.00072
1.00147
1.00416
1.00818
1.02499
1.04508
1.15884
1.28955
2.04093
3.42797
7.4109
8.34781
8.2248
7.88763
7.35544
6.85794
6.35393
1
1
1
1.00001
1.00002
1.00003
1.0001
1.00019
1.00054
1.00111
1.00311
1.00628
1.01821
1.03537
1.11281
1.21355
1.73832
2.69769
5.74837
8.05345
8.01814
7.80634
7.34733
6.83715
6.35407
1
1
1
1
1.00001
1.00003
1.00006
1.00015
1.00032
1.00088
1.00179
1.00506
1.01002
1.03021
1.05571
1.18748
1.37031
2.18143
3.77707
7.49567
7.88698
7.73748
7.35912
6.84247
6.35939
1
1
1
1
1.00001
1.00002
1.00005
1.00009
1.00026
1.00052
1.00147
1.00295
1.00862
1.01616
1.05328
1.09372
1.33226
1.69799
3.10204
6.13491
7.64458
7.58999
7.35007
6.86623
6.37657
1
1
1
1
1
1.00001
1.00003
1.00008
1.00015
1.00043
1.00087
1.00246
1.00495
1.01432
1.02775
1.08737
1.16675
1.54964
2.25501
4.40639
7.17425
7.414
7.28925
6.93699
6.41643
1
1
1
1
1
1.00001
1.00002
1.00004
1.00012
1.00025
1.00068
1.00138
1.00389
1.00771
1.0231
1.04223
1.14423
1.26418
1.90529
3.0516
6.15855
7.21074
7.15361
6.9327
6.4767
1
1
1
1
1
1.00001
1.00001
1.00003
1.00008
1.00017
1.00047
1.00095
1.00265
1.00535
1.01525
1.03011
1.09181
1.17776
1.57738
2.29963
4.47332
6.78688
6.98372
6.88003
6.58772
1
1
1
1
1
1
1.00001
1.00002
1.00004
1.00012
1.00025
1.0007
1.00141
1.00395
1.00783
1.02332
1.04274
1.14453
1.26624
1.88937
2.98508
5.89219
6.80281
6.76461
6.58838
1
1
1
1
1
1
1.00001
1.00001
1.00003
1.00007
1.00019
1.00039
1.00107
1.00216
1.0061
1.01201
1.0363
1.06632
1.22242
1.44525
2.34296
4.16759
6.37876
6.64462
6.5552
1
1
1
1
1
1
1
1.00001
1.00002
1.00005
1.0001
1.00029
1.00058
1.00162
1.00328
1.00922
1.01855
1.05329
1.11005
1.31834
1.72507
2.90191
5.4173
6.44274
6.43941
1
1
1
1
1
1
1
1.00001
1.00001
1.00003
1.00006
1.00018
1.00036
1.00099
1.00202
1.00558
1.0112
1.03228
1.06172
1.19366
1.39184
2.15393
3.67735
5.96103
6.32856
1
1
1
1
1
1
1
1
1.00001
1.00002
1.00005
1.00009
1.00025
1.00052
1.00143
1.00289
1.00807
1.01604
1.04691
1.09179
1.27824
1.61387
2.63876
4.85004
6.07519
1
1
1
1
1
1
1
1
1
1.00001
1.00003
1.00006
1.00015
1.00031
1.00085
1.00172
1.00472
1.0095
1.02658
1.05391
1.15278
1.32953
1.8958
3.0368
5.49839
1
1
1
1
1
1
1
1
1
1.00001
1.00001
1.00004
1.00008
1.00021
1.00043
1.00118
1.00239
1.00662
1.01321
1.03812
1.07425
1.22446
1.48075
2.3193
4.11225
1
1
1
1
1
1
1
1
1
1
1.00001
1.00002
1.00005
1.00011
1.00029
1.00059
1.00163
1.00329
1.00911
1.01842
1.05151
1.10779
1.29999
1.67459
2.7035
1
1
1
1
1
1
1
1
1
1
1.00001
1.00001
1.00003
1.00006
1.00017
1.00034
1.00092
1.00188
1.00512
1.01029
1.02902
1.05589
1.16994
1.33806
1.96627
1
1
1
1
1
1
1
1
1
1
1
1.00001
1.00002
1.00003
1.00009
1.00019
1.00052
1.00105
1.00286
1.0057
1.01634
1.03019
1.09809
1.17366
1.5756
1
1
1
1
1
1
1
1
1
1
1
1
1.00001
1.00002
1.00005
1.00012
1.00025
1.00067
1.00137
1.00373
1.00749
1.02107
1.04059
1.12282
1.24045
1
1
1
1
1
1
1
1
1
1
1
1
1
1.00001
1.00003
1.00007
1.00014
1.00037
1.00075
1.00204
1.00411
1.01128
1.02239
1.06403
1.12675
1
1
1
1
1
1
1
1
1
1
1
1
1
1.00001
1.00002
1.00003
1.00008
1.00017
1.00047
1.00095
1.00257
1.00514
1.01447
1.02732
1.08546
1
1
1
1
1
1
1
1
1
1
1
1
1
1
1.00001
1.00002
1.00004
1.00011
1.00022
1.00059
1.00119
1.00323
1.00649
1.01809
1.03478
1
1
1
1
1
1
1
1
1
1
1
1
1
1
1
1.00001
1.00002
1.00006
1.00012
1.00031
1.00063
1.0017
1.00344
1.00935
1.01893
1
1
1
1
1
1
1
1
1
1
1
1
1
1
1
1
1.00001
1.00003
1.00007
1.00014
1.00037
1.00075
1.00201
1.00406
1.01113
1
1
1
1
1
1
1
1
1
1
1
1
1
1
1
1
1.00001
1.00001
1.00003
1.00008
1.00017
1.00044
1.0009
1.00243
1.00487
1
1
1
1
1
1
1
1
1
1
1
1
1
1
1
1
1
1.00001
1.00002
1.00004
1.0001
1.0002
1.00052
1.00106
1.00286
1
1
1
1
1
1
1
1
1
1
1
1
1
1
1
1
1
1
1.00001
1.00002
1.00005
1.0001
1.00027
1.00054
1.00145
1
1
1
1
1
1
1
1
1
1
1
1
1
1
1
1
1
1
1
1.00001
1.00002
1.00006
1.00011
1.0003
1.00061
1
1
1
1
1
1
1
1
1
1
1
1
1
1
1
1
1
1
1
1
1.00001
1.00003
1.00005
1.00015
1.0003
1
1
1
1
1
1
1
1
1
1
1
1
1
1
1
1
1
1
1
1
1
1.00001
1.00003
1.00007
1.00014
1
1
1
1
1
1
1
1
1
1
1
1
1
1
1
1
1
1
1
1
1
1.00001
1.00001
1.00003
1.00008
1
1
1
1
1
1
1
1
1
1
1
1
1
1
1
1
1
1
1
1
1
1
1.00001
1.00002
1.00004
3.06049
1.55536
1.04962
0.941866
0.965539
1.03851
1.19178
1.31442
1.35248
1.35036
1.34319
1.33138
1.3309
1.33184
1.33428
1.33716
1.33702
1.33611
1.33368
1.32859
1.32243
1.31685
1.31177
1.30675
1.30148
1.29586
1.28994
1.28378
1.27743
1.27094
1.2643
1.25754
1.25064
1.24364
1.23652
1.22931
1.222
1.21461
1.20714
1.19956
1.19192
1.18426
1.1765
1.16861
1.16077
1.15292
1.14504
1.13718
1.12947
1.12212
1.11523
1.1124
1.11351
1.11776
1.12919
1.15619
1.21569
1.33843
1.58559
2.05871
2.72239
3.44321
4.01264
4.27318
4.25531
4.20947
4.13585
4.01566
3.94369
3.92969
3.91561
3.88774
3.85348
3.80631
3.74424
3.66122
3.57177
3.49344
3.42074
3.3562
3.30092
3.25236
3.20869
3.16709
3.12409
3.0778
3.02776
2.97508
2.92162
2.86899
2.81856
2.76987
2.72309
2.67818
2.63534
2.59441
2.55591
2.51939
2.49002
2.46412
3.73199
2.32497
1.72349
1.46969
1.3493
1.27198
1.24397
1.24912
1.26515
1.2986
1.33743
1.35308
1.35224
1.34935
1.3431
1.33697
1.33348
1.33194
1.33078
1.32863
1.32483
1.31983
1.31413
1.30811
1.30208
1.29609
1.29008
1.28396
1.27767
1.27118
1.26453
1.25773
1.25081
1.24378
1.23666
1.22945
1.22214
1.21474
1.20727
1.19969
1.19205
1.18436
1.17658
1.16874
1.16087
1.15302
1.14515
1.13733
1.12987
1.12297
1.11723
1.11781
1.12055
1.12836
1.14839
1.1942
1.28971
1.4808
1.77872
2.11753
2.44777
2.76254
3.11445
3.52603
3.91638
4.18401
4.28084
4.25486
4.18073
4.03857
3.88063
3.76168
3.67781
3.63115
3.60483
3.59198
3.57844
3.55436
3.51432
3.453
3.37927
3.30177
3.22681
3.15518
3.08949
3.03112
2.98007
2.93454
2.89221
2.8509
2.80925
2.76759
2.72597
2.68442
2.6432
2.60228
2.56291
2.52343
2.49351
2.46112
4.56894
3.25434
2.43131
1.91042
1.57761
1.36861
1.24656
1.21861
1.22393
1.24039
1.27545
1.31206
1.33489
1.34241
1.34189
1.33994
1.33565
1.33024
1.32645
1.32322
1.31971
1.31568
1.31096
1.30582
1.30033
1.29458
1.28862
1.2825
1.27622
1.2698
1.26326
1.2566
1.24981
1.24292
1.2359
1.22876
1.22151
1.21416
1.20671
1.19917
1.19155
1.18387
1.17611
1.16831
1.16047
1.15266
1.14491
1.13737
1.1308
1.12529
1.12587
1.12882
1.13736
1.15911
1.20945
1.31288
1.51675
1.81032
2.08467
2.23326
2.3425
2.44765
2.57684
2.74842
2.97594
3.2898
3.651
3.95796
4.16399
4.15449
4.11778
4.0482
3.90577
3.75131
3.62285
3.53079
3.46282
3.41391
3.38185
3.36013
3.33337
3.29542
3.24451
3.18717
3.12795
3.06986
3.01397
2.95998
2.90836
2.8594
2.81292
2.76856
2.72566
2.68369
2.64249
2.60149
2.56239
2.52236
2.49309
2.45913
5.02679
3.83765
2.96045
2.34978
1.94085
1.66378
1.4874
1.37492
1.30723
1.27871
1.28009
1.28665
1.3016
1.32336
1.339
1.34371
1.34307
1.34086
1.33598
1.32887
1.32315
1.31782
1.31281
1.30789
1.30263
1.29692
1.29079
1.28438
1.27783
1.2712
1.26452
1.25779
1.25098
1.24406
1.23702
1.22986
1.22258
1.21519
1.2077
1.20012
1.19247
1.18474
1.17696
1.16914
1.16131
1.15359
1.14607
1.13978
1.13536
1.13626
1.14011
1.15167
1.17891
1.24038
1.36393
1.59863
1.92532
2.15681
2.25401
2.29237
2.31114
2.32342
2.34567
2.39044
2.47007
2.58529
2.74714
2.96456
3.26005
3.57771
3.84578
4.02068
4.00252
3.94893
3.87312
3.72416
3.57345
3.44551
3.34523
3.27167
3.22209
3.19051
3.16583
3.14118
3.1111
3.07178
3.02499
2.97428
2.92197
2.86978
2.81871
2.76898
2.7212
2.67549
2.63225
2.59047
2.55196
2.51243
2.4842
2.45084
5.29725
4.25778
3.41571
2.77691
2.31067
1.97012
1.72285
1.54348
1.41796
1.33432
1.28718
1.27548
1.27721
1.28312
1.29592
1.31111
1.32182
1.32639
1.32606
1.32465
1.32134
1.31502
1.30873
1.30274
1.29706
1.29148
1.28584
1.28004
1.27407
1.26794
1.26164
1.25519
1.24857
1.24182
1.23492
1.2279
1.22077
1.21351
1.20615
1.1987
1.19115
1.18352
1.17585
1.16816
1.16057
1.15325
1.14713
1.14449
1.14568
1.15056
1.16517
1.1991
1.27501
1.42636
1.6899
2.04719
2.23656
2.31215
2.33076
2.3238
2.30583
2.27525
2.25291
2.24658
2.25287
2.27302
2.32006
2.40064
2.51415
2.6696
2.88648
3.1566
3.45142
3.70529
3.87452
3.85474
3.7982
3.72243
3.58536
3.44207
3.31226
3.21123
3.1353
3.07661
3.03204
2.99621
2.96503
2.93443
2.90119
2.86291
2.82036
2.77593
2.731
2.6863
2.64271
2.59948
2.55898
2.51751
2.48623
2.45251
5.48247
4.57922
3.79527
3.16017
2.66483
2.28354
1.99328
1.77256
1.60731
1.4847
1.39721
1.33644
1.30287
1.28909
1.28991
1.29342
1.30136
1.31264
1.32166
1.32392
1.32346
1.32175
1.31791
1.3103
1.30233
1.29485
1.28818
1.28213
1.27636
1.27051
1.2644
1.25796
1.25124
1.24432
1.23726
1.2301
1.22286
1.21554
1.20812
1.20061
1.19301
1.18536
1.17769
1.17015
1.16311
1.15708
1.15649
1.15818
1.16511
1.18304
1.22685
1.3196
1.50639
1.82348
2.1713
2.32007
2.37325
2.37938
2.36638
2.33501
2.2946
2.25374
2.21504
2.18357
2.15964
2.1435
2.14405
2.15223
2.17545
2.2249
2.3044
2.41131
2.55942
2.75907
3.01723
3.28705
3.54095
3.70185
3.68057
3.62379
3.55167
3.42265
3.28486
3.15807
3.0604
2.98433
2.92399
2.87502
2.83583
2.8026
2.77281
2.74289
2.71125
2.67596
2.63822
2.59824
2.55926
2.51876
2.48563
2.45249
5.60821
4.82165
4.10533
3.49333
2.99093
2.586
2.26455
2.00931
1.80836
1.65028
1.52714
1.43397
1.36525
1.31827
1.29373
1.28492
1.28546
1.28773
1.29286
1.3003
1.30605
1.30605
1.30548
1.30367
1.29966
1.29249
1.28496
1.27782
1.27148
1.26549
1.25955
1.25351
1.24727
1.2408
1.2341
1.22722
1.22019
1.21306
1.20582
1.19849
1.1911
1.1837
1.17644
1.16988
1.16439
1.16501
1.16781
1.17779
1.19837
1.25579
1.36353
1.58592
1.966
2.26466
2.39402
2.43407
2.43091
2.41121
2.37312
2.33153
2.28615
2.24099
2.19739
2.15625
2.11945
2.08818
2.06304
2.04467
2.03384
2.03637
2.04642
2.06967
2.11721
2.18992
2.29093
2.42461
2.61555
2.85025
3.11436
3.36139
3.52633
3.50565
3.45641
3.38895
3.27874
3.15164
3.03192
2.9326
2.85609
2.7947
2.74442
2.70149
2.66502
2.63224
2.60278
2.57301
2.54314
2.50952
2.47852
2.4507
5.69878
5.00623
4.35413
3.77474
3.27965
2.8658
2.52522
2.24648
2.01982
1.83568
1.68734
1.5688
1.47517
1.40494
1.35136
1.31463
1.29438
1.28476
1.28496
1.28628
1.28947
1.29497
1.2997
1.2997
1.29915
1.29746
1.29368
1.2861
1.27753
1.26928
1.2618
1.25504
1.24872
1.2425
1.23616
1.22956
1.22266
1.21551
1.20817
1.20073
1.19335
1.18616
1.17981
1.1758
1.17665
1.18054
1.19307
1.22177
1.28996
1.42595
1.68428
2.1165
2.35462
2.45937
2.48804
2.48194
2.45788
2.41261
2.36854
2.32189
2.27463
2.22842
2.18385
2.14127
2.10081
2.06295
2.02799
1.9977
1.97122
1.95024
1.9343
1.92505
1.92763
1.937
1.95821
2.00053
2.06786
2.15718
2.28451
2.45167
2.67887
2.92572
3.17171
3.34268
3.32737
3.29208
3.23125
3.13695
3.02423
2.90885
2.81021
2.73228
2.6706
2.61858
2.57391
2.53416
2.50018
2.46947
2.44213
2.4262
5.76331
5.14869
4.55524
4.01174
3.53235
3.11946
2.76956
2.4757
2.23042
2.02628
1.85696
1.71697
1.60188
1.50835
1.43326
1.37524
1.33203
1.30264
1.28639
1.2782
1.2778
1.27835
1.27987
1.28302
1.284
1.28372
1.28271
1.28031
1.27531
1.26822
1.26064
1.25315
1.24601
1.23926
1.23276
1.22634
1.21985
1.21318
1.20633
1.19937
1.19268
1.18635
1.18434
1.18553
1.19118
1.20494
1.24382
1.3223
1.49129
1.79755
2.2454
2.44609
2.52017
2.53809
2.52825
2.50044
2.45433
2.40507
2.35587
2.30728
2.25988
2.21413
2.17021
2.12807
2.08763
2.04869
2.01147
1.97591
1.9426
1.91141
1.88421
1.85998
1.84124
1.82618
1.81702
1.81882
1.82728
1.84466
1.88185
1.94127
2.0237
2.13491
2.29187
2.48966
2.73516
2.97241
3.15513
3.16327
3.13955
3.07978
3.00252
2.90441
2.80053
2.70135
2.62133
2.55631
2.50438
2.45877
2.42133
2.39275
5.81602
5.26168
4.71886
4.21093
3.75163
3.34625
2.99431
2.6921
2.43437
2.21549
2.03011
1.87347
1.74148
1.63085
1.5389
1.46334
1.40248
1.35518
1.31952
1.29486
1.28055
1.27294
1.2711
1.27137
1.2722
1.27396
1.27475
1.27446
1.27333
1.27065
1.26516
1.25794
1.2502
1.24246
1.23496
1.22777
1.22086
1.21412
1.20752
1.2015
1.19599
1.19608
1.19785
1.20483
1.22262
1.2693
1.36406
1.56544
1.93987
2.35245
2.52777
2.58065
2.58603
2.57201
2.5391
2.49248
2.44037
2.38874
2.33849
2.29013
2.24361
2.19891
2.156
2.11462
2.07466
2.03588
1.99832
1.96183
1.92668
1.89277
1.86052
1.82991
1.8014
1.77578
1.75346
1.73541
1.72169
1.71165
1.71259
1.71889
1.73277
1.7632
1.81614
1.88625
1.98744
2.11932
2.30218
2.52073
2.76098
2.94311
3.0047
2.9839
2.92863
2.8694
2.78929
2.69531
2.60388
2.51817
2.45828
2.40325
5.85713
5.35224
4.85363
4.37977
3.94282
3.54919
3.20041
2.89499
2.62965
2.40028
2.20268
2.03276
1.88697
1.76212
1.65563
1.56524
1.48923
1.42628
1.37509
1.33489
1.30465
1.28362
1.27086
1.26408
1.26101
1.26076
1.26088
1.26113
1.26102
1.26044
1.25885
1.25545
1.24929
1.2421
1.23449
1.22687
1.21952
1.21248
1.20637
1.20154
1.20208
1.2052
1.2132
1.23881
1.28868
1.40616
1.63496
2.08296
2.43815
2.59558
2.63907
2.63579
2.6153
2.57535
2.52611
2.47251
2.41927
2.36787
2.31868
2.27156
2.22633
2.18276
2.14076
2.10006
2.06059
2.02213
1.98473
1.94823
1.9128
1.87826
1.84491
1.81251
1.78154
1.7517
1.72368
1.69719
1.67304
1.65173
1.63444
1.62097
1.61096
1.60925
1.61327
1.62452
1.64806
1.69022
1.75169
1.83355
1.94937
2.09973
2.30126
2.51972
2.7127
2.83172
2.81768
2.78114
2.73384
2.66715
2.60721
2.50668
5.8915
5.42575
4.96671
4.52451
4.11021
3.73062
3.38845
3.08369
2.81458
2.57827
2.37163
2.19134
2.03435
1.89786
1.77938
1.67687
1.58851
1.5129
1.44888
1.3956
1.35207
1.31791
1.29183
1.27325
1.26154
1.25501
1.25176
1.25065
1.25065
1.2506
1.25029
1.24932
1.24707
1.24249
1.23624
1.22931
1.22222
1.21573
1.21113
1.21179
1.21614
1.22514
1.25615
1.31523
1.45154
1.71536
2.22194
2.52727
2.6553
2.69125
2.68489
2.66075
2.61323
2.559
2.50312
2.44848
2.39601
2.34597
2.29821
2.25234
2.20821
2.1655
2.1242
2.084
2.04495
2.00678
1.96964
1.93332
1.89801
1.86352
1.83005
1.79737
1.7658
1.73497
1.70541
1.67665
1.64941
1.62316
1.59878
1.57581
1.55557
1.53814
1.5249
1.515
1.50969
1.5121
1.52034
1.5364
1.56791
1.61722
1.68634
1.77765
1.90875
2.06938
2.28077
2.46933
2.6258
2.66377
2.6504
2.62134
5.92702
5.49115
5.0642
4.65055
4.25818
3.89342
3.55976
3.25819
2.98811
2.7477
2.53468
2.3465
2.18059
2.03456
1.90616
1.79347
1.69475
1.60858
1.53372
1.46921
1.41424
1.36824
1.33043
1.30073
1.27781
1.26146
1.25066
1.24429
1.24077
1.2391
1.23874
1.2384
1.23766
1.23606
1.23283
1.22804
1.22336
1.21946
1.2203
1.22431
1.23728
1.26816
1.34313
1.49354
1.79607
2.34386
2.61633
2.71602
2.74168
2.73164
2.70264
2.6509
2.59256
2.53377
2.47718
2.42347
2.37252
2.32395
2.27745
2.23257
2.18924
2.14713
2.10634
2.06651
2.02781
1.98991
1.95306
1.91697
1.88191
1.84762
1.81432
1.78176
1.75021
1.71932
1.68949
1.66025
1.63218
1.60467
1.57846
1.5529
1.52883
1.50571
1.48437
1.46446
1.44734
1.43364
1.42338
1.41581
1.41615
1.42022
1.43097
1.45255
1.4914
1.54498
1.61943
1.72697
1.85191
2.0561
2.21697
2.48386
5.96978
5.55374
5.14951
4.76091
4.38963
4.04015
3.71621
3.41958
3.15049
2.9081
2.69081
2.49676
2.32385
2.17007
2.03345
1.91223
1.80478
1.70972
1.62581
1.55207
1.48762
1.43184
1.38408
1.34396
1.31093
1.28466
1.26445
1.2499
1.23989
1.23383
1.23023
1.2286
1.22782
1.22731
1.22656
1.22536
1.22571
1.22773
1.23293
1.25072
1.28536
1.37284
1.54433
1.89747
2.4664
2.7047
2.7804
2.7928
2.77909
2.74391
2.6883
2.62723
2.56596
2.50707
2.4516
2.39931
2.34979
2.30238
2.25676
2.2125
2.16965
2.12789
2.08741
2.04783
2.00939
1.97171
1.93512
1.89925
1.86446
1.83039
1.79736
1.765
1.73365
1.70291
1.67318
1.64399
1.61584
1.58814
1.56156
1.53537
1.51035
1.48576
1.46241
1.43967
1.41831
1.39787
1.37917
1.36202
1.34791
1.33686
1.32905
1.32508
1.32709
1.33439
1.34785
1.37504
1.41621
1.4817
1.56442
1.73561
6.02248
5.61675
5.23445
4.8624
4.50706
4.17203
3.85849
3.56806
3.30157
3.0589
2.83916
2.64099
2.46277
2.30284
2.15949
2.03115
1.91634
1.81373
1.72216
1.64059
1.56818
1.50418
1.44799
1.39915
1.35717
1.32176
1.29251
1.2691
1.25102
1.23792
1.22848
1.22291
1.21889
1.21895
1.21959
1.22117
1.22561
1.23441
1.25663
1.30119
1.40149
1.60105
2.00529
2.56192
2.78818
2.84808
2.84651
2.82684
2.78637
2.72671
2.66275
2.59921
2.53833
2.48093
2.42716
2.37639
2.32806
2.28143
2.23633
2.19237
2.14974
2.10814
2.06781
2.02836
1.9901
1.95259
1.91622
1.88057
1.84603
1.81216
1.77938
1.74723
1.71611
1.68557
1.65605
1.62703
1.59904
1.57146
1.54494
1.51875
1.49363
1.46879
1.44503
1.42157
1.39918
1.3772
1.35634
1.33611
1.31719
1.2992
1.28294
1.26824
1.25689
1.24814
1.24225
1.24246
1.24595
1.25668
1.27667
1.32499
6.10362
5.68585
5.31099
4.95814
4.61932
4.29398
3.98882
3.70477
3.44188
3.20026
2.97946
2.7786
2.5965
2.43177
2.28301
2.14878
2.02781
1.91878
1.82068
1.73243
1.65325
1.58231
1.51905
1.46289
1.41339
1.37026
1.33298
1.30152
1.27533
1.25447
1.23782
1.22662
1.21726
1.21678
1.21801
1.2225
1.23283
1.25895
1.31098
1.42584
1.65268
2.09907
2.63249
2.85435
2.90736
2.90203
2.87756
2.8276
2.76435
2.69701
2.63151
2.56919
2.51068
2.4557
2.40394
2.35457
2.30712
2.26094
2.21607
2.17219
2.12961
2.08804
2.04777
2.0084
1.97025
1.93287
1.89666
1.86116
1.82681
1.79312
1.76054
1.72857
1.69767
1.66732
1.63801
1.60918
1.58141
1.55401
1.52769
1.50164
1.47668
1.45193
1.42824
1.40474
1.38225
1.36
1.3387
1.31773
1.29772
1.27815
1.25966
1.24176
1.2252
1.20949
1.19557
1.18323
1.17442
1.16738
1.16768
1.17203
6.20589
5.76922
5.39224
5.04777
4.7205
4.40942
4.11169
3.83203
3.57267
3.33288
3.11208
2.90972
2.72488
2.5565
2.40338
2.26431
2.13811
2.02366
1.91991
1.82595
1.74092
1.66404
1.59475
1.53242
1.47654
1.42686
1.38282
1.34437
1.31099
1.28288
1.25898
1.24131
1.22594
1.22623
1.22902
1.24039
1.26219
1.32479
1.44022
1.69278
2.16564
2.68373
2.90069
2.95304
2.94586
2.92095
2.86855
2.79686
2.72545
2.65856
2.59644
2.53813
2.48321
2.43097
2.38109
2.33284
2.286
2.24012
2.1954
2.1516
2.10911
2.0676
2.02742
1.98811
1.95006
1.91277
1.87668
1.8413
1.80709
1.77353
1.74111
1.70929
1.67856
1.64838
1.61927
1.59063
1.56306
1.53587
1.50976
1.48392
1.45917
1.43462
1.41112
1.38779
1.36544
1.34329
1.32205
1.30104
1.28091
1.26105
1.24209
1.22342
1.20578
1.1884
1.17229
1.15652
1.1422
1.1289
1.11732
1.11084
6.31349
5.87779
5.48622
5.14063
4.81939
4.51512
4.22737
3.95405
3.69714
3.45824
3.23785
3.0348
2.84814
2.67702
2.52042
2.37737
2.24673
2.12765
2.01903
1.92008
1.83
1.74798
1.67343
1.60583
1.54449
1.48921
1.4395
1.39496
1.35569
1.32099
1.2916
1.26657
1.25172
1.2534
1.2624
1.2836
1.34643
1.4649
1.72273
2.22672
2.73288
2.93922
2.99202
2.98232
2.95408
2.89582
2.81826
2.7442
2.67758
2.61694
2.56044
2.50664
2.45505
2.40512
2.35675
2.30944
2.26322
2.21777
2.17341
2.12992
2.0877
2.04641
2.00643
1.96729
1.92938
1.89221
1.85624
1.82097
1.78687
1.75344
1.72115
1.68948
1.65891
1.6289
1.59996
1.57151
1.54412
1.51713
1.49122
1.46559
1.44104
1.4167
1.39341
1.37029
1.34816
1.32619
1.30515
1.28429
1.26431
1.24452
1.22562
1.20687
1.18913
1.17137
1.15492
1.13811
1.12317
1.10739
1.09467
1.08205
6.31599
6.02211
5.60304
5.24003
4.91585
4.61569
4.33318
4.06697
3.8149
3.57868
3.35863
3.15487
2.9668
2.79355
2.63413
2.48776
2.35344
2.23029
2.11755
2.01419
1.91969
1.83317
1.75402
1.68176
1.61577
1.55557
1.50101
1.45139
1.40696
1.36697
1.33358
1.30358
1.3012
1.30726
1.32577
1.38877
1.50838
1.77482
2.2899
2.80021
2.99154
3.03746
3.02298
2.98579
2.91128
2.82977
2.75561
2.68963
2.63075
2.57589
2.52359
2.47293
2.42373
2.37564
2.32871
2.28257
2.23733
2.19274
2.14915
2.10635
2.06473
2.02395
1.98439
1.94557
1.90796
1.87102
1.83527
1.80018
1.76627
1.73299
1.70087
1.66934
1.63893
1.60908
1.5803
1.55202
1.5248
1.49799
1.47224
1.44681
1.42245
1.39831
1.37523
1.3523
1.3304
1.30863
1.28782
1.26715
1.24738
1.22777
1.20905
1.19043
1.17283
1.15511
1.13874
1.12178
1.10686
1.09048
1.07781
1.06352
6.27579
6.09785
5.72968
5.34716
5.01605
4.71655
4.43546
4.17219
3.92546
3.69259
3.47406
3.27049
3.0816
2.90656
2.7449
2.59571
2.45826
2.33168
2.21525
2.10813
2.00968
1.91915
1.83598
1.75955
1.68935
1.62501
1.56594
1.5123
1.46308
1.42063
1.38247
1.36778
1.37296
1.39168
1.4557
1.58075
1.86144
2.3951
2.89549
3.07327
3.1023
3.08057
3.02686
2.93134
2.8454
2.76933
2.70181
2.64135
2.5869
2.53444
2.48426
2.43548
2.38806
2.34161
2.2962
2.25144
2.20752
2.16416
2.12174
2.07998
2.03931
1.99932
1.96048
1.92225
1.88516
1.84866
1.8133
1.77854
1.74493
1.7119
1.68002
1.64869
1.6185
1.58881
1.56023
1.53211
1.50507
1.47842
1.45285
1.42758
1.4034
1.37944
1.35654
1.33381
1.31212
1.29054
1.26995
1.24948
1.22995
1.21051
1.19203
1.17358
1.15619
1.13862
1.12244
1.10558
1.09082
1.07443
1.0619
1.04729
6.16641
6.0807
5.85704
5.46623
5.1177
4.81262
4.53556
4.27547
4.0304
3.80051
3.58462
3.38173
3.19244
3.01641
2.85294
2.7015
2.56136
2.43183
2.31217
2.20175
2.09969
2.00569
1.91875
1.83864
1.76472
1.69649
1.63388
1.57623
1.52508
1.47984
1.45435
1.45813
1.48138
1.53356
1.68708
1.97553
2.551
3.02604
3.20274
3.19959
3.16567
3.08919
2.9878
2.89596
2.81384
2.73977
2.67194
2.60926
2.5507
2.49614
2.44608
2.39756
2.3508
2.30516
2.26072
2.217
2.17424
2.13207
2.09088
2.05029
2.01077
1.97181
1.93393
1.89655
1.86025
1.82444
1.78973
1.75551
1.72242
1.68981
1.65833
1.62732
1.59744
1.56801
1.53968
1.51176
1.48494
1.45847
1.43308
1.40799
1.38399
1.3602
1.33749
1.31494
1.29344
1.27205
1.25169
1.23139
1.2121
1.19284
1.1746
1.15633
1.13918
1.12178
1.10583
1.08913
1.07459
1.05833
1.046
1.03141
6.02959
6.00917
5.88413
5.60243
5.23435
4.91435
4.63278
4.37426
4.13202
3.90422
3.69006
3.48925
3.3002
3.12345
2.95857
2.80531
2.66288
2.5308
2.40837
2.2949
2.1898
2.09246
2.00221
1.91875
1.84129
1.76994
1.70403
1.64448
1.59246
1.55899
1.56251
1.58676
1.64332
1.81393
2.13525
2.76972
3.21668
3.3653
3.35491
3.29753
3.18104
3.07369
2.97289
2.88291
2.80188
2.72767
2.65885
2.59428
2.53253
2.47391
2.41856
2.36662
2.31812
2.27131
2.22627
2.18239
2.13986
2.09819
2.05774
2.01801
1.97944
1.94145
1.90456
1.86814
1.8328
1.79786
1.76401
1.73054
1.69817
1.66618
1.63529
1.60478
1.57537
1.54633
1.51836
1.49076
1.46422
1.43801
1.41286
1.38799
1.36419
1.3406
1.31809
1.29573
1.27443
1.25323
1.23308
1.21297
1.1939
1.17483
1.15683
1.13874
1.12183
1.1046
1.08888
1.07235
1.05804
1.04194
1.02983
1.01534
5.66246
5.89676
5.84546
5.68475
5.3566
5.02309
4.73258
4.4728
4.23288
4.00684
3.79319
3.5925
3.4043
3.22761
3.06183
2.90709
2.76272
2.62849
2.50353
2.38742
2.27956
2.17918
2.08607
1.99944
1.91913
1.84489
1.77733
1.71886
1.67888
1.68279
1.70318
1.78906
1.95054
2.32906
3.04192
3.45419
3.56008
3.5428
3.46679
3.31941
3.18525
3.07101
2.97035
2.88053
2.79941
2.72476
2.65525
2.58932
2.52507
2.46383
2.4048
2.34834
2.29515
2.24501
2.19763
2.15206
2.10839
2.06605
2.02532
1.98562
1.94733
1.90981
1.87355
1.83785
1.80332
1.76921
1.73622
1.70358
1.67203
1.6408
1.61064
1.58079
1.55199
1.5235
1.49604
1.46889
1.44276
1.41691
1.39209
1.36752
1.34399
1.32066
1.29839
1.27626
1.2552
1.2342
1.21428
1.19438
1.17554
1.15666
1.1389
1.12099
1.10432
1.08727
1.07179
1.05543
1.04136
1.02542
1.01354
0.999157
4.81296
5.66968
5.739
5.66851
5.48534
5.14784
4.84181
4.57472
4.33287
4.10795
3.89631
3.69591
3.50668
3.3288
3.16268
3.00671
2.861
2.72478
2.59771
2.47928
2.36874
2.26589
2.16994
2.08074
1.99821
1.92287
1.85765
1.81332
1.81778
1.84155
1.93748
2.12255
2.55168
3.34954
3.71941
3.78649
3.75715
3.6558
3.48694
3.33241
3.20048
3.08674
2.98614
2.89486
2.81085
2.73243
2.65864
2.58879
2.52306
2.46042
2.3988
2.33965
2.28288
2.22852
2.1773
2.12892
2.08297
2.03887
1.9968
1.95613
1.91719
1.87933
1.84298
1.80741
1.77319
1.73955
1.70713
1.67514
1.64429
1.61378
1.58434
1.5552
1.52709
1.49924
1.47241
1.44581
1.42022
1.39485
1.37048
1.34632
1.32317
1.30019
1.27825
1.25642
1.23565
1.21492
1.19527
1.1756
1.15703
1.13837
1.12086
1.10314
1.08672
1.06986
1.05463
1.03844
1.02461
1.00883
0.997177
0.982899
3.17692
5.13363
5.60668
5.59762
5.50511
5.29093
4.97195
4.68741
4.43664
4.20823
3.99548
3.7953
3.60674
3.42915
3.2619
3.10498
2.9579
2.81967
2.69093
2.57026
2.45766
2.35236
2.25426
2.16322
2.0804
2.00831
1.9617
1.96722
1.99553
2.10523
2.32079
2.81002
3.68162
4.01922
4.03916
3.99079
3.86071
3.67495
3.50356
3.3571
3.23085
3.11874
3.01683
2.92238
2.83409
2.75093
2.67239
2.59788
2.52733
2.46006
2.39696
2.33637
2.2773
2.22047
2.16606
2.11393
2.06479
2.01834
1.97416
1.93172
1.89135
1.85235
1.81514
1.77898
1.74442
1.71064
1.67828
1.6465
1.616
1.58592
1.55702
1.52843
1.50094
1.4737
1.4475
1.4215
1.39652
1.37171
1.34789
1.32424
1.30158
1.27905
1.25754
1.23611
1.21572
1.19534
1.17604
1.15667
1.13842
1.12001
1.1028
1.08531
1.06916
1.0525
1.03753
1.02151
1.00794
0.992316
0.980913
0.96673
2.19844
3.96409
5.26832
5.49718
5.46782
5.35341
5.10821
4.80836
4.54292
4.30751
4.09268
3.89242
3.70398
3.52645
3.35875
3.20133
3.05307
2.91435
2.78346
2.66099
2.54629
2.43924
2.33965
2.24951
2.17074
2.12376
2.13099
2.16625
2.29415
2.55139
3.12771
4.01926
4.3457
4.33542
4.25408
4.07831
3.88045
3.696
3.53632
3.39724
3.27365
3.16079
3.05598
2.95744
2.86448
2.77647
2.69315
2.61404
2.53903
2.46768
2.40017
2.33588
2.27554
2.21731
2.16091
2.10652
2.05456
2.00485
1.958
1.91344
1.8712
1.83053
1.79191
1.75456
1.71905
1.68452
1.65165
1.61951
1.58886
1.55876
1.53
1.50164
1.47451
1.44766
1.42195
1.39645
1.37201
1.34774
1.32448
1.30136
1.27925
1.25724
1.23624
1.21528
1.19536
1.17541
1.15653
1.13754
1.11967
1.10159
1.08471
1.0675
1.05166
1.03523
1.02054
1.00473
0.991422
0.975966
0.964816
0.950727
1.69694
2.52171
4.49129
5.27923
5.38237
5.3343
5.20214
4.93252
4.65459
4.40984
4.19063
3.98874
3.79996
3.62226
3.45486
3.29685
3.14752
3.00762
2.87561
2.75168
2.63544
2.52747
2.42998
2.34504
2.2996
2.3094
2.35776
2.50255
2.83526
3.53561
4.41636
4.68895
4.6664
4.55119
4.32138
4.10497
3.9097
3.73766
3.58575
3.44917
3.32461
3.20886
3.10023
2.99743
2.89996
2.8074
2.71958
2.63613
2.55695
2.48164
2.41024
2.34229
2.27801
2.21677
2.15926
2.10348
2.04981
1.99798
1.94855
1.9014
1.85704
1.81442
1.77406
1.73513
1.69825
1.66251
1.62864
1.59566
1.56438
1.53378
1.50473
1.47618
1.44903
1.42224
1.39672
1.37147
1.34738
1.32349
1.30068
1.27803
1.25642
1.23491
1.21442
1.19398
1.17456
1.15511
1.1367
1.11817
1.10072
1.08305
1.06657
1.04971
1.03422
1.01809
1.00372
0.988146
0.975132
0.959871
0.948992
0.935018
1.36496
1.78516
2.88393
4.73642
5.23339
5.26161
5.19995
5.05034
4.77807
4.52085
4.29347
4.08805
3.89808
3.71965