/*--------------------------------*- C++ -*----------------------------------*\
| =========                 |                                                 |
| \\      /  F ield         | OpenFOAM: The Open Source CFD Toolbox           |
|  \\    /   O peration     | Version:  2412                                  |
|   \\  /    A nd           | Website:  www.openfoam.com                      |
|    \\/     M anipulation  |                                                 |
\*---------------------------------------------------------------------------*/
FoamFile
{
    version     2.0;
    format      ascii;
    arch        "LSB;label=32;scalar=64";
    class       surfaceScalarField;
    location    "1.5";
    object      phi;
}
// * * * * * * * * * * * * * * * * * * * * * * * * * * * * * * * * * * * * * //

dimensions      [1 0 -1 0 0 0 0];

oriented        oriented;

internalField   nonuniform List<scalar> 
10325
(
0.00840003
3.13733e-11
0.00840003
2.41921e-10
0.00840003
7.4836e-10
0.00840002
2.24857e-09
0.00840002
5.33203e-09
0.00839999
1.4136e-08
0.00839995
3.17512e-08
0.00839981
8.34469e-08
0.00839956
1.81622e-07
0.00839868
5.13357e-07
0.00839731
1.07311e-06
0.00839188
3.45317e-06
0.0083803
8.92307e-06
0.00834046
3.23357e-05
0.00820026
0.000113532
0.00753813
0.000604156
0.00690544
0.000634518
0.00625984
0.000646334
0.00556779
0.000689154
0.00481543
0.000744939
0.00396835
0.0008117
0.00306028
0.000886931
0.00209472
0.000955848
0.00107116
0.00101058
0.0010414
0.00840003
6.39311e-11
0.00840003
4.94276e-10
0.00840003
1.52357e-09
0.00840002
4.57907e-09
0.00840002
1.08316e-08
0.00839999
2.87164e-08
0.00839995
6.4319e-08
0.0083998
1.69362e-07
0.00839955
3.65852e-07
0.00839865
1.04654e-06
0.00839726
2.15112e-06
0.00839168
7.07619e-06
0.00837996
1.79196e-05
0.00833904
6.58265e-05
0.00819956
0.000226619
0.00753797
0.00120702
0.00690174
0.00127282
0.00626242
0.00128655
0.00557078
0.00137797
0.00481561
0.00149282
0.00395614
0.00163593
0.00303815
0.0017839
0.00206683
0.00191725
0.00104447
0.00201973
0.0020559
0.00840003
9.74478e-11
0.00840003
7.52351e-10
0.00840003
2.3252e-09
0.00840002
6.97724e-09
0.00840002
1.65184e-08
0.00839999
4.36948e-08
0.00839995
9.79066e-08
0.0083998
2.57135e-07
0.00839954
5.54919e-07
0.00839864
1.58482e-06
0.00839724
3.23723e-06
0.00839166
1.06667e-05
0.00838023
2.66339e-05
0.00834041
9.80304e-05
0.00821152
0.000329883
0.00757275
0.00178542
0.00693698
0.00191129
0.00630047
0.00192429
0.00560992
0.00206592
0.00485267
0.00224299
0.00398828
0.00246525
0.00306403
0.00268671
0.00208519
0.00288626
0.00105317
0.00303883
0.00307889
0.00840003
1.35694e-10
0.00840003
1.04749e-09
0.00840003
3.23059e-09
0.00840002
9.6984e-09
0.00840001
2.29817e-08
0.00839999
6.07461e-08
0.00839994
1.36404e-07
0.00839978
3.54889e-07
0.00839949
7.7955e-07
0.00839857
2.13013e-06
0.00839697
4.54236e-06
0.00839177
1.3842e-05
0.00838043
3.54243e-05
0.0083438
0.000126763
0.00823418
0.000415067
0.00763819
0.00231829
0.00700607
0.00254694
0.00637046
0.00256128
0.00568204
0.00275177
0.0049266
0.00299138
0.00406437
0.0032919
0.00313658
0.00359377
0.00214593
0.0038678
0.00108942
0.00408143
0.00413819
0.00840003
1.73265e-10
0.00840003
1.34072e-09
0.00840003
4.13762e-09
0.00840002
1.24421e-08
0.00840001
2.95453e-08
0.00839999
7.82389e-08
0.00839993
1.76455e-07
0.00839977
4.56821e-07
0.00839945
1.02409e-06
0.00839852
2.68137e-06
0.00839659
6.03432e-06
0.00839164
1.67673e-05
0.00838045
4.39297e-05
0.00834381
0.000154421
0.00825277
0.00048399
0.00769392
0.00280974
0.00706579
0.00317881
0.00643899
0.00318975
0.00576379
0.00342431
0.00502276
0.00372557
0.00417527
0.00410652
0.00325126
0.00449571
0.00224644
0.00486062
0.00115725
0.00515879
0.00526774
0.00840003
2.11583e-10
0.00840003
1.6359e-09
0.00840003
5.01469e-09
0.00840002
1.51249e-08
0.00840001
3.59494e-08
0.00839999
9.56006e-08
0.00839993
2.16754e-07
0.00839977
5.56792e-07
0.00839943
1.29013e-06
0.00839858
3.14501e-06
0.00839652
7.64196e-06
0.00839167
1.9543e-05
0.00838113
5.17406e-05
0.00834944
0.000177075
0.00825712
0.000555232
0.00775289
0.00324248
0.00712848
0.00380871
0.00651324
0.00380655
0.00586112
0.00407278
0.00514629
0.0044337
0.0043177
0.00489998
0.00340949
0.00538023
0.0024035
0.00585787
0.00125796
0.00629519
0.00649963
0.00840003
2.1798e-10
0.00840003
1.69042e-09
0.00840003
5.19797e-09
0.00840003
1.56767e-08
0.00840002
3.71572e-08
0.00840001
9.88539e-08
0.00839999
2.22671e-07
0.00839989
5.81674e-07
0.00839983
1.29225e-06
0.00839909
3.47057e-06
0.00839879
7.57006e-06
0.0083931
2.30268e-05
0.008387
5.51093e-05
0.00834916
0.00020614
0.00825851
0.000622738
0.00782524
0.00359979
0.00719392
0.00444894
0.00659415
0.00440915
0.00597423
0.0046891
0.00530351
0.00509818
0.00452322
0.00564941
0.0036348
0.00624806
0.00262045
0.00686501
0.00142779
0.00747871
0.00790038
0.00840003
2.19784e-10
0.00840003
1.70175e-09
0.00840003
5.28907e-09
0.00840003
1.5841e-08
0.00840002
3.74662e-08
0.00840001
9.87931e-08
0.00840001
2.20219e-07
0.00839994
5.84992e-07
0.00839996
1.20386e-06
0.00839926
3.78073e-06
0.00839971
6.74452e-06
0.00839378
2.68385e-05
0.00839171
5.42353e-05
0.00834638
0.000243067
0.0082836
0.000667236
0.00801078
0.00378919
0.00735942
0.00511334
0.00675634
0.00501802
0.00616135
0.0052818
0.00553048
0.0057248
0.00479973
0.00635441
0.00395335
0.00707652
0.00295474
0.00786266
0.00169393
0.00873055
0.00956913
0.00840003
2.25962e-10
0.00840003
2.11705e-09
0.00840003
6.39072e-09
0.00840002
1.93665e-08
0.00840001
4.56065e-08
0.00839998
1.21066e-07
0.00839992
2.69992e-07
0.00839975
7.12048e-07
0.00839938
1.50204e-06
0.0083984
4.37584e-06
0.00839722
7.87497e-06
0.00839158
2.99444e-05
0.00838979
5.48593e-05
0.0083713
0.000252743
0.00835023
0.000671734
0.00840182
0.00364985
0.00770436
0.00582625
0.00704794
0.00568495
0.00647332
0.00585547
0.00588022
0.00631382
0.00520187
0.00701239
0.00442575
0.00783841
0.00350141
0.00878082
0.00219338
0.0100357
0.0117416
0.00840003
1.05907e-10
0.00840003
3.10001e-09
0.00840003
4.8141e-09
0.00840002
2.69039e-08
0.00840003
3.59214e-08
0.00839997
1.70062e-07
0.00840001
2.15129e-07
0.00839963
1.03402e-06
0.00839994
1.13497e-06
0.00839743
6.52117e-06
0.00839984
5.17493e-06
0.00838483
4.27063e-05
0.00840559
3.19589e-05
0.00834939
0.000299492
0.00847263
0.000535059
0.00911214
0.00291698
0.00835185
0.00659353
0.00752278
0.00652098
0.00695192
0.00642903
0.0063674
0.00689822
0.00578482
0.00758084
0.00515383
0.00845282
0.0043078
0.00961661
0.00303839
0.0113033
0.0147643
0.00840003
4.2341e-10
0.00840003
8.99761e-10
0.00840003
6.846e-09
0.00840005
9.52071e-09
0.00840003
4.76801e-08
0.00840014
6.0607e-08
0.00840006
2.9006e-07
0.00840074
3.31845e-07
0.0083999
1.87861e-06
0.0084049
1.58648e-06
0.00839607
1.32502e-05
0.0084303
8.48873e-06
0.00837072
8.86524e-05
0.008572
8.95466e-05
0.00848212
0.000616
0.00946619
0.00185895
0.00902604
0.00700613
0.00821451
0.00732915
0.00755116
0.00710002
0.00701517
0.00743893
0.00653186
0.00805599
0.00603544
0.00893601
0.00562806
0.0100138
0.00568815
0.0112418
0.0118393
0.00860531
0.00840003
2.13696e-10
0.00840003
1.24016e-09
0.00840003
4.11538e-09
0.00840003
1.18144e-08
0.00840005
2.91419e-08
0.00840002
7.48091e-08
0.00840013
1.74981e-07
0.00839997
4.39388e-07
0.00840076
1.03457e-06
0.00839944
2.60417e-06
0.00840585
6.51854e-06
0.00839643
1.63589e-05
0.00843719
4.52687e-05
0.00838856
0.000132096
0.00857781
0.00041556
0.00874107
0.00166094
0.00886189
0.00680195
0.0085766
0.00761129
0.0079931
0.00769213
0.00753553
0.00789922
0.00713039
0.00845327
0.00685323
0.00919804
0.00679657
0.010054
0.00728547
0.0107457
0.0107559
0.00837311
0.00840003
1.56259e-10
0.00840003
1.21404e-09
0.00840003
3.74251e-09
0.00840003
1.1296e-08
0.00840003
2.67722e-08
0.00840003
7.13622e-08
0.00840003
1.6045e-07
0.0084
4.24775e-07
0.00840008
9.15732e-07
0.00839982
2.62502e-06
0.00840076
5.27768e-06
0.00839848
1.73726e-05
0.00840509
3.66205e-05
0.00840076
0.000130555
0.0084398
0.000367179
0.00857888
0.00149838
0.00883715
0.00645498
0.0085696
0.00788014
0.00823656
0.00803498
0.00796193
0.00817913
0.00774719
0.00866054
0.0076418
0.00929042
0.00780189
0.00987524
0.00833661
0.0101944
0.0100249
0.00906601
0.00840003
1.50932e-10
0.00840003
1.16887e-09
0.00840003
3.5886e-09
0.00840003
1.08253e-08
0.00840003
2.56336e-08
0.00840003
6.83315e-08
0.00840003
1.53561e-07
0.00840001
4.0504e-07
0.00840001
8.77423e-07
0.00839993
2.49183e-06
0.00840015
4.9017e-06
0.00839972
1.65361e-05
0.008402
3.3309e-05
0.00840456
0.00012236
0.00843847
0.000325189
0.0085908
0.00132373
0.0092079
0.00574058
0.00891075
0.0081854
0.00857912
0.00837805
0.00837311
0.00839482
0.00829382
0.0087371
0.00833654
0.00923742
0.00853566
0.00967005
0.00896397
0.00975924
0.0094565
0.00952843
0.00840003
1.36184e-10
0.00840003
1.05674e-09
0.00840003
3.25407e-09
0.00840003
9.81684e-09
0.00840003
2.32713e-08
0.00840003
6.20123e-08
0.00840004
1.39249e-07
0.00840005
3.65594e-07
0.00840009
8.04835e-07
0.0084002
2.2081e-06
0.00840036
4.52265e-06
0.00840091
1.488e-05
0.00840505
2.80935e-05
0.00841232
0.000109671
0.00844867
0.000281019
0.00863907
0.00111321
0.0101306
0.00415346
0.00959421
0.00872717
0.00918495
0.00879374
0.00886523
0.00872609
0.00879914
0.00880302
0.00891318
0.00911135
0.00913625
0.0094336
0.0094522
0.00943422
0.00904982
0.00985498
0.00840003
1.21526e-10
0.00840003
9.42813e-10
0.00840003
2.89726e-09
0.00840003
8.73981e-09
0.00840003
2.07405e-08
0.00840004
5.51586e-08
0.00840005
1.24509e-07
0.00840007
3.2359e-07
0.00840012
7.21473e-07
0.00840032
1.88545e-06
0.0084005
4.17117e-06
0.00840322
1.14161e-05
0.00840521
2.50972e-05
0.00843703
7.46448e-05
0.00850188
0.000205981
0.00892303
0.000684975
0.0105856
0.00240898
0.0104603
0.0088118
0.0100299
0.00922507
0.00953549
0.00922737
0.00931872
0.00902445
0.00936507
0.00905902
0.00958633
0.009196
0.0098577
0.00914924
0.00876248
0.0101392
0.00840003
1.01668e-10
0.00840003
7.90925e-10
0.00840003
2.43884e-09
0.00840003
7.35472e-09
0.00840003
1.74745e-08
0.00840004
4.63926e-08
0.00840006
1.04847e-07
0.00840009
2.71691e-07
0.00840018
6.07071e-07
0.00840038
1.5742e-06
0.00840094
3.50276e-06
0.00840241
9.3264e-06
0.00840624
2.0539e-05
0.00841664
6.08487e-05
0.00847256
0.000145438
0.00859958
0.000543726
0.00930239
0.00166311
0.0105396
0.00746774
0.0103884
0.00936422
0.0101065
0.00950655
0.00984801
0.00929012
0.00978779
0.00912058
0.00992286
0.0090506
0.0101345
0.0089232
0.00854273
0.0103446
0.00840003
8.17926e-11
0.00840003
6.60073e-10
0.00840003
2.04934e-09
0.00840003
6.10145e-09
0.00840003
1.46231e-08
0.00840004
3.82318e-08
0.00840006
8.71149e-08
0.00840009
2.22121e-07
0.00840018
4.98964e-07
0.00840041
1.28181e-06
0.008401
2.80076e-06
0.00840197
7.80847e-06
0.00840703
1.52597e-05
0.00841034
5.4016e-05
0.00844826
0.000105252
0.00852382
0.000454792
0.00894024
0.00122628
0.0106064
0.00568695
0.0106731
0.00929446
0.0104983
0.00968308
0.0102595
0.00954519
0.010199
0.00919141
0.0102643
0.008993
0.0104071
0.00877852
0.00839897
0.0105455
0.00840003
3.36099e-11
0.00840003
6.7073e-10
0.00840003
1.30458e-09
0.00840003
5.88849e-09
0.00840004
9.59874e-09
0.00840004
3.66508e-08
0.00840006
5.77509e-08
0.00840006
2.13764e-07
0.00840021
3.31895e-07
0.00840019
1.23847e-06
0.00840105
1.86232e-06
0.00840097
7.43164e-06
0.00840576
9.9197e-06
0.00840805
4.85948e-05
0.00844947
6.07588e-05
0.00853655
0.000352414
0.00901449
0.000719177
0.0114389
0.00312627
0.0112961
0.00943316
0.0111893
0.00979736
0.0109032
0.00983684
0.0106539
0.00943887
0.0105944
0.00904909
0.0106455
0.00872141
0.0083168
0.010722
0.00840003
5.94235e-11
0.00840003
3.45641e-10
0.00840003
1.26871e-09
0.00840003
3.30704e-09
0.00840003
8.9842e-09
0.00840005
2.08021e-08
0.00840005
5.31526e-08
0.00840014
1.20181e-07
0.00840014
3.03072e-07
0.00840068
6.82276e-07
0.00840066
1.74828e-06
0.00840412
3.83373e-06
0.00840245
1.079e-05
0.00842815
2.21291e-05
0.00841189
7.2318e-05
0.00859904
0.00016079
0.00867273
0.000626926
0.00991131
0.00184516
0.0114592
0.00781459
0.0114532
0.00979485
0.0112727
0.0100136
0.0110222
0.00968808
0.0109273
0.00914097
0.0109176
0.00872311
0.00829395
0.0109317
0.00840003
7.13355e-11
0.00840003
2.24542e-10
0.00840003
1.23705e-09
0.00840003
2.27744e-09
0.00840003
8.60063e-09
0.00840004
1.45722e-08
0.00840004
5.11706e-08
0.00840007
8.51583e-08
0.00840006
2.95603e-07
0.00840024
4.86895e-07
0.00840019
1.71134e-06
0.00840118
2.74221e-06
0.00840115
1.03058e-05
0.00840788
1.49869e-05
0.00840864
6.85252e-05
0.00846684
9.98532e-05
0.00855956
0.000522959
0.00903285
0.00134809
0.0114565
0.00529447
0.0116815
0.00954469
0.011634
0.0100462
0.0114022
0.00991359
0.0112183
0.00932724
0.0111436
0.00879362
0.00830489
0.0111226
0.00840003
2.45857e-11
0.00840003
2.59238e-10
0.00840003
6.1069e-10
0.00840003
2.34657e-09
0.00840003
4.41458e-09
0.00840003
1.46762e-08
0.00840006
2.64513e-08
0.00840005
8.53074e-08
0.00840019
1.52093e-07
0.00840016
4.89535e-07
0.00840097
8.64942e-07
0.00840071
2.84492e-06
0.00840598
4.84321e-06
0.0084026
1.74842e-05
0.00844225
2.75967e-05
0.00842285
0.000115162
0.00872313
0.000214203
0.00914109
0.000914159
0.011589
0.00278609
0.0122556
0.00883395
0.0122558
0.01004
0.0119895
0.010178
0.0116124
0.0097098
0.0114366
0.00896735
0.00840864
0.0113234
0.00840003
3.10208e-11
0.00840003
1.21698e-10
0.00840003
5.96645e-10
0.00840003
1.199e-09
0.00840003
4.17488e-09
0.00840004
7.59724e-09
0.00840004
2.47325e-08
0.00840008
4.40274e-08
0.00840008
1.41572e-07
0.00840031
2.49755e-07
0.00840031
8.09522e-07
0.00840169
1.40521e-06
0.00840147
4.764e-06
0.00841063
7.86829e-06
0.00840673
3.00308e-05
0.00847036
4.82619e-05
0.00846719
0.000210532
0.00891767
0.000449544
0.00979935
0.00187367
0.0119964
0.00652886
0.0123605
0.00966582
0.0123804
0.0101512
0.0119989
0.0100972
0.0117857
0.00919024
0.00860767
0.0115853
0.00840003
1.15182e-11
0.00840003
1.31389e-10
0.00840003
3.03081e-10
0.00840003
1.18448e-09
0.00840003
2.19947e-09
0.00840003
7.4069e-09
0.00840004
1.32032e-08
0.00840004
4.30594e-08
0.0084001
7.60426e-08
0.00840009
2.4698e-07
0.00840045
4.34558e-07
0.00840033
1.41977e-06
0.0084025
2.49161e-06
0.0084014
8.39329e-06
0.00841665
1.42743e-05
0.00840727
5.42898e-05
0.00852328
9.12243e-05
0.00854932
0.000408711
0.00941867
0.000983633
0.0120938
0.00372833
0.012587
0.00914203
0.0127168
0.0100232
0.0126508
0.0101626
0.012192
0.00965741
0.00888722
0.0119165
0.00840003
1.22188e-11
0.00840003
7.03626e-11
0.00840003
2.6063e-10
0.00840003
6.72982e-10
0.00840003
1.84702e-09
0.00840003
4.24414e-09
0.00840004
1.09696e-08
0.00840005
2.4613e-08
0.00840006
6.27358e-08
0.00840016
1.40048e-07
0.00840021
3.56281e-07
0.0084008
7.94738e-07
0.00840108
2.04815e-06
0.0084048
4.50197e-06
0.00840578
1.24116e-05
0.00843309
2.59889e-05
0.00843752
8.21149e-05
0.00865868
0.000181845
0.00894314
0.000682364
0.010652
0.00197185
0.0125998
0.00711215
0.0128391
0.00977594
0.0128932
0.0101057
0.0125214
0.0100353
0.00916263
0.0122594
0.00840003
1.23047e-11
0.00840003
4.2746e-11
0.00840003
2.18355e-10
0.00840003
4.29028e-10
0.00840003
1.51947e-09
0.00840003
2.73596e-09
0.00840003
9.00599e-09
0.00840004
1.59524e-08
0.00840005
5.16494e-08
0.00840009
9.11066e-08
0.00840014
2.94621e-07
0.00840039
5.1695e-07
0.00840065
1.68903e-06
0.00840211
2.90942e-06
0.00840395
9.98439e-06
0.00841307
1.612e-05
0.00842799
6.385e-05
0.00850364
0.000102327
0.00870676
0.000465207
0.00948983
0.00116509
0.012388
0.00410133
0.0129853
0.00914583
0.0130835
0.0100025
0.0130237
0.0100933
0.00958549
0.0126044
0.00840003
4.2809e-12
0.00840003
4.21996e-11
0.00840003
1.04482e-10
0.00840003
3.83394e-10
0.00840003
7.5294e-10
0.00840003
2.39181e-09
0.00840004
4.49568e-09
0.00840004
1.38202e-08
0.00840006
2.57492e-08
0.00840007
7.85528e-08
0.00840021
1.45943e-07
0.00840025
4.45528e-07
0.00840108
8.24912e-07
0.00840127
2.55087e-06
0.00840644
4.63346e-06
0.00840638
1.52913e-05
0.00844302
2.61917e-05
0.00844005
0.000100455
0.00871519
0.000184119
0.00907983
0.000783151
0.0109181
0.00221551
0.0130645
0.00691538
0.0132828
0.00977162
0.0133521
0.0100147
0.00994279
0.0129955
0.00840003
4.79186e-12
0.00840003
1.9069e-11
0.00840003
9.09389e-11
0.00840003
1.88427e-10
0.00840003
6.36294e-10
0.00840003
1.1956e-09
0.00840003
3.76439e-09
0.00840004
6.93516e-09
0.00840004
2.14785e-08
0.00840008
3.93762e-08
0.00840009
1.21575e-07
0.00840031
2.22043e-07
0.0084004
6.88069e-07
0.00840164
1.25144e-06
0.0084021
3.93535e-06
0.00840995
7.09312e-06
0.00841096
2.36205e-05
0.00846801
4.18948e-05
0.008488
0.000156579
0.00892422
0.000336441
0.00982002
0.00128944
0.0125596
0.00405708
0.0134462
0.00884824
0.0136433
0.00981513
0.0101306
0.0134544
0.00840003
2.23624e-12
0.00840003
1.60062e-11
0.00840003
4.95691e-11
0.00840003
1.494e-10
0.00840003
3.53878e-10
0.00840003
9.38371e-10
0.00840003
2.10773e-09
0.00840003
5.4357e-09
0.00840004
1.20594e-08
0.00840005
3.09281e-08
0.0084001
6.83302e-08
0.00840013
1.75417e-07
0.00840042
3.86421e-07
0.0084006
9.97534e-07
0.00840224
2.19587e-06
0.00840324
5.72833e-06
0.0084133
1.2781e-05
0.00841973
3.37154e-05
0.00849014
8.10046e-05
0.00858995
0.000227809
0.00921257
0.00065988
0.0109812
0.00226089
0.0132761
0.00645995
0.0135602
0.00951526
0.00979057
0.0138906
0.00840003
9.17097e-13
0.00840003
1.20514e-11
0.00840003
2.81911e-11
0.00840003
1.07686e-10
0.00840003
2.04896e-10
0.00840003
6.67893e-10
0.00840003
1.22369e-09
0.00840003
3.84454e-09
0.00840004
6.99844e-09
0.00840004
2.17605e-08
0.00840007
3.95939e-08
0.00840012
1.22682e-07
0.00840027
2.22976e-07
0.00840053
6.91902e-07
0.00840141
1.25167e-06
0.00840293
3.93381e-06
0.00840833
7.00603e-06
0.00841723
2.33043e-05
0.00845554
4.00854e-05
0.00852735
0.000149246
0.00886683
0.000308743
0.00992138
0.00117437
0.0127931
0.00347046
0.0138341
0.00843676
0.00968336
0.0139351
0.00840003
1.02646e-12
0.00840003
5.90029e-12
0.00840003
2.18661e-11
0.00840003
5.63507e-11
0.00840003
1.54702e-10
0.00840003
3.54135e-10
0.00840003
9.16036e-10
0.00840003
2.04421e-09
0.00840003
5.21861e-09
0.00840004
1.15741e-08
0.00840005
2.94689e-08
0.00840011
6.5188e-08
0.00840015
1.66051e-07
0.00840046
3.66285e-07
0.00840071
9.36609e-07
0.0084025
2.05943e-06
0.00840379
5.33941e-06
0.00841488
1.17038e-05
0.00842096
3.16902e-05
0.00849795
7.00964e-05
0.00858278
0.000211798
0.00919816
0.00056571
0.0105788
0.00203564
0.0134433
0.00549937
0.00914472
0.0139603
0.00840003
8.48651e-13
0.00840003
3.21174e-12
0.00840003
1.53508e-11
0.00840003
3.19526e-11
0.00840003
1.06567e-10
0.00840003
2.02061e-10
0.00840003
6.25445e-10
0.00840003
1.16454e-09
0.00840003
3.5369e-09
0.00840004
6.56574e-09
0.00840005
1.98174e-08
0.00840007
3.67704e-08
0.00840012
1.10714e-07
0.00840027
2.05042e-07
0.00840055
6.18297e-07
0.00840142
1.13956e-06
0.0084031
3.47122e-06
0.00840812
6.32851e-06
0.00841898
1.98868e-05
0.00844996
3.66782e-05
0.00853719
0.000120401
0.00882352
0.000265151
0.00992196
0.000924541
0.0126323
0.00269449
0.00756842
0.014171
0.00840003
2.82255e-13
0.00840003
2.73691e-12
0.00840003
6.99073e-12
0.00840003
2.48659e-11
0.00840003
5.02424e-11
0.00840003
1.54281e-10
0.00840003
2.97897e-10
0.00840003
8.83696e-10
0.00840003
1.69042e-09
0.00840003
4.9688e-09
0.00840004
9.48756e-09
0.00840005
2.78092e-08
0.00840011
5.30452e-08
0.00840014
1.55456e-07
0.00840045
2.95754e-07
0.00840067
8.69587e-07
0.00840242
1.64718e-06
0.00840355
4.90219e-06
0.00841383
9.20792e-06
0.00842014
2.85258e-05
0.0084853
5.40814e-05
0.00856036
0.000180026
0.00905231
0.000425517
0.0102478
0.00145698
0.00441606
0.0132885
0.00840003
2.27266e-13
0.00840003
1.34142e-12
0.00840003
4.93365e-12
0.00840003
1.27608e-11
0.00840003
3.48597e-11
0.00840003
7.99555e-11
0.00840003
2.05624e-10
0.00840003
4.59351e-10
0.00840003
1.16451e-09
0.00840003
2.5846e-09
0.00840004
6.52894e-09
0.00840005
1.44587e-08
0.00840006
3.65043e-08
0.00840013
8.06984e-08
0.00840021
2.04027e-07
0.00840061
4.50146e-07
0.00840103
1.14357e-06
0.00840331
2.51973e-06
0.00840563
6.46011e-06
0.00841907
1.44591e-05
0.00843357
3.73072e-05
0.00852032
8.95912e-05
0.00869255
0.000242702
0.0094364
0.000701833
0.00223105
0.0115762
0.00840003
1.47255e-13
0.00840003
7.97874e-13
0.00840003
2.96252e-12
0.00840003
7.64292e-12
0.00840003
2.08189e-11
0.00840003
4.78512e-11
0.00840003
1.22298e-10
0.00840003
2.73976e-10
0.00840003
6.89509e-10
0.00840003
1.53489e-09
0.00840003
3.84653e-09
0.00840004
8.54512e-09
0.00840005
2.1388e-08
0.00840008
4.7453e-08
0.00840016
1.18793e-07
0.00840033
2.63207e-07
0.00840076
6.60143e-07
0.00840175
1.46078e-06
0.00840422
3.68205e-06
0.00841017
8.16479e-06
0.00842478
2.09206e-05
0.00846563
4.70487e-05
0.00857111
0.000127963
0.00893701
0.000326806
0.00106884
0.0100602
0.00840003
1.05188e-13
0.00840003
4.11174e-13
0.00840003
1.90431e-12
0.00840003
4.08758e-12
0.00840003
1.32178e-11
0.00840003
2.57755e-11
0.00840003
7.72664e-11
0.00840003
1.47775e-10
0.00840003
4.34322e-10
0.00840003
8.27671e-10
0.00840003
2.41623e-09
0.00840004
4.60418e-09
0.00840004
1.33899e-08
0.00840006
2.55224e-08
0.0084001
7.40176e-08
0.00840022
1.4091e-07
0.00840045
4.08547e-07
0.0084011
7.74146e-07
0.00840235
2.26719e-06
0.00840607
4.21098e-06
0.0084129
1.30588e-05
0.00843633
2.26133e-05
0.00847804
8.13954e-05
0.00865422
0.00014361
0.000574985
0.0091315
0.00840003
4.0884e-14
0.00840003
2.88427e-13
0.00840003
9.07491e-13
0.00840003
2.69613e-12
0.00840003
6.44301e-12
0.00840003
1.67825e-11
0.00840003
3.79168e-11
0.00840003
9.57837e-11
0.00840003
2.13569e-10
0.00840003
5.3515e-10
0.00840003
1.18912e-09
0.00840003
2.97134e-09
0.00840004
6.59391e-09
0.00840005
1.64537e-08
0.00840008
3.64713e-08
0.00840013
9.09635e-08
0.00840032
2.01265e-07
0.00840055
5.02691e-07
0.00840166
1.11044e-06
0.00840285
2.79073e-06
0.00840942
6.17345e-06
0.00841496
1.58984e-05
0.0084593
3.51162e-05
0.00849986
9.76229e-05
0.000230634
0.00883295
0.00840003
1.69489e-14
0.00840003
1.85706e-13
0.00840003
4.71208e-13
0.00840003
1.66844e-12
0.00840003
3.38784e-12
0.00840003
1.02754e-11
0.00840003
1.99843e-11
0.00840003
5.83844e-11
0.00840003
1.12524e-10
0.00840003
3.25185e-10
0.00840003
6.25764e-10
0.00840003
1.80031e-09
0.00840004
3.46486e-09
0.00840004
9.93891e-09
0.00840006
1.91326e-08
0.00840009
5.47616e-08
0.00840018
1.05348e-07
0.00840036
3.01393e-07
0.00840086
5.78366e-07
0.00840186
1.66188e-06
0.00840471
3.1681e-06
0.00841058
9.29968e-06
0.00842743
1.73217e-05
0.00846626
5.44805e-05
0.000104371
0.0085881
0.00840003
1.66146e-14
0.00840003
7.5372e-14
0.00840003
3.25744e-13
0.00840003
7.3422e-13
0.00840003
2.27354e-12
0.00840003
4.60463e-12
0.00840003
1.32842e-11
0.00840003
2.63029e-11
0.00840003
7.45082e-11
0.00840003
1.46789e-10
0.00840003
4.13472e-10
0.00840003
8.13754e-10
0.00840003
2.28642e-09
0.00840004
4.49916e-09
0.00840004
1.26196e-08
0.00840007
2.48273e-08
0.0084001
6.95503e-08
0.00840026
1.36701e-07
0.00840042
3.82963e-07
0.00840129
7.50965e-07
0.00840218
2.11455e-06
0.00840713
4.11807e-06
0.00841144
1.19692e-05
0.0084427
2.25437e-05
7.27655e-05
0.00846835
0.00840003
6.85514e-15
0.00840003
4.87296e-14
0.00840003
1.52882e-13
0.00840003
4.54391e-13
0.00840003
1.08384e-12
0.00840003
2.82109e-12
0.00840003
6.36164e-12
0.00840003
1.6042e-11
0.00840003
3.56996e-11
0.00840003
8.92483e-11
0.00840003
1.97973e-10
0.00840003
4.93449e-10
0.00840003
1.09379e-09
0.00840003
2.72185e-09
0.00840004
6.03273e-09
0.00840005
1.49931e-08
0.00840008
3.32289e-08
0.00840013
8.25112e-08
0.00840032
1.82804e-07
0.00840056
4.54035e-07
0.00840161
1.00568e-06
0.00840297
2.51049e-06
0.00840908
5.55445e-06
0.00841625
1.42598e-05
3.10473e-05
0.00845568
0.00840003
2.77309e-15
0.00840003
2.97851e-14
0.00840003
7.74042e-14
0.00840003
2.69488e-13
0.00840003
5.5619e-13
0.00840003
1.65856e-12
0.00840003
3.2741e-12
0.00840003
9.40307e-12
0.00840003
1.83836e-11
0.00840003
5.22409e-11
0.00840003
1.01952e-10
0.00840003
2.88606e-10
0.00840003
5.633e-10
0.00840003
1.59112e-09
0.00840003
3.10731e-09
0.00840004
8.7616e-09
0.00840005
1.71174e-08
0.00840008
4.82006e-08
0.00840017
9.41209e-08
0.00840033
2.65032e-07
0.00840079
5.16335e-07
0.00840172
1.45896e-06
0.00840427
2.82913e-06
0.00840986
8.07982e-06
1.56612e-05
0.00842421
0.00840003
2.59637e-15
0.00840003
1.21216e-14
0.00840003
5.10657e-14
0.00840003
1.1725e-13
0.00840003
3.56293e-13
0.00840003
7.33672e-13
0.00840003
2.07715e-12
0.00840003
4.1772e-12
0.00840003
1.1608e-11
0.00840003
2.32253e-11
0.00840003
6.41532e-11
0.00840003
1.28248e-10
0.00840003
3.53223e-10
0.00840003
7.06296e-10
0.00840003
1.94098e-09
0.00840004
3.88315e-09
0.00840004
1.06485e-08
0.00840007
2.13131e-08
0.0084001
5.83314e-08
0.00840024
1.16751e-07
0.0084004
3.19237e-07
0.00840118
6.38521e-07
0.00840207
1.75086e-06
0.00840642
3.49058e-06
9.75429e-06
0.00841128
0.00840003
7.77752e-16
0.00840003
8.21768e-15
0.00840003
2.17545e-14
0.00840003
7.34475e-14
0.00840003
1.55739e-13
0.00840003
4.52257e-13
0.00840003
9.13161e-13
0.00840003
2.55955e-12
0.00840003
5.11183e-12
0.00840003
1.41786e-11
0.00840003
2.82467e-11
0.00840003
7.80552e-11
0.00840003
1.5543e-10
0.00840003
4.28657e-10
0.00840003
8.53574e-10
0.00840003
2.3505e-09
0.00840004
4.68063e-09
0.00840005
1.28718e-08
0.00840008
2.56273e-08
0.00840011
7.04045e-08
0.00840028
1.40061e-07
0.00840049
3.84865e-07
0.00840142
7.64322e-07
0.00840257
2.10972e-06
4.16652e-06
0.00840785
0.00840003
6.37267e-16
0.00840003
3.27749e-15
0.00840003
1.26256e-14
0.00840003
3.32093e-14
0.00840003
8.95552e-14
0.00840003
2.07305e-13
0.00840003
5.2402e-13
0.00840003
1.17639e-12
0.00840003
2.92198e-12
0.00840003
6.51262e-12
0.00840003
1.60935e-11
0.00840003
3.58026e-11
0.00840003
8.82721e-11
0.00840003
1.96286e-10
0.00840003
4.83195e-10
0.00840003
1.07447e-09
0.00840003
2.64125e-09
0.00840004
5.87433e-09
0.00840005
1.44198e-08
0.00840009
3.20756e-08
0.00840014
7.86393e-08
0.00840033
1.74898e-07
0.00840061
4.28671e-07
0.00840169
9.53262e-07
2.3487e-06
0.00840319
0.00840003
3.02167e-16
0.00840003
1.51921e-15
0.00840003
6.97798e-15
0.00840003
1.57301e-14
0.00840003
4.91331e-14
0.00840003
1.00018e-13
0.00840003
2.85182e-13
0.00840003
5.69238e-13
0.00840003
1.58816e-12
0.00840003
3.15438e-12
0.00840003
8.74063e-12
0.00840003
1.73416e-11
0.00840003
4.79352e-11
0.00840003
9.5095e-11
0.00840003
2.62526e-10
0.00840003
5.20919e-10
0.00840003
1.43671e-09
0.00840003
2.85158e-09
0.00840004
7.85806e-09
0.00840006
1.55968e-08
0.00840009
4.29581e-08
0.00840017
8.51943e-08
0.00840033
2.34818e-07
0.00840078
4.64656e-07
1.2851e-06
0.00840169
0.00840003
1.78622e-16
0.00840003
9.61931e-16
0.00840003
3.04173e-15
0.00840003
9.41554e-15
0.00840003
2.17818e-14
0.00840003
5.62621e-14
0.00840003
1.2741e-13
0.00840003
3.16149e-13
0.00840003
7.09563e-13
0.00840003
1.74614e-12
0.00840003
3.90708e-12
0.00840003
9.58441e-12
0.00840003
2.14201e-11
0.00840003
5.24931e-11
0.00840003
1.17275e-10
0.00840003
2.87236e-10
0.00840003
6.41637e-10
0.00840003
1.57072e-09
0.00840004
3.50839e-09
0.00840004
8.58435e-09
0.00840006
1.91688e-08
0.0084001
4.68919e-08
0.00840022
1.04638e-07
0.00840039
2.56129e-07
5.71026e-07
0.00840106
0.00840003
2.19009e-17
0.00840003
4.25197e-16
0.00840003
1.37027e-15
0.00840003
4.19429e-15
0.00840003
1.05206e-14
0.00840003
2.74009e-14
0.00840003
6.23829e-14
0.00840003
1.57223e-13
0.00840003
3.49159e-13
0.00840003
8.68975e-13
0.00840003
1.91923e-12
0.00840003
4.76276e-12
0.00840003
1.05077e-11
0.00840003
2.60384e-11
0.00840003
5.74204e-11
0.00840003
1.42163e-10
0.00840003
3.13416e-10
0.00840003
7.75317e-10
0.00840003
1.70887e-09
0.00840004
4.2234e-09
0.00840005
9.30523e-09
0.00840007
2.29744e-08
0.00840012
5.05802e-08
0.00840023
1.24785e-07
2.74336e-07
0.0084005
0.00840003
3.47758e-17
0.00840003
1.77403e-16
0.00840003
5.93004e-16
0.00840003
2.17808e-15
0.00840003
4.63125e-15
0.00840003
1.39307e-14
0.00840003
2.80022e-14
0.00840003
7.87639e-14
0.00840003
1.57066e-13
0.00840003
4.34284e-13
0.00840003
8.63918e-13
0.00840003
2.3758e-12
0.00840003
4.72456e-12
0.00840003
1.29567e-11
0.00840003
2.57853e-11
0.00840003
7.05328e-11
0.00840003
1.4052e-10
0.00840003
3.83384e-10
0.00840003
7.64681e-10
0.00840003
2.08057e-09
0.00840004
4.15452e-09
0.00840005
1.12714e-08
0.00840007
2.25258e-08
0.00840013
6.09528e-08
1.21807e-07
0.00840027
0.00840003
7.63007e-17
0.00840003
2.61997e-16
0.00840003
5.82406e-16
0.00840003
8.87311e-16
0.00840003
2.63149e-15
0.00840003
4.5633e-15
0.00840003
1.36865e-14
0.00840003
2.58114e-14
0.00840003
7.44485e-14
0.00840003
1.4125e-13
0.00840003
4.05587e-13
0.00840003
7.70733e-13
0.00840003
2.20793e-12
0.00840003
4.20394e-12
0.00840003
1.20102e-11
0.00840003
2.29041e-11
0.00840003
6.5239e-11
0.00840003
1.24589e-10
0.00840003
3.53788e-10
0.00840003
6.76541e-10
0.00840003
1.91507e-09
0.00840004
3.66614e-09
0.00840005
1.03445e-08
0.00840009
1.98142e-08
5.57455e-08
0.00840014
0.00840003
0.00840003
0.00840003
0.00840003
0.00840003
0.00840003
0.00840003
0.00840003
0.00840003
0.00840003
0.00840003
0.00840003
0.00840003
0.00840003
0.00840003
0.00840003
0.00840003
0.00840003
0.00840003
0.00840003
0.00840003
0.00840004
0.00840005
0.00840006
0.00840011
0.00456155
0.00404797
0.00297717
0.00158956
0.00231119
0.00067022
0.00204971
0.000264208
0.00203201
1.98521e-05
0.00219
-0.000157164
0.00238044
-0.000191947
0.00249842
-0.000120342
0.00254521
-4.98968e-05
0.00254793
-6.27955e-06
0.00252589
1.76836e-05
0.0025109
9.8679e-06
0.00250596
-1.36476e-06
0.0025097
-1.01646e-05
0.00251768
-1.45412e-05
0.00252421
-1.40454e-05
0.00252816
-1.22011e-05
0.00252985
-9.49683e-06
0.00252988
-7.16472e-06
0.00252915
-6.59829e-06
0.00253001
-7.62676e-06
0.00253328
-9.23208e-06
0.00253891
-1.05956e-05
0.00254655
-1.14405e-05
0.00255587
-1.19046e-05
0.0025665
-1.21809e-05
0.002578
-1.23922e-05
0.00258996
-1.25781e-05
0.002602
-1.27285e-05
0.0026138
-1.28227e-05
0.00262509
-1.28512e-05
0.0026356
-1.28173e-05
0.0026451
-1.27315e-05
0.00265343
-1.26056e-05
0.00266052
-1.24484e-05
0.00266635
-1.22667e-05
0.00267094
-1.20666e-05
0.00267436
-1.18512e-05
0.00267661
-1.16281e-05
0.00267774
-1.14107e-05
0.00267801
-1.11875e-05
0.00267757
-1.09666e-05
0.00267615
-1.07957e-05
0.0026736
-1.06669e-05
0.00267021
-1.05132e-05
0.00266621
-1.039e-05
0.00266178
-1.02989e-05
0.00265727
-1.02898e-05
0.00265308
-1.0515e-05
0.00264931
-1.11413e-05
0.00264769
-1.2909e-05
0.00264497
-1.76334e-05
0.00264722
-2.31595e-05
0.00265617
-3.24189e-05
0.00267574
-5.11499e-05
0.00272278