/*--------------------------------*- C++ -*----------------------------------*\
| =========                 |                                                 |
| \\      /  F ield         | OpenFOAM: The Open Source CFD Toolbox           |
|  \\    /   O peration     | Version:  2412                                  |
|   \\  /    A nd           | Website:  www.openfoam.com                      |
|    \\/     M anipulation  |                                                 |
\*---------------------------------------------------------------------------*/
FoamFile
{
    version     2.0;
    format      ascii;
    arch        "LSB;label=32;scalar=64";
    class       volScalarField;
    location    "1.5";
    object      T;
}
// * * * * * * * * * * * * * * * * * * * * * * * * * * * * * * * * * * * * * //

dimensions      [0 0 0 1 0 0 0];

internalField   nonuniform List<scalar> 
5250
(
1.00001
1.00001
1.00004
1.00007
1.00022
1.0004
1.00125
1.0023
1.00695
1.01415
1.03754
1.09739
1.22989
1.65342
2.53909
2.73363
2.73969
2.73825
2.74333
2.75333
2.78048
2.80935
2.82167
2.82752
2.90178
1
1.00001
1.00004
1.00007
1.00022
1.00039
1.00124
1.00228
1.00689
1.014
1.03719
1.09632
1.22726
1.64754
2.53213
2.73062
2.73911
2.73756
2.74244
2.75238
2.77942
2.80787
2.81984
2.82529
2.89937
1
1.00001
1.00004
1.00007
1.00021
1.00038
1.00122
1.00223
1.00676
1.01368
1.03647
1.09406
1.22185
1.63478
2.51627
2.7231
2.73705
2.73537
2.73965
2.74968
2.77657
2.80519
2.8169
2.82187
2.89561
1
1.00001
1.00003
1.00006
1.00021
1.00037
1.00118
1.00216
1.00657
1.01321
1.03539
1.09066
1.21381
1.61533
2.48987
2.71143
2.73369
2.7316
2.73456
2.74446
2.771
2.79951
2.81096
2.81573
2.88988
1
1.00001
1.00003
1.00006
1.0002
1.00035
1.00113
1.00206
1.00628
1.01258
1.03388
1.08647
1.20293
1.59087
2.45218
2.69592
2.73014
2.72739
2.72816
2.73768
2.76312
2.78999
2.801
2.80717
2.87737
1
1.00001
1.00003
1.00006
1.00018
1.00033
1.00106
1.00193
1.00589
1.01182
1.03174
1.08198
1.18844
1.56282
2.40102
2.67592
2.72607
2.72134
2.72098
2.72896
2.75098
2.78152
2.7918
2.79107
2.86308
1
1.00001
1.00003
1.00005
1.00017
1.0003
1.00096
1.00178
1.0053
1.01097
1.0287
1.07682
1.17167
1.5298
2.33532
2.65095
2.72199
2.71549
2.71412
2.7218
2.73929
2.76451
2.77467
2.77544
2.83564
1
1.00001
1.00003
1.00005
1.00015
1.00028
1.00087
1.00161
1.00479
1.00998
1.02587
1.06965
1.15445
1.48424
2.24535
2.61731
2.71365
2.70398
2.70032
2.70753
2.72623
2.74762
2.75376
2.74812
2.8073
1
1.00001
1.00002
1.00004
1.00014
1.00025
1.0008
1.00145
1.00447
1.0088
1.02393
1.06006
1.13866
1.41563
2.11613
2.57573
2.70554
2.6953
2.68531
2.68989
2.69979
2.72236
2.72291
2.71701
2.7439
1
1.00001
1.00002
1.00004
1.00012
1.00022
1.00068
1.00126
1.00387
1.00761
1.02111
1.05042
1.12198
1.34426
1.99212
2.50075
2.67628
2.67229
2.66795
2.67539
2.67784
2.69104
2.68701
2.65538
2.65801
1
1.00001
1.00001
1.00004
1.00007
1.00022
1.00042
1.00119
1.00261
1.00647
1.01725
1.03894
1.11605
1.26139
1.71224
2.50248
2.65725
2.63676
2.63408
2.64031
2.65168
2.65155
2.63809
2.58125
2.42702
1
1
1.00001
1.00003
1.00008
1.00015
1.00047
1.0009
1.00256
1.00558
1.01402
1.03778
1.08384
1.25441
1.63933
2.41607
2.64405
2.63362
2.61633
2.60945
2.61505
2.60885
2.58411
2.51751
2.33735
1
1
1.00001
1.00002
1.00007
1.00013
1.00041
1.00075
1.00226
1.0046
1.01213
1.0311
1.07093
1.21691
1.51533
2.26931
2.60015
2.62644
2.61213
2.58956
2.58082
2.56869
2.53891
2.47681
2.32426
1
1
1.00001
1.00002
1.00006
1.00011
1.00035
1.00063
1.00194
1.00382
1.01029
1.0253
1.05885
1.17747
1.41083
2.09378
2.51996
2.61158
2.60118
2.57708
2.55416
2.52716
2.49646
2.44635
2.33039
1
1
1.00001
1.00002
1.00005
1.00009
1.00029
1.00051
1.00161
1.00306
1.00859
1.01965
1.04749
1.13774
1.31677
1.92169
2.39719
2.57403
2.57825
2.56534
2.53544
2.502
2.44939
2.40954
2.3274
1
1
1.00001
1.00001
1.00004
1.00007
1.00023
1.00041
1.0013
1.00239
1.00722
1.01461
1.03859
1.09814
1.23596
1.62185
2.32326
2.51068
2.52672
2.53034
2.51767
2.49055
2.43574
2.37733
2.31215
1
1
1.00001
1.00001
1.00003
1.00006
1.00018
1.00032
1.00102
1.00185
1.00564
1.01119
1.03016
1.07653
1.17505
1.51553
2.22688
2.46389
2.49579
2.48966
2.4748
2.45951
2.42482
2.3682
2.30645
1
1
1
1.00001
1.00002
1.00004
1.00014
1.00025
1.00077
1.00141
1.00426
1.00856
1.02263
1.05805
1.13096
1.39314
2.01048
2.38493
2.4806
2.47474
2.45855
2.42572
2.39808
2.35003
2.29296
1
1
1
1.00001
1.00002
1.00003
1.0001
1.00018
1.00058
1.00106
1.00324
1.00623
1.01777
1.03907
1.10052
1.25504
1.75859
2.22344
2.42976
2.43625
2.42731
2.40521
2.3742
2.33616
2.28693
1
1
1
1.00001
1.00001
1.00003
1.00006
1.00017
1.00032
1.00096
1.00184
1.00522
1.01128
1.02836
1.07696
1.16819
1.50638
2.15303
2.37494
2.41374
2.40163
2.38467
2.35041
2.31373
2.27142
1
1
1
1
1.00001
1.00002
1.00004
1.00013
1.00024
1.00074
1.00136
1.00417
1.00811
1.02249
1.0529
1.12742
1.3544
1.97648
2.26071
2.36744
2.37603
2.36568
2.34119
2.30486
2.26501
1
1
1
1
1.00001
1.00001
1.00004
1.00007
1.00021
1.00039
1.00116
1.00224
1.00635
1.01371
1.03471
1.09007
1.21615
1.55522
2.17604
2.31864
2.32947
2.32236
2.30962
2.28323
2.25419
1
1
1
1
1
1.00001
1.00002
1.00006
1.00011
1.00034
1.00065
1.00189
1.00385
1.01012
1.02476
1.05774
1.16259
1.39418
1.93584
2.26624
2.31241
2.30619
2.28919
2.26005
2.2305
1
1
1
1
1
1.00001
1.00002
1.00003
1.0001
1.00019
1.00057
1.00108
1.00319
1.00642
1.0173
1.04093
1.09894
1.26266
1.72954
2.11808
2.27546
2.27571
2.26336
2.24331
2.20772
1
1
1
1
1
1.00001
1.00001
1.00003
1.00005
1.00016
1.0003
1.0009
1.00171
1.00489
1.01038
1.02633
1.06943
1.15225
1.44277
1.99027
2.21029
2.25311
2.24706
2.22643
2.1957
1
1
1
1
1
1
1.00001
1.00002
1.00004
1.00011
1.0002
1.00063
1.00115
1.00351
1.00675
1.01896
1.04244
1.10475
1.27524
1.75962
2.07779
2.20253
2.22113
2.21263
2.19185
1
1
1
1
1
1
1.00001
1.00001
1.00003
1.00005
1.00016
1.0003
1.00091
1.00174
1.00493
1.01049
1.02649
1.06945
1.15424
1.43451
1.96018
2.14522
2.17189
2.17928
2.17009
1
1
1
1
1
1
1
1.00001
1.00001
1.00004
1.00008
1.00025
1.00047
1.00139
1.0027
1.00747
1.01651
1.0405
1.10701
1.25282
1.63284
2.03762
2.15177
2.15275
2.14561
1
1
1
1
1
1
1
1
1.00001
1.00002
1.00007
1.00013
1.00038
1.00071
1.0021
1.00409
1.01148
1.02427
1.06445
1.14722
1.43807
1.82539
2.08744
2.1304
2.12837
1
1
1
1
1
1
1
1
1.00001
1.00001
1.00004
1.00008
1.00024
1.00043
1.00131
1.00243
1.00715
1.01443
1.0375
1.09139
1.22119
1.54644
1.93434
2.0893
2.10454
1
1
1
1
1
1
1
1
1
1.00001
1.00002
1.00006
1.00011
1.00033
1.00062
1.00184
1.00357
1.00989
1.02146
1.05349
1.13144
1.34536
1.75039
2.00328
2.06838
1
1
1
1
1
1
1
1
1
1.00001
1.00001
1.00004
1.00007
1.0002
1.00037
1.00111
1.00206
1.00599
1.01188
1.03187
1.07059
1.18469
1.41712
1.86154
2.01812
1
1
1
1
1
1
1
1
1
1
1.00001
1.00002
1.00005
1.00009
1.00027
1.00052
1.00152
1.00292
1.00817
1.01731
1.04349
1.10588
1.26763
1.61399
1.92731
1
1
1
1
1
1
1
1
1
1
1
1.00001
1.00002
1.00007
1.00013
1.00038
1.00071
1.00206
1.00404
1.01112
1.02336
1.0617
1.13794
1.40576
1.73325
1
1
1
1
1
1
1
1
1
1
1
1.00001
1.00001
1.00004
1.00007
1.00022
1.0004
1.00121
1.00222
1.00649
1.01287
1.03344
1.07959
1.18665
1.47703
1
1
1
1
1
1
1
1
1
1
1
1
1.00001
1.00002
1.00004
1.00012
1.00022
1.00068
1.00124
1.00359
1.00722
1.01842
1.04585
1.09961
1.28494
1
1
1
1
1
1
1
1
1
1
1
1
1.00001
1.00001
1.00003
1.00005
1.00016
1.00029
1.00086
1.00162
1.00465
1.00939
1.02423
1.05755
1.13492
1
1
1
1
1
1
1
1
1
1
1
1
1
1.00001
1.00002
1.00003
1.00009
1.00016
1.00048
1.00088
1.00259
1.00494
1.01355
1.02915
1.0711
1
1
1
1
1
1
1
1
1
1
1
1
1
1
1.00001
1.00002
1.00004
1.00011
1.0002
1.00059
1.00111
1.00318
1.00641
1.01637
1.03982
1
1
1
1
1
1
1
1
1
1
1
1
1
1
1
1.00001
1.00002
1.00005
1.00014
1.00025
1.00074
1.0014
1.004
1.00798
1.02064
1
1
1
1
1
1
1
1
1
1
1
1
1
1
1
1
1.00001
1.00002
1.00007
1.00013
1.0004
1.00073
1.00215
1.00409
1.01132
1
1
1
1
1
1
1
1
1
1
1
1
1
1
1
1
1.00001
1.00002
1.00003
1.00008
1.00016
1.00046
1.00087
1.00248
1.00489
1
1
1
1
1
1
1
1
1
1
1
1
1
1
1
1
1
1.00001
1.00002
1.00004
1.0001
1.00019
1.00056
1.00105
1.00296
1
1
1
1
1
1
1
1
1
1
1
1
1
1
1
1
1
1
1.00001
1.00002
1.00004
1.00012
1.00022
1.00065
1.00123
1
1
1
1
1
1
1
1
1
1
1
1
1
1
1
1
1
1
1
1.00001
1.00002
1.00006
1.00011
1.00034
1.00062
1
1
1
1
1
1
1
1
1
1
1
1
1
1
1
1
1
1
1
1
1.00001
1.00002
1.00007
1.00013
1.00037
1
1
1
1
1
1
1
1
1
1
1
1
1
1
1
1
1
1
1
1
1.00001
1.00001
1.00003
1.00006
1.00018
1
1
1
1
1
1
1
1
1
1
1
1
1
1
1
1
1
1
1
1
1
1.00001
1.00002
1.00003
1.00009
1
1
1
1
1
1
1
1
1
1
1
1
1
1
1
1
1
1
1
1
1
1
1.00001
1.00002
1.00003
1
1
1
1
1
1
1
1
1
1
1
1
1
1
1
1
1
1
1
1
1
1
1
1.00001
1.00003
2.39746
2.30199
2.30304
2.34569
2.43332
2.48509
2.53796
2.55902
2.56368
2.55892
2.55786
2.5588
2.5624
2.56678
2.56999
2.57302
2.57592
2.57907
2.58001
2.57986
2.57926
2.57793
2.5756
2.57199
2.5669
2.56044
2.55301
2.54507
2.53703
2.52914
2.52162
2.51464
2.50837
2.50292
2.49834
2.49461
2.49168
2.48948
2.48796
2.48703
2.48665
2.48663
2.48683
2.4875
2.48895
2.49081
2.4928
2.49488
2.49686
2.49885
2.50085
2.50538
2.511
2.51806
2.52988
2.54792
2.58706
2.65557
2.76394
2.91621
3.06877
3.19437
3.27316
3.30324
3.28066
3.26927
3.25662
3.23199
3.21846
3.21306
3.20603
3.19824
3.18968
3.17927
3.16705
3.15008
3.13358
3.1176
3.10608
3.09218
3.08511
3.07561
3.06967
3.06354
3.05639
3.05027
3.04117
3.03316
3.02279
3.01527
3.00553
2.99926
2.99084
2.98516
2.97853
2.9739
2.96871
2.96597
2.96405
2.97188
2.24457
2.1751
2.13744
2.11413
2.08367
2.05012
2.03423
2.03189
2.03875
2.05446
2.06518
2.07625
2.07601
2.0764
2.0766
2.07725
2.07896
2.08104
2.08324
2.08523
2.08567
2.08548
2.08495
2.08386
2.0822
2.07985
2.07674
2.0729
2.06847
2.06367
2.05868
2.05367
2.04872
2.0439
2.03924
2.03475
2.03042
2.0263
2.02238
2.01869
2.01529
2.01218
2.00936
2.00685
2.00475
2.0031
2.00187
2.00114
2.00113
2.00162
2.00351
2.00815
2.01465
2.02478
2.038
2.06554
2.12064
2.20005
2.2858
2.35202
2.40357
2.45159
2.50525
2.56646
2.6207
2.65447
2.66393
2.66023
2.6482
2.62316
2.59739
2.57702
2.56226
2.55467
2.55037
2.55067
2.55071
2.54916
2.54441
2.53555
2.5243
2.51219
2.50092
2.49017
2.48134
2.47405
2.46932
2.4662
2.46421
2.46266
2.46109
2.45961
2.45811
2.45648
2.45509
2.45342
2.45216
2.45241
2.45301
2.46443
2.22541
2.14967
2.07757
2.00664
1.93581
1.88447
1.85206
1.84793
1.84963
1.85858
1.87063
1.88358
1.88975
1.89426
1.89488
1.89617
1.89699
1.89791
1.8992
1.90059
1.90201
1.9028
1.90285
1.9027
1.90229
1.90139
1.89995
1.89798
1.89553
1.8927
1.88957
1.88623
1.88273
1.87909
1.87532
1.87139
1.86731
1.8631
1.85877
1.85441
1.85012
1.84598
1.84207
1.83851
1.83535
1.8328
1.83075
1.8294
1.82955
1.83078
1.83415
1.83943
1.849
1.8631
1.89273
1.95262
2.03615
2.11732
2.1602
2.1628
2.16419
2.16837
2.18447
2.21416
2.25438
2.3068
2.36518
2.40527
2.43539
2.4253
2.4197
2.40905
2.38414
2.35739
2.33477
2.31841
2.30638
2.29784
2.29304
2.29086
2.28818
2.28376
2.2773
2.26991
2.2628
2.25592
2.24982
2.24417
2.23929
2.23471
2.2313
2.22774
2.22528
2.22238
2.21995
2.21796
2.21549
2.21495
2.215
2.22442
2.22186
2.13319
2.05351
1.98045
1.91504
1.86171
1.81715
1.78717
1.76716
1.76201
1.76285
1.76581
1.77388
1.77949
1.78574
1.78727
1.78805
1.78833
1.78814
1.78767
1.78746
1.7874
1.78728
1.78696
1.78629
1.78526
1.7839
1.7822
1.78017
1.77787
1.77532
1.77253
1.7695
1.76623
1.7627
1.75893
1.75493
1.75074
1.74639
1.74194
1.73748
1.7331
1.7289
1.725
1.72137
1.71868
1.71593
1.71529
1.71636
1.71906
1.7245
1.7324
1.75089
1.78703
1.85663
1.94569
2.03045
2.06696
2.05818
2.0461
2.03419
2.02111
2.01687
2.01991
2.03226
2.05479
2.08873
2.12636
2.18023
2.22511
2.26189
2.28486
2.27311
2.26301
2.25013
2.22403
2.19837
2.17626
2.15917
2.14632
2.13883
2.13472
2.13212
2.12994
2.12684
2.12197
2.11582
2.10893
2.10228
2.09509
2.08887
2.08243
2.07674
2.07177
2.06669
2.06328
2.05972
2.05813
2.05757
2.06616
2.22943
2.13721
2.05701
1.98713
1.92078
1.86501
1.81327
1.7725
1.73792
1.71715
1.70451
1.70456
1.70553
1.70883
1.71543
1.72009
1.72483
1.72705
1.72778
1.72863
1.72852
1.72806
1.7274
1.72673
1.72598
1.72506
1.72395
1.72262
1.72104
1.7192
1.71701
1.71457
1.71173
1.70865
1.70515
1.70145
1.6974
1.69322
1.68885
1.68444
1.67997
1.67575
1.67147
1.66779
1.66427
1.66154
1.65983
1.66073
1.66291
1.66781
1.67619
1.69667
1.74012
1.81697
1.90659
1.99111
2.02055
2.00691
1.9974
1.98174
1.96546
1.94593
1.93399
1.92494
1.92147
1.92343
1.93093
1.9486
1.97439
2.0043
2.05165
2.09281
2.14353
2.17689
2.2019
2.19021
2.17955
2.1668
2.1433
2.11861
2.09631
2.07968
2.06624
2.05676
2.04902
2.04393
2.03951
2.03492
2.03021
2.02435
2.01764
2.011
2.00423
1.99805
1.99146
1.98633
1.98022
1.97741
1.9732
1.97915
2.22986
2.14905
2.06858
1.99753
1.93267
1.87495
1.82356
1.78015
1.7421
1.71265
1.68771
1.67314
1.66359
1.66299
1.66404
1.66606
1.67172
1.67439
1.67955
1.6801
1.68131
1.68133
1.68085
1.67962
1.67809
1.67667
1.67537
1.6742
1.67283
1.67132
1.66938
1.66722
1.66456
1.66167
1.65837
1.65484
1.65104
1.64697
1.64282
1.63838
1.63413
1.62962
1.62565
1.62165
1.6187
1.61641
1.61736
1.61951
1.62409
1.63445
1.65968
1.7096
1.79747
1.8938
1.96652
1.98768
1.97674
1.96376
1.95293
1.9348
1.91773
1.8999
1.88503
1.87196
1.86183
1.85362
1.85083
1.85161
1.85539
1.86653
1.88646
1.9101
1.9463
1.97985
2.03403
2.07402
2.11481
2.13858
2.12616
2.11494
2.10335
2.08133
2.05646
2.03735
2.01855
2.00851
1.99658
1.9903
1.98319
1.97884
1.97391
1.97039
1.96501
1.96049
1.95324
1.94881
1.94092
1.93774
1.93122
1.9347
2.23117
2.1583
2.08553
2.01761
1.95351
1.89634
1.84282
1.79719
1.75458
1.71994
1.68912
1.66552
1.64627
1.63537
1.62941
1.62953
1.63083
1.63217
1.63615
1.63783
1.64139
1.64145
1.64192
1.64177
1.64114
1.63973
1.63815
1.63665
1.63513
1.63352
1.63169
1.62961
1.62718
1.6244
1.62121
1.61771
1.61384
1.60986
1.60553
1.60146
1.59701
1.59319
1.58917
1.58635
1.58435
1.58511
1.58756
1.59272
1.60562
1.63593
1.69596
1.78916
1.89707
1.94879
1.96522
1.95816
1.94598
1.93183
1.91644
1.89979
1.88365
1.86712
1.8524
1.83832
1.82518
1.8143
1.80407
1.79752
1.79166
1.79147
1.79328
1.79856
1.81006
1.82996
1.85649
1.88209
1.93164
1.96848
2.02206
2.06062
2.08764
2.07525
2.06561
2.05528
2.03459
2.01547
1.99094
1.97844
1.96184
1.95451
1.94341
1.93814
1.93016
1.92625
1.91938
1.91595
1.90927
1.90575
1.89832
1.89986
2.22954
2.16275
2.09675
2.03359
1.97347
1.91771
1.8661
1.81929
1.7768
1.7394
1.70581
1.67829
1.654
1.63608
1.62094
1.61256
1.60705
1.60658
1.6073
1.60826
1.61053
1.61272
1.61534
1.61557
1.61617
1.61595
1.61505
1.61308
1.61071
1.60837
1.60614
1.6038
1.60119
1.59815
1.59483
1.59112
1.58721
1.583
1.57883
1.57453
1.57066
1.56683
1.56391
1.56321
1.56399
1.56673
1.57266
1.59041
1.62539
1.69985
1.79367
1.90812
1.94392
1.95141
1.94669
1.93477
1.92272
1.90521
1.89074
1.87477
1.85999
1.8451
1.83152
1.81752
1.80434
1.79137
1.77911
1.76917
1.75879
1.75273
1.74514
1.74257
1.74259
1.74474
1.74995
1.76178
1.78112
1.80176
1.83947
1.86798
1.92316
1.9666
2.01262
2.04113
2.0276
2.02052
2.00931
1.9933
1.96941
1.95323
1.93028
1.92054
1.90449
1.89794
1.88603
1.88088
1.87124
1.86802
1.86074
1.86125
2.22798
2.16712
2.10619
2.04738
1.99106
1.93815
1.88855
1.84275
1.80052
1.7621
1.72729
1.69631
1.6688
1.64538
1.62512
1.60947
1.59717
1.59
1.58564
1.58497
1.58542
1.58653
1.58762
1.58942
1.58992
1.59068
1.59064
1.59012
1.58885
1.58673
1.58434
1.58171
1.57904
1.57623
1.57326
1.57006
1.56666
1.56329
1.55991
1.55656
1.55404
1.55124
1.55177
1.55314
1.55632
1.56426
1.5851
1.62765
1.71572
1.81405
1.92043
1.9487
1.94597
1.94025
1.93048
1.91604
1.89956
1.8828
1.86785
1.85288
1.8386
1.82414
1.80983
1.79579
1.78193
1.76888
1.75628
1.74422
1.73258
1.72233
1.71179
1.70547
1.69638
1.6935
1.68863
1.68917
1.69143
1.69632
1.70562
1.72335
1.74704
1.76955
1.8142
1.84786
1.90671
1.94666
1.98052
1.97059
1.96279
1.95295
1.93584
1.91952
1.89565
1.88146
1.86072
1.85296
1.83794
1.83269
1.82187
1.82129
2.22262
2.1679
2.1116
2.05617
2.00298
1.95245
1.90506
1.8606
1.81935
1.78105
1.7459
1.71371
1.68466
1.65851
1.63573
1.61596
1.59958
1.5863
1.57651
1.57012
1.56657
1.56533
1.56557
1.5662
1.5671
1.56798
1.5689
1.56914
1.56891
1.56812
1.56639
1.56403
1.56136
1.55863
1.55581
1.5532
1.55054
1.54807
1.54554
1.54361
1.54208
1.54293
1.54527
1.54911
1.55901
1.58409
1.63338
1.73371
1.84278
1.92309
1.94765
1.94108
1.93327
1.92187
1.9085
1.89135
1.875
1.85827
1.84307
1.82785
1.81288
1.79813
1.78357
1.76994
1.75637
1.74404
1.73087
1.71941
1.70699
1.69644
1.68553
1.67589
1.66605
1.65893
1.64913
1.64554
1.63793
1.63552
1.63391
1.63496
1.63772
1.6449
1.65893
1.67532
1.70406
1.72743
1.77541
1.81513
1.87034
1.89764
1.90012
1.89451
1.88031
1.87039
1.85305
1.83763
1.81619
1.80607
1.78782
1.78818
2.21731
2.16908
2.11767
2.06581
2.01532
1.96673
1.92067
1.87729
1.83649
1.79853
1.76306
1.73041
1.70015
1.67269
1.64761
1.62533
1.60566
1.58879
1.57483
1.5635
1.55524
1.5498
1.54681
1.54563
1.5458
1.54633
1.54723
1.54789
1.54876
1.54899
1.5487
1.54787
1.54615
1.54401
1.54194
1.53971
1.53765
1.53563
1.53403
1.53394
1.53465
1.53734
1.54232
1.55536
1.5846
1.64192
1.74866
1.87021
1.92755
1.94787
1.94011
1.92917
1.91653
1.9005
1.884
1.86645
1.84944
1.83292
1.81727
1.80185
1.7868
1.77224
1.75811
1.74497
1.73234
1.72038
1.70885
1.69777
1.6865
1.67647
1.66514
1.65625
1.6453
1.63637
1.62624
1.61741
1.60707
1.60035
1.59045
1.58604
1.57804
1.57632
1.57397
1.57515
1.57923
1.58922
1.60565
1.62252
1.65568
1.68305
1.73969
1.77699
1.82237
1.83457
1.82517
1.81818
1.80704
1.79782
1.78266
1.7772
2.21418
2.1684
2.12246
2.07477
2.02742
1.98111
1.9367
1.89441
1.85435
1.81663
1.78123
1.74812
1.71734
1.68876
1.66259
1.63847
1.61692
1.59741
1.5805
1.56602
1.55412
1.54474
1.53776
1.53334
1.53092
1.5302
1.53044
1.531
1.53217
1.53288
1.53382
1.53418
1.53392
1.53325
1.53187
1.53039
1.5289
1.52759
1.52817
1.52919
1.53203
1.5385
1.55307
1.58767
1.65596
1.76469
1.89058
1.93159
1.94472
1.93662
1.92546
1.91053
1.89219
1.87352
1.85577
1.83784
1.82115
1.80491
1.78924
1.77411
1.75911
1.74542
1.73207
1.72046
1.70853
1.69799
1.68663
1.67636
1.66571
1.65562
1.64514
1.635
1.62357
1.61389
1.6014
1.59204
1.57963
1.56991
1.55824
1.54906
1.53822
1.53122
1.52221
1.51759
1.51213
1.51092
1.51136
1.51467
1.52211
1.53563
1.55661
1.57603
1.61532
1.64863
1.71149
1.73762
1.78183
1.7732
1.76966
1.76987
2.20441
2.16593
2.12526
2.08263
2.03899
1.99529
1.95238
1.91124
1.87175
1.83449
1.79919
1.76601
1.73492
1.70582
1.67883
1.65381
1.63088
1.60992
1.59114
1.57434
1.55977
1.54749
1.53738
1.52975
1.52395
1.52055
1.5185
1.51812
1.51841
1.51905
1.52035
1.52121
1.52228
1.52255
1.52239
1.5219
1.52153
1.52223
1.52409
1.52656
1.5339
1.55219
1.58895
1.67515
1.78224
1.90585
1.93622
1.93997
1.93252
1.9203
1.90361
1.88322
1.86293
1.84404
1.82606
1.80932
1.7931
1.7776
1.7623
1.74791
1.73385
1.72149
1.70929
1.69874
1.68772
1.678
1.66745
1.65783
1.64696
1.63678
1.62544
1.61482
1.60326
1.59231
1.58023
1.56947
1.55662
1.54672
1.53371
1.52437
1.51212
1.50305
1.49197
1.484
1.47433
1.46893
1.46205
1.45854
1.45676
1.45732
1.45974
1.46572
1.47874
1.49261
1.51823
1.54205
1.58507
1.62883
1.695
1.70451
2.18214
2.15702
2.12285
2.08543
2.04714
2.0079
1.96814
1.92872
1.89043
1.85346
1.81835
1.78497
1.75359
1.72405
1.69647
1.6707
1.64686
1.62477
1.60464
1.58628
1.56995
1.55543
1.54301
1.53251
1.52395
1.51748
1.51257
1.5098
1.50794
1.50781
1.50814
1.50902
1.51016
1.51117
1.51224
1.51343
1.51452
1.5174
1.52073
1.52954
1.55035
1.59219
1.6885
1.79942
1.91505
1.9395
1.93483
1.92418
1.91074
1.8938
1.87277
1.85177
1.83179
1.81366
1.79706
1.78167
1.76676
1.75251
1.73815
1.72488
1.71181
1.70056
1.6892
1.67958
1.6689
1.65957
1.64853
1.63868
1.62732
1.61712
1.60539
1.59458
1.58216
1.57105
1.55838
1.54755
1.53505
1.52479
1.51238
1.50286
1.49049
1.48168
1.4699
1.46159
1.45104
1.44355
1.43424
1.42852
1.42099
1.41772
1.41321
1.41207
1.4125
1.41475
1.41948
1.42757
1.44475
1.46012
1.49768
1.51165
2.15985
2.13385
2.10834
2.08108
2.04724
2.01249
1.97758
1.942
1.90652
1.87158
1.83755
1.80487
1.77361
1.74395
1.71598
1.68961
1.66501
1.64201
1.62078
1.60121
1.58337
1.56724
1.55283
1.54011
1.52922
1.51982
1.51243
1.50651
1.5024
1.49984
1.49824
1.49823
1.49863
1.49992
1.50122
1.50396
1.50585
1.51161
1.52184
1.54604
1.59413
1.69982
1.81473
1.91406
1.93951
1.93207
1.917
1.90125
1.88304
1.8629
1.84228
1.82302
1.80462
1.78847
1.77344
1.75988
1.74618
1.73307
1.71951
1.70722
1.69484
1.68415
1.67284
1.66305
1.65187
1.64215
1.63074
1.62082
1.60892
1.59831
1.58585
1.5748
1.56228
1.55128
1.53886
1.5283
1.51605
1.50615
1.49409
1.48478
1.47301
1.46422
1.45286
1.44467
1.43396
1.42628
1.41661
1.40956
1.40092
1.39509
1.38725
1.38325
1.37711
1.37516
1.37173
1.37229
1.37346
1.3768
1.38797
1.38916
2.15749
2.12211
2.09544
2.0647
2.04125
2.01128
1.97937
1.94783
1.91598
1.88426
1.85283
1.82199
1.79204
1.76318
1.73547
1.70922
1.68418
1.66089
1.63871
1.61845
1.59927
1.58195
1.56582
1.55137
1.53835
1.52677
1.51702
1.50848
1.50162
1.49682
1.49251
1.49046
1.48966
1.49053
1.49283
1.49484
1.50131
1.5132
1.54168
1.59416
1.70708
1.82861
1.91114
1.93548
1.92613
1.91229
1.89551
1.87598
1.85503
1.83566
1.81691
1.80011
1.78375
1.76945
1.75566
1.74299
1.72962
1.71691
1.70349
1.69139
1.67881
1.66784
1.65604
1.6457
1.634
1.62365
1.6115
1.60076
1.58825
1.57741
1.56487
1.55402
1.54146
1.53082
1.51846
1.50841
1.49632
1.48694
1.47505
1.46634
1.45467
1.44651
1.43527
1.42748
1.41687
1.40943
1.39958
1.39246
1.38348
1.37669
1.36847
1.36237
1.3546
1.34972
1.34242
1.33911
1.33365
1.33185
1.33078
1.33039
2.15056
2.11893
2.08759
2.06097
2.02846
2.00408
1.97707
1.94787
1.91883
1.89002
1.8615
1.83327
1.80545
1.7782
1.75179
1.72625
1.7017
1.67841
1.65622
1.63528
1.61567
1.59732
1.58002
1.5644
1.54979
1.53643
1.5249
1.5145
1.50498
1.49848
1.49109
1.48723
1.48484
1.48641
1.48784
1.49361
1.50754
1.53649
1.59415
1.71012
1.83617
1.90993
1.93007
1.92092
1.90583
1.89061
1.87269
1.85291
1.83271
1.81448
1.79739
1.78226
1.7673
1.75379
1.73983
1.72665
1.71277
1.69975
1.68621
1.67412
1.6614
1.65018
1.63778
1.62673
1.61408
1.60289
1.59008
1.57903
1.56635
1.55549
1.54297
1.53237
1.52023
1.51009
1.49831
1.4887
1.47714
1.46816
1.45679
1.44844
1.43727
1.4294
1.41852
1.41101
1.40061
1.3933
1.38356
1.3764
1.36733
1.36038
1.35189
1.34526
1.33721
1.33114
1.32333
1.31819
1.31052
1.30667
1.30007
1.29888
2.13098
2.10831
2.08173
2.05469
2.0269
1.99566
1.96991
1.94405
1.91762
1.89073
1.86415
1.83815
1.81246
1.78723
1.76237
1.73816
1.71495
1.69185
1.67067
1.64958
1.6298
1.61145
1.59353
1.57677
1.56205
1.54691
1.53403
1.52277
1.51069
1.50241
1.49426
1.48648
1.48667
1.48788
1.49241
1.50507
1.53477
1.59932
1.70994
1.84
1.91053
1.92539
1.91377
1.90072
1.88465
1.8671
1.84805
1.82968
1.81153
1.79466
1.7786
1.76404
1.7494
1.73549
1.72074
1.70662
1.692
1.67867
1.66512
1.65308
1.64032
1.62895
1.61619
1.60471
1.59156
1.57997
1.56688
1.55565
1.54308
1.53253
1.52062
1.5107
1.49929
1.48977
1.47864
1.46953
1.45854
1.44991
1.43894
1.43079
1.41982
1.41213
1.40135
1.39401
1.38361
1.37647
1.36665
1.35957
1.35043
1.3434
1.33487
1.32804
1.31997
1.31356
1.30576
1.29995
1.29223
1.28725
1.27988
1.27752
2.11358
2.09588
2.0702
2.04677
2.02299
1.99513
1.96595
1.93961
1.91388
1.88834
1.8634
1.83852
1.81438
1.79032
1.76727
1.74415
1.72193
1.70064
1.67904
1.65959
1.63977
1.62097
1.60401
1.58666
1.57072
1.55715
1.54177
1.53001
1.51877
1.50644
1.4995
1.49263
1.49378
1.49844
1.51073
1.53915
1.61248
1.71286
1.83479
1.91015
1.92399
1.90824
1.89241
1.87772
1.85787
1.83816
1.81989
1.80379
1.78814
1.77282
1.75731
1.74259
1.72776
1.71352
1.69852
1.68418
1.66952
1.65621
1.64281
1.63103
1.61857
1.60733
1.59459
1.58302
1.5699
1.55842
1.5456
1.53475
1.52263
1.51253
1.50108
1.4916
1.48064
1.47156
1.46085
1.45201
1.44132
1.43271
1.42195
1.41367
1.4029
1.39506
1.38441
1.37697
1.36661
1.35946
1.34957
1.34258
1.33332
1.32646
1.31785
1.31123
1.30317
1.29695
1.28919
1.2835
1.27581
1.27078
1.26331
1.26074
2.10082
2.08292
2.05823
2.03177
2.00929
1.98945
1.96435
1.938
1.91239
1.88768
1.86263
1.83831
1.81446
1.79154
1.76858
1.74679
1.72516
1.70422
1.68412
1.66456
1.64545
1.62807
1.60985
1.5938
1.57826
1.56204
1.54966
1.53513
1.52288
1.51354
1.50332
1.50424
1.50847
1.51998
1.54708
1.62366
1.73057
1.84272
1.90661
1.92237
1.90668
1.88378
1.86753
1.84844
1.82816
1.80869
1.79136
1.77663
1.76234
1.74844
1.73386
1.71979
1.70491
1.69073
1.67579
1.66183
1.64745
1.63453
1.62133
1.60968
1.59705
1.5858
1.57304
1.56182
1.54898
1.53795
1.52538
1.51488
1.50297
1.49322
1.48198
1.47284
1.46201
1.4532
1.44252
1.43382
1.42308
1.4145
1.40366
1.39533
1.38449
1.37655
1.36585
1.35835
1.34796
1.34085
1.33093
1.3241
1.3148
1.30819
1.29957
1.29322
1.28518
1.27917
1.27146
1.26592
1.25825
1.25332
1.24584
1.24331
2.07953
2.07199
2.05357
2.02673
2.00071
1.9775
1.95598
1.93349
1.90975
1.88563
1.86242
1.83875
1.81525
1.79243
1.77018
1.74844
1.72731
1.70678
1.68698
1.66724
1.64955
1.6305
1.61438
1.5978
1.58141
1.56802
1.55245
1.53955
1.52881
1.5166
1.51745
1.52023
1.53195
1.56048
1.627
1.7574
1.86742
1.91009
1.91837
1.90894
1.88424
1.85967
1.84084
1.82377
1.80452
1.78556
1.76773
1.75236
1.73803
1.72493
1.71102
1.69714
1.68204
1.66783
1.6529
1.63942
1.62538
1.61292
1.59967
1.58798
1.57508
1.56386
1.5511
1.54023
1.5277
1.51734
1.50532
1.49556
1.48406
1.47476
1.46364
1.4547
1.44382
1.43509
1.42429
1.41566
1.40484
1.39631
1.38543
1.3771
1.36623
1.35825
1.34753
1.34002
1.32963
1.32263
1.31271
1.30615
1.29682
1.2906
1.28193
1.27598
1.26787
1.2622
1.25445
1.24915
1.24149
1.23673
1.22929
1.22687
2.03688
2.04506
2.03698
2.02044
1.99596
1.97266
1.95111
1.92957
1.90758
1.88482
1.86161
1.8393
1.81716
1.79448
1.77295
1.75136
1.73057
1.7105
1.69039
1.67164
1.65274
1.6348
1.61792
1.60038
1.58583
1.56964
1.55614
1.54376
1.53143
1.53149
1.53439
1.54702
1.57492
1.64465
1.77737
1.89595
1.92652
1.91919
1.90901
1.89471
1.86342
1.83925
1.81985
1.80328
1.78551
1.76744
1.74901
1.73243
1.71647
1.70217
1.68704
1.67276
1.65738
1.64328
1.62849
1.61548
1.60176
1.58968
1.57648
1.56495
1.55204
1.54115
1.52873
1.51865
1.5068
1.49732
1.48583
1.4767
1.46551
1.45665
1.44571
1.43698
1.42611
1.41743
1.40659
1.39796
1.38713
1.37862
1.36778
1.35949
1.34869
1.34074
1.33011
1.32264
1.31237
1.30546
1.29567
1.28929
1.28005
1.27408
1.26541
1.25972
1.25154
1.24606
1.23822
1.233
1.22529
1.2205
1.21307
1.21051
2.01126
2.02017
2.01589
2.00436
1.98403
1.96167
1.94102
1.92101
1.90147
1.88169
1.86047
1.83865
1.81717
1.79599
1.77522
1.75379
1.73421
1.7135
1.6946
1.67568
1.65655
1.63997
1.62124
1.60578
1.589
1.574
1.56042
1.54818
1.54621
1.55149
1.56263
1.59298
1.6793
1.787
1.9232
1.94997
1.93274
1.91321
1.90114
1.87689
1.84684
1.82131
1.8004
1.78383
1.76716
1.75022
1.73213
1.71483
1.69751
1.68169
1.66551
1.65069
1.6352
1.62122
1.6066
1.59359
1.57986
1.56771
1.55469
1.54336
1.53098
1.52058
1.50882
1.49923
1.4879
1.47892
1.46796
1.45938
1.4486
1.44004
1.42918
1.42051
1.40958
1.40088
1.38999
1.38132
1.3705
1.36196
1.35123
1.34295
1.33234
1.32447
1.31406
1.3067
1.29662
1.28985
1.28021
1.274
1.26486
1.2591
1.25044
1.24499
1.23677
1.23152
1.22362
1.21859
1.21085
1.2062
1.19878
1.19628
1.94846
1.99256
1.99803
1.99202
1.97858
1.95592
1.93391
1.91319
1.89279
1.87369
1.85451
1.83557
1.81559
1.79562
1.77536
1.75637
1.73608
1.71696
1.69844
1.6789
1.6623
1.64297
1.62718
1.60968
1.59413
1.58
1.5671
1.5648
1.57039
1.58256
1.61543
1.71024
1.80902
1.94752
1.97431
1.95549
1.92568
1.90633
1.88577
1.86043
1.83255
1.80736
1.78589
1.7681
1.75103
1.73375
1.71561
1.69767
1.67998
1.66376
1.64752
1.6327
1.61718
1.60286
1.5878
1.5743
1.56026
1.54795
1.53499
1.52374
1.5115
1.50105
1.48936
1.47978
1.46873
1.45999
1.44935
1.44095
1.43033
1.42191
1.41118
1.40265
1.39178
1.38314
1.37221
1.36358
1.35277
1.34431
1.33371
1.32558
1.31523
1.30757
1.29747
1.29037
1.28055
1.27404
1.26456
1.25857
1.24948
1.2439
1.23521
1.22995
1.22164
1.21661
1.20861
1.20381
1.19599
1.19153
1.1841
1.18174
1.79397
1.94729
1.96936
1.97245
1.96527
1.95168
1.9308
1.91025
1.88948
1.8689
1.84925
1.82935
1.81069
1.79199
1.77359
1.75559
1.73698
1.71975
1.70001
1.68379
1.66485
1.64867
1.63151
1.61551
1.6013
1.58812
1.58594
1.59236
1.60642
1.64183
1.74549
1.83854
1.96673
1.99906
1.98164
1.94889
1.91598
1.89183
1.87026
1.84715
1.82124
1.79625
1.77379
1.75451
1.73629
1.71849
1.70017
1.68189
1.66397
1.64716
1.6306
1.61521
1.59932
1.58472
1.56964
1.55603
1.54197
1.5294
1.51613
1.50439
1.49187
1.48115
1.46945
1.45982
1.44879
1.43997
1.42931
1.42098
1.41047
1.40229
1.39171
1.38346
1.37276
1.36446
1.35374
1.3455
1.33489
1.32681
1.31642
1.30867
1.29857
1.2913
1.2815
1.27478
1.26522
1.25903
1.24969
1.24396
1.23484
1.22948
1.22067
1.2156
1.20714
1.20231
1.19416
1.18956
1.18165
1.17738
1.16992
1.1677
1.65318
1.85602
1.93546
1.94932
1.94662
1.93802
1.92304
1.90438
1.88597
1.86666
1.84747
1.82816
1.80893
1.7896
1.77163
1.75272
1.73621
1.71837
1.70261
1.68504
1.66856
1.65259
1.63595
1.62282
1.60986
1.60838
1.6159
1.6335
1.67106
1.78463
1.88311
1.98195
2.01457
2.0041
1.97971
1.93679
1.90144
1.87673
1.85557
1.83452
1.81072
1.78679
1.76365
1.74276
1.72319
1.70461
1.68582
1.66721
1.64844
1.6305
1.61296
1.59705
1.58129
1.56711
1.55235
1.53894
1.52474
1.51202
1.49856
1.48685
1.47429
1.46361
1.45185
1.4421
1.43089
1.42192
1.41106
1.40263
1.39196
1.38388
1.37337
1.36553
1.35511
1.34735
1.33693
1.32917
1.3188
1.31115
1.30099
1.29364
1.28381
1.27692
1.26739
1.26097
1.25164
1.24563
1.2364
1.23076
1.22165
1.21632
1.20744
1.20239
1.19382
1.18902
1.18079
1.17623
1.16827
1.16405
1.15658
1.15437
1.34101
1.71625
1.87411
1.91568
1.92719
1.92363
1.91446
1.89659
1.87809
1.86091
1.8435
1.82614
1.80788
1.78948
1.77116
1.75307
1.7359
1.71824
1.70271
1.68572
1.67131
1.65452
1.6425
1.63044
1.63073
1.63908
1.66112
1.70449
1.82038
1.94923
2.01547
2.02718
2.01546
2.00103
1.96516
1.92358
1.88897
1.86333
1.84156
1.82115
1.79859
1.7756
1.75243
1.73077
1.71036
1.69099
1.67194
1.65315
1.63422
1.616
1.5981
1.58178
1.56581
1.55157
1.53704
1.52382
1.50975
1.49712
1.48363
1.47186
1.45914
1.44822
1.43606
1.42588
1.41416
1.40472
1.39346
1.3848
1.37403
1.36607
1.35568
1.34811
1.33788
1.33048
1.32033
1.31302
1.30301
1.29584
1.28607
1.27911
1.26961
1.26293
1.25366
1.24732
1.23819
1.23221
1.22316
1.21753
1.20859
1.20331
1.19455
1.18961
1.18113
1.17649
1.16832
1.16397
1.15605
1.15204
1.14461
1.14258
1.17286
1.45748
1.73294
1.87623
1.89519
1.90206
1.89634
1.88878
1.87283
1.85542
1.83838
1.82152
1.8044
1.78791
1.77023
1.75327
1.73572
1.71975
1.70274
1.68783
1.67226
1.65953
1.64983
1.65116
1.66087
1.68801
1.74825
1.84243
2.01208
2.06294
2.05408
2.02787