/*--------------------------------*- C++ -*----------------------------------*\
| =========                 |                                                 |
| \\      /  F ield         | OpenFOAM: The Open Source CFD Toolbox           |
|  \\    /   O peration     | Version:  2412                                  |
|   \\  /    A nd           | Website:  www.openfoam.com                      |
|    \\/     M anipulation  |                                                 |
\*---------------------------------------------------------------------------*/
FoamFile
{
    version     2.0;
    format      ascii;
    arch        "LSB;label=32;scalar=64";
    class       volVectorField;
    location    "1.5";
    object      U;
}
// * * * * * * * * * * * * * * * * * * * * * * * * * * * * * * * * * * * * * //

dimensions      [0 1 -1 0 0 0 0];

internalField   nonuniform List<vector> 
5250
(
(3 4.66731e-09 0)
(2.99999 3.59417e-08 0)
(2.99998 1.10948e-07 0)
(2.99994 3.33371e-07 0)
(2.99985 7.89786e-07 0)
(2.99968 2.09431e-06 0)
(2.99916 4.70034e-06 0)
(2.99815 1.23369e-05 0)
(2.99501 2.6791e-05 0)
(2.98939 7.49732e-05 0)
(2.96896 0.00015463 0)
(2.92971 0.000472369 0)
(2.79149 0.00112865 0)
(2.39225 0.00334972 0)
(1.48323 0.00906364 0)
(0.601985 0.0219297 0)
(0.530833 0.0231967 0)
(0.550299 0.0247123 0)
(0.534509 0.0271299 0)
(0.47296 0.0299756 0)
(0.378641 0.0332522 0)
(0.290011 0.0371668 0)
(0.212789 0.041087 0)
(0.130321 0.0446889 0)
(0.0621008 0.0491619 0)
(3 1.418e-08 0)
(2.99999 1.0945e-07 0)
(2.99998 3.37447e-07 0)
(2.99994 1.01397e-06 0)
(2.99986 2.39977e-06 0)
(2.99968 6.3619e-06 0)
(2.99917 1.42598e-05 0)
(2.99816 3.74648e-05 0)
(2.99506 8.10153e-05 0)
(2.9895 0.000228486 0)
(2.96928 0.000467053 0)
(2.93055 0.00145044 0)
(2.79368 0.00343498 0)
(2.39945 0.0103554 0)
(1.49853 0.0278722 0)
(0.611462 0.0661053 0)
(0.530273 0.0668478 0)
(0.55023 0.0684622 0)
(0.53471 0.0729701 0)
(0.472706 0.0781027 0)
(0.378001 0.0839101 0)
(0.28899 0.0903531 0)
(0.21118 0.096063 0)
(0.127821 0.10019 0)
(0.0594487 0.103936 0)
(3 2.4005e-08 0)
(2.99999 1.85209e-07 0)
(2.99998 5.7086e-07 0)
(2.99995 1.7135e-06 0)
(2.99986 4.05177e-06 0)
(2.99969 1.07254e-05 0)
(2.99918 2.40091e-05 0)
(2.9982 6.30266e-05 0)
(2.99517 0.000135834 0)
(2.98972 0.000384235 0)
(2.96996 0.000780448 0)
(2.93227 0.00244516 0)
(2.7983 0.00574518 0)
(2.41478 0.0175276 0)
(1.53203 0.0469505 0)
(0.633412 0.11331 0)
(0.530825 0.113233 0)
(0.552584 0.115319 0)
(0.53852 0.123533 0)
(0.476528 0.132909 0)
(0.381995 0.14383 0)
(0.292791 0.155248 0)
(0.214154 0.165187 0)
(0.129433 0.172269 0)
(0.0594454 0.17772 0)
(3 3.46855e-08 0)
(2.99999 2.67626e-07 0)
(2.99998 8.2544e-07 0)
(2.99995 2.47721e-06 0)
(2.99986 5.86473e-06 0)
(2.9997 1.5502e-05 0)
(2.99921 3.47541e-05 0)
(2.99826 9.06168e-05 0)
(2.99533 0.000197252 0)
(2.99004 0.000543419 0)
(2.97097 0.00112874 0)
(2.93483 0.00338511 0)
(2.80521 0.00803542 0)
(2.43768 0.0242233 0)
(1.58331 0.064131 0)
(0.667456 0.159404 0)
(0.531949 0.158593 0)
(0.557017 0.161557 0)
(0.545679 0.174031 0)
(0.484168 0.188023 0)
(0.39044 0.204421 0)
(0.301226 0.221268 0)
(0.221535 0.236072 0)
(0.134586 0.246898 0)
(0.0614175 0.254922 0)
(3 4.59759e-08 0)
(2.99999 3.55351e-07 0)
(2.99998 1.09602e-06 0)
(2.99995 3.293e-06 0)
(2.99987 7.80912e-06 0)
(2.99971 2.06505e-05 0)
(2.99925 4.6448e-05 0)
(2.99834 0.000120253 0)
(2.99554 0.000266757 0)
(2.9905 0.00070402 0)
(2.97228 0.00153631 0)
(2.93822 0.00423711 0)
(2.81424 0.0103044 0)
(2.46671 0.0306364 0)
(1.6491 0.0793075 0)
(0.709754 0.205674 0)
(0.529989 0.203822 0)
(0.560844 0.207686 0)
(0.554174 0.224316 0)
(0.494079 0.242736 0)
(0.402242 0.264438 0)
(0.313658 0.286919 0)
(0.232987 0.307295 0)
(0.143259 0.322997 0)
(0.0655083 0.334605 0)
(3 5.74309e-08 0)
(2.99999 4.4525e-07 0)
(2.99998 1.37353e-06 0)
(2.99995 4.13874e-06 0)
(2.99988 9.84976e-06 0)
(2.99973 2.61257e-05 0)
(2.99929 5.91694e-05 0)
(2.99844 0.000152092 0)
(2.99581 0.000347548 0)
(2.9911 0.000865532 0)
(2.97386 0.00201293 0)
(2.94237 0.00510057 0)
(2.82542 0.0125436 0)
(2.50123 0.0366306 0)
(1.72731 0.0943066 0)
(0.760781 0.253623 0)
(0.525456 0.249121 0)
(0.564874 0.253453 0)
(0.564645 0.274284 0)
(0.50676 0.297205 0)
(0.417922 0.324629 0)
(0.330826 0.353708 0)
(0.249593 0.381109 0)
(0.15649 0.403861 0)
(0.0721111 0.421826 0)
(3 6.40894e-08 0)
(2.99999 4.97619e-07 0)
(2.99998 1.53399e-06 0)
(2.99996 4.62869e-06 0)
(2.99989 1.10132e-05 0)
(2.99975 2.92827e-05 0)
(2.99935 6.63297e-05 0)
(2.99858 0.000171442 0)
(2.99614 0.000389613 0)
(2.99189 0.000989293 0)
(2.97575 0.00225088 0)
(2.94724 0.00604343 0)
(2.83841 0.0141704 0)
(2.54187 0.0431203 0)
(1.82201 0.110718 0)
(0.820279 0.304822 0)
(0.517586 0.295398 0)
(0.569233 0.298829 0)
(0.577601 0.323628 0)
(0.523049 0.350958 0)
(0.438868 0.384595 0)
(0.354626 0.421643 0)
(0.273528 0.458471 0)
(0.176986 0.491995 0)
(0.0835418 0.521648 0)
(3 6.47632e-08 0)
(2.99999 5.00488e-07 0)
(2.99998 1.54128e-06 0)
(2.99996 4.62964e-06 0)
(2.9999 1.0936e-05 0)
(2.99977 2.89695e-05 0)
(2.99941 6.47633e-05 0)
(2.99871 0.00017078 0)
(2.99649 0.000363071 0)
(2.99266 0.00105347 0)
(2.978 0.00206343 0)
(2.95256 0.00697089 0)
(2.85377 0.0146111 0)
(2.59074 0.0516593 0)
(1.93683 0.127347 0)
(0.895108 0.35851 0)
(0.514513 0.343995 0)
(0.579508 0.344378 0)
(0.597128 0.371794 0)
(0.546121 0.40319 0)
(0.467889 0.443694 0)
(0.387924 0.490542 0)
(0.308517 0.539886 0)
(0.20962 0.590104 0)
(0.103279 0.643134 0)
(3 7.31339e-08 0)
(2.99999 5.601e-07 0)
(2.99998 1.72747e-06 0)
(2.99996 5.15521e-06 0)
(2.99991 1.21876e-05 0)
(2.9998 3.20212e-05 0)
(2.99947 7.15324e-05 0)
(2.99883 0.000186908 0)
(2.99687 0.000394274 0)
(2.99331 0.00115196 0)
(2.98059 0.00214857 0)
(2.95796 0.00774273 0)
(2.87251 0.0151149 0)
(2.64798 0.0573319 0)
(2.07337 0.137753 0)
(0.996021 0.403568 0)
(0.52888 0.394062 0)
(0.602274 0.392609 0)
(0.627881 0.419064 0)
(0.580253 0.453993 0)
(0.50918 0.501416 0)
(0.434922 0.559756 0)
(0.35982 0.624112 0)
(0.264509 0.70092 0)
(0.140882 0.801527 0)
(3 3.04913e-08 0)
(3 8.44398e-07 0)
(2.99999 1.69974e-06 0)
(2.99997 7.46425e-06 0)
(2.99992 1.25865e-05 0)
(2.99982 4.71025e-05 0)
(2.99954 7.50645e-05 0)
(2.99898 0.000284783 0)
(2.9973 0.000396106 0)
(2.99413 0.00179136 0)
(2.98341 0.00170859 0)
(2.96361 0.0115457 0)
(2.89195 0.00999307 0)
(2.70665 0.0717912 0)
(2.22003 0.129453 0)
(1.12409 0.422775 0)
(0.577446 0.443458 0)
(0.64368 0.449341 0)
(0.672953 0.467152 0)
(0.629405 0.504798 0)
(0.566053 0.55727 0)
(0.49921 0.625578 0)
(0.435484 0.711047 0)
(0.360033 0.834138 0)
(0.213115 1.0562 0)
(3 7.28599e-08 0)
(3 5.68573e-07 0)
(2.99999 1.75184e-06 0)
(2.99997 5.30219e-06 0)
(2.99994 1.26315e-05 0)
(2.99985 3.36882e-05 0)
(2.99967 7.65222e-05 0)
(2.99909 0.000197388 0)
(2.99813 0.000454364 0)
(2.99441 0.0011191 0)
(2.9886 0.0026753 0)
(2.96513 0.00658965 0)
(2.91782 0.0160466 0)
(2.76582 0.0445481 0)
(2.31243 0.124847 0)
(1.33674 0.345773 0)
(0.666757 0.476426 0)
(0.696639 0.51018 0)
(0.7222 0.518791 0)
(0.689172 0.555114 0)
(0.635241 0.609329 0)
(0.584071 0.684744 0)
(0.550736 0.78858 0)
(0.554416 0.942684 0)
(0.604426 1.20004 0)
(3 1.08194e-07 0)
(3 2.31396e-07 0)
(2.99999 1.61567e-06 0)
(2.99998 2.53264e-06 0)
(2.99994 1.11647e-05 0)
(2.99988 1.60295e-05 0)
(2.99968 6.74812e-05 0)
(2.99929 8.56198e-05 0)
(2.99806 0.000431544 0)
(2.99597 0.000380261 0)
(2.98796 0.00304035 0)
(2.97466 0.00185885 0)
(2.92324 0.0196694 0)
(2.79817 0.0210293 0)
(2.45272 0.107479 0)
(1.46236 0.272025 0)
(0.759637 0.522268 0)
(0.724459 0.565883 0)
(0.748608 0.573499 0)
(0.740226 0.60406 0)
(0.706259 0.657446 0)
(0.678251 0.734779 0)
(0.678833 0.842788 0)
(0.739827 0.992134 0)
(0.895942 1.18694 0)
(3 4.82537e-08 0)
(3 3.76064e-07 0)
(2.99999 1.1561e-06 0)
(2.99998 3.5017e-06 0)
(2.99995 8.27178e-06 0)
(2.99989 2.21648e-05 0)
(2.99973 4.95991e-05 0)
(2.9994 0.000132564 0)
(2.99837 0.000283578 0)
(2.99659 0.000822658 0)
(2.98987 0.00165076 0)
(2.97902 0.00523783 0)
(2.93518 0.0112124 0)
(2.8357 0.0346651 0)
(2.54555 0.0907799 0)
(1.64183 0.264433 0)
(0.884816 0.577954 0)
(0.741051 0.606593 0)
(0.766716 0.618879 0)
(0.78066 0.644397 0)
(0.771097 0.696705 0)
(0.768423 0.770822 0)
(0.797078 0.869894 0)
(0.883593 0.993141 0)
(1.05973 1.11741 0)
(3 4.57255e-08 0)
(3 3.54751e-07 0)
(2.99999 1.09156e-06 0)
(2.99998 3.29321e-06 0)
(2.99996 7.8005e-06 0)
(2.99991 2.07887e-05 0)
(2.99977 4.67158e-05 0)
(2.99949 0.000123381 0)
(2.99864 0.000266349 0)
(2.99712 0.000757622 0)
(2.99162 0.00150192 0)
(2.9827 0.00492395 0)
(2.94674 0.00996065 0)
(2.86865 0.0335175 0)
(2.63233 0.081206 0)
(1.87566 0.258075 0)
(1.0548 0.617153 0)
(0.772429 0.640208 0)
(0.79186 0.653846 0)
(0.819707 0.673292 0)
(0.831999 0.722592 0)
(0.848656 0.791513 0)
(0.895182 0.875698 0)
(0.990018 0.969886 0)
(1.15707 1.05035 0)
(3 4.27501e-08 0)
(3 3.31713e-07 0)
(2.99999 1.02131e-06 0)
(2.99999 3.08141e-06 0)
(2.99997 7.30553e-06 0)
(2.99993 1.94644e-05 0)
(2.99981 4.37504e-05 0)
(2.99958 0.00011503 0)
(2.9989 0.000251191 0)
(2.99762 0.000699683 0)
(2.99332 0.00140192 0)
(2.98613 0.00460273 0)
(2.95805 0.00891146 0)
(2.89884 0.0315609 0)
(2.71693 0.0749388 0)
(2.13741 0.241698 0)
(1.26862 0.626265 0)
(0.848193 0.67688 0)
(0.841132 0.690041 0)
(0.86813 0.701244 0)
(0.894748 0.740046 0)
(0.922115 0.800544 0)
(0.975602 0.870376 0)
(1.06974 0.941265 0)
(1.22034 0.996367 0)
(3 3.83593e-08 0)
(3 2.97805e-07 0)
(3 9.169e-07 0)
(2.99999 2.76616e-06 0)
(2.99997 6.56308e-06 0)
(2.99994 1.74683e-05 0)
(2.99985 3.93327e-05 0)
(2.99966 0.000102698 0)
(2.99913 0.000227425 0)
(2.99808 0.000608745 0)
(2.99485 0.00129 0)
(2.989 0.00386023 0)
(2.96849 0.00771933 0)
(2.9267 0.0251943 0)
(2.79361 0.0621118 0)
(2.3933 0.185657 0)
(1.56096 0.519887 0)
(0.973784 0.698488 0)
(0.912761 0.725332 0)
(0.925718 0.737676 0)
(0.958628 0.760002 0)
(0.992439 0.806756 0)
(1.04571 0.862936 0)
(1.13313 0.916728 0)
(1.26515 0.955817 0)
(3 3.32148e-08 0)
(3 2.5807e-07 0)
(3 7.94643e-07 0)
(2.99999 2.39697e-06 0)
(2.99998 5.69356e-06 0)
(2.99995 1.51306e-05 0)
(2.99988 3.41862e-05 0)
(2.99974 8.87186e-05 0)
(2.99932 0.000198018 0)
(2.9985 0.000514953 0)
(2.99602 0.0011397 0)
(2.99152 0.00305359 0)
(2.97542 0.00661341 0)
(2.94603 0.0187128 0)
(2.83904 0.0454113 0)
(2.54675 0.132043 0)
(1.85526 0.36446 0)
(1.10504 0.727729 0)
(0.964085 0.760898 0)
(0.97034 0.776287 0)
(1.00804 0.78506 0)
(1.05237 0.815891 0)
(1.10638 0.858142 0)
(1.18631 0.898682 0)
(1.30091 0.926833 0)
(3 2.78971e-08 0)
(3 2.15891e-07 0)
(3 6.65092e-07 0)
(2.99999 1.99968e-06 0)
(2.99998 4.74853e-06 0)
(2.99996 1.25648e-05 0)
(2.99991 2.83664e-05 0)
(2.9998 7.32136e-05 0)
(2.99948 0.000163165 0)
(2.99886 0.000422356 0)
(2.99696 0.000926363 0)
(2.99358 0.00251524 0)
(2.98131 0.00518457 0)
(2.95987 0.0162334 0)
(2.87948 0.0337368 0)
(2.66999 0.116311 0)
(2.14041 0.292172 0)
(1.2876 0.753358 0)
(1.01234 0.797521 0)
(1.00893 0.809329 0)
(1.04729 0.811108 0)
(1.10135 0.825032 0)
(1.15759 0.855033 0)
(1.23123 0.885502 0)
(1.33098 0.905951 0)
(3 1.53678e-08 0)
(3 2.00684e-07 0)
(3 4.97428e-07 0)
(3 1.80406e-06 0)
(2.99999 3.60755e-06 0)
(2.99997 1.12649e-05 0)
(2.99993 2.16041e-05 0)
(2.99985 6.56051e-05 0)
(2.99961 0.000123959 0)
(2.99914 0.000379374 0)
(2.99776 0.000693676 0)
(2.99508 0.00228781 0)
(2.9867 0.00367653 0)
(2.97026 0.0149813 0)
(2.91644 0.0225312 0)
(2.78034 0.10071 0)
(2.41994 0.212181 0)
(1.54931 0.662279 0)
(1.11512 0.802392 0)
(1.06803 0.828804 0)
(1.09011 0.836934 0)
(1.14479 0.838674 0)
(1.20464 0.856322 0)
(1.2723 0.877532 0)
(1.35907 0.891673 0)
(3 1.16229e-08 0)
(3 1.50757e-07 0)
(3 3.7432e-07 0)
(3 1.35707e-06 0)
(2.99999 2.71294e-06 0)
(2.99998 8.46565e-06 0)
(2.99995 1.62122e-05 0)
(2.99988 4.91766e-05 0)
(2.99974 9.28516e-05 0)
(2.99934 0.000282533 0)
(2.99855 0.000526122 0)
(2.99608 0.0016461 0)
(2.99179 0.00295349 0)
(2.97584 0.0100577 0)
(2.94702 0.0175407 0)
(2.84225 0.0647035 0)
(2.56448 0.144945 0)
(1.88998 0.443452 0)
(1.2442 0.790595 0)
(1.12582 0.839001 0)
(1.13147 0.860505 0)
(1.1801 0.860111 0)
(1.24314 0.863612 0)
(1.30773 0.874804 0)
(1.38472 0.883011 0)
(3 2.11215e-08 0)
(3 8.15577e-08 0)
(3 3.72547e-07 0)
(3 8.09881e-07 0)
(2.99999 2.5999e-06 0)
(2.99998 5.13789e-06 0)
(2.99997 1.54131e-05 0)
(2.99991 2.97582e-05 0)
(2.99981 8.84334e-05 0)
(2.9995 0.000168656 0)
(2.9989 0.000510358 0)
(2.9971 0.000934787 0)
(2.9937 0.00310045 0)
(2.98246 0.00507055 0)
(2.96144 0.0201883 0)
(2.88753 0.0337022 0)
(2.69614 0.13668 0)
(2.20177 0.317417 0)
(1.42583 0.807803 0)
(1.18297 0.869494 0)
(1.17156 0.884883 0)
(1.20734 0.883161 0)
(1.27074 0.875155 0)
(1.33721 0.876622 0)
(1.40843 0.879599 0)
(3 1.34023e-08 0)
(3 7.29319e-08 0)
(3 2.71646e-07 0)
(3 6.97442e-07 0)
(3 1.92371e-06 0)
(2.99999 4.41856e-06 0)
(2.99998 1.15085e-05 0)
(2.99994 2.58275e-05 0)
(2.99986 6.65663e-05 0)
(2.99969 0.000148467 0)
(2.99919 0.000383076 0)
(2.99823 0.000853166 0)
(2.99524 0.00222174 0)
(2.98992 0.00493861 0)
(2.97115 0.0134251 0)
(2.93359 0.0305793 0)
(2.81241 0.0891302 0)
(2.47559 0.246462 0)
(1.76158 0.649506 0)
(1.29767 0.863338 0)
(1.23134 0.893539 0)
(1.24472 0.901461 0)
(1.2982 0.890798 0)
(1.36425 0.88372 0)
(1.4314 0.881225 0)
(3 7.1194e-09 0)
(3 5.52224e-08 0)
(3 1.70222e-07 0)
(3 5.11825e-07 0)
(3 1.21482e-06 0)
(2.99999 3.20631e-06 0)
(2.99998 7.22816e-06 0)
(2.99996 1.85665e-05 0)
(2.99991 4.1316e-05 0)
(2.99976 0.000105765 0)
(2.99948 0.000234051 0)
(2.99863 0.00060568 0)
(2.9971 0.00131746 0)
(2.99178 0.00358961 0)
(2.98278 0.00751491 0)
(2.94953 0.0219297 0)
(2.87581 0.052047 0)
(2.6592 0.147739 0)
(2.0405 0.436415 0)
(1.4623 0.829717 0)
(1.29217 0.898338 0)
(1.28464 0.917637 0)
(1.32343 0.910487 0)
(1.38728 0.894394 0)
(1.45237 0.886107 0)
(3 6.63175e-09 0)
(3 3.56025e-08 0)
(3 1.32868e-07 0)
(3 3.40917e-07 0)
(3 9.38538e-07 0)
(3 2.15243e-06 0)
(2.99999 5.58481e-06 0)
(2.99997 1.24941e-05 0)
(2.99993 3.20546e-05 0)
(2.99985 7.11658e-05 0)
(2.99961 0.000183547 0)
(2.99913 0.00040196 0)
(2.99773 0.00107678 0)
(2.99508 0.00225271 0)
(2.98642 0.00657611 0)
(2.97013 0.0137722 0)
(2.91525 0.040699 0)
(2.77862 0.105392 0)
(2.39788 0.291435 0)
(1.69469 0.75246 0)
(1.3809 0.898516 0)
(1.33419 0.927215 0)
(1.35103 0.930559 0)
(1.40649 0.912305 0)
(1.47223 0.896098 0)
(3 2.70625e-09 0)
(3 3.03315e-08 0)
(3 7.97173e-08 0)
(3 2.75464e-07 0)
(3 5.77306e-07 0)
(3 1.72335e-06 0)
(2.99999 3.45937e-06 0)
(2.99998 1.00151e-05 0)
(2.99996 1.99007e-05 0)
(2.99989 5.73802e-05 0)
(2.99976 0.000113449 0)
(2.99938 0.000329445 0)
(2.99864 0.00064547 0)
(2.99637 0.00193162 0)
(2.99237 0.00364485 0)
(2.97796 0.011845 0)
(2.95171 0.0222918 0)
(2.85992 0.0755961 0)
(2.61625 0.185154 0)
(2.043 0.531665 0)
(1.51751 0.871214 0)
(1.39385 0.929543 0)
(1.38766 0.946133 0)
(1.42598 0.93519 0)
(1.48784 0.909931 0)
(3 3.88301e-09 0)
(3 1.63415e-08 0)
(3 7.05917e-08 0)
(3 1.60534e-07 0)
(3 4.93717e-07 0)
(3 1.01776e-06 0)
(2.99999 2.92586e-06 0)
(2.99999 5.90868e-06 0)
(2.99997 1.67416e-05 0)
(2.99993 3.35959e-05 0)
(2.99983 9.51819e-05 0)
(2.99958 0.000189891 0)
(2.99906 0.000545466 0)
(2.99757 0.00105959 0)
(2.99469 0.00325579 0)
(2.98563 0.0058117 0)
(2.96825 0.0205915 0)
(2.91064 0.0369717 0)
(2.7646 0.136268 0)
(2.38155 0.325724 0)
(1.73177 0.798679 0)
(1.47178 0.926404 0)
(1.43194 0.953321 0)
(1.44714 0.954592 0)
(1.49929 0.93084 0)
(3 2.31671e-09 0)
(3 1.26034e-08 0)
(3 4.68804e-08 0)
(3 1.20331e-07 0)
(3 3.30939e-07 0)
(3 7.59414e-07 0)
(3 1.96877e-06 0)
(2.99999 4.41297e-06 0)
(2.99998 1.12983e-05 0)
(2.99996 2.51815e-05 0)
(2.99989 6.43717e-05 0)
(2.99975 0.000143058 0)
(2.99937 0.000367012 0)
(2.99862 0.000812519 0)
(2.99633 0.00211364 0)
(2.99228 0.00464848 0)
(2.97785 0.0125591 0)
(2.95136 0.0284067 0)
(2.86026 0.0801298 0)
(2.61933 0.219197 0)
(2.06818 0.573835 0)
(1.59737 0.89892 0)
(1.48915 0.95411 0)
(1.48072 0.966776 0)
(1.51306 0.954095 0)
(3 1.1436e-09 0)
(3 8.88276e-09 0)
(3 2.73641e-08 0)
(3 8.22792e-08 0)
(3 1.9523e-07 0)
(3 5.14744e-07 0)
(3 1.16036e-06 0)
(2.99999 2.97275e-06 0)
(2.99999 6.62237e-06 0)
(2.99997 1.68584e-05 0)
(2.99993 3.7397e-05 0)
(2.99983 9.52159e-05 0)
(2.99962 0.000210478 0)
(2.99903 0.000541262 0)
(2.99789 0.00117543 0)
(2.99432 0.00318137 0)
(2.98801 0.00655727 0)
(2.96589 0.0196237 0)
(2.9202 0.0423185 0)
(2.77986 0.128501 0)
(2.37921 0.361554 0)
(1.83764 0.782469 0)
(1.57605 0.931424 0)
(1.529 0.962954 0)
(1.53691 0.967218 0)
(3 1.12964e-09 0)
(3 4.87551e-09 0)
(3 2.07056e-08 0)
(3 4.78397e-08 0)
(3 1.45051e-07 0)
(3 3.03421e-07 0)
(3 8.59561e-07 0)
(3 1.76149e-06 0)
(2.99999 4.91074e-06 0)
(2.99998 1.00163e-05 0)
(2.99995 2.78273e-05 0)
(2.9999 5.6605e-05 0)
(2.99974 0.000157614 0)
(2.99943 0.000319203 0)
(2.99853 0.000902053 0)
(2.99676 0.00178764 0)
(2.99155 0.00537504 0)
(2.98086 0.0100572 0)
(2.94935 0.0331415 0)
(2.8733 0.0699542 0)
(2.65898 0.218374 0)
(2.12333 0.574397 0)
(1.70818 0.894031 0)
(1.58888 0.958662 0)
(1.5728 0.974074 0)
(3 4.08239e-10 0)
(3 4.11307e-09 0)
(3 1.12863e-08 0)
(3 3.74329e-08 0)
(3 8.12308e-08 0)
(3 2.33394e-07 0)
(3 4.84383e-07 0)
(3 1.34799e-06 0)
(2.99999 2.77155e-06 0)
(2.99999 7.65429e-06 0)
(2.99997 1.56974e-05 0)
(2.99994 4.33208e-05 0)
(2.99984 8.86214e-05 0)
(2.99965 0.00024561 0)
(2.99911 0.000500378 0)
(2.99805 0.00140442 0)
(2.9949 0.00284311 0)
(2.98904 0.00818957 0)
(2.96989 0.0169092 0)
(2.93001 0.0502189 0)
(2.8104 0.116843 0)
(2.45763 0.357073 0)
(1.94918 0.756954 0)
(1.67898 0.927882 0)
(1.62306 0.965257 0)
(3 2.64988e-10 0)
(3 2.61486e-09 0)
(3 7.22153e-09 0)
(3 2.37736e-08 0)
(3 5.18217e-08 0)
(3 1.47836e-07 0)
(3 3.08079e-07 0)
(3 8.51072e-07 0)
(3 1.7577e-06 0)
(2.99999 4.81474e-06 0)
(2.99998 9.9287e-06 0)
(2.99996 2.71188e-05 0)
(2.99991 5.58603e-05 0)
(2.99977 0.000152593 0)
(2.9995 0.000313308 0)
(2.99871 0.000861985 0)
(2.99719 0.00175114 0)
(2.9926 0.0049922 0)
(2.98376 0.00980701 0)
(2.95626 0.0299056 0)
(2.89202 0.0646571 0)
(2.70912 0.195696 0)
(2.23851 0.519723 0)
(1.81817 0.878852 0)
(1.68106 0.95656 0)
(3 2.90251e-10 0)
(3 1.30488e-09 0)
(3 5.40267e-09 0)
(3 1.27055e-08 0)
(3 3.77375e-08 0)
(3 8.01046e-08 0)
(3 2.2242e-07 0)
(3 4.62161e-07 0)
(3 1.26281e-06 0)
(3 2.61233e-06 0)
(2.99999 7.10661e-06 0)
(2.99998 1.46789e-05 0)
(2.99995 3.98984e-05 0)
(2.99986 8.22021e-05 0)
(2.9997 0.000224105 0)
(2.99924 0.000459432 0)
(2.99834 0.00126909 0)
(2.99576 0.00256763 0)
(2.99057 0.00738252 0)
(2.97558 0.0148124 0)
(2.94225 0.0445508 0)
(2.84862 0.102248 0)
(2.57525 0.311254 0)
(2.08666 0.69698 0)
(1.77724 0.916651 0)
(3 1.58527e-10 0)
(3 8.61915e-10 0)
(3 3.19773e-09 0)
(3 8.20467e-09 0)
(3 2.24342e-08 0)
(3 5.13676e-08 0)
(3 1.32019e-07 0)
(3 2.94888e-07 0)
(3 7.46789e-07 0)
(3 1.65843e-06 0)
(2.99999 4.18227e-06 0)
(2.99999 9.27046e-06 0)
(2.99997 2.33401e-05 0)
(2.99993 5.16436e-05 0)
(2.99981 0.000130019 0)
(2.99958 0.00028692 0)
(2.99894 0.000725172 0)
(2.99769 0.00159311 0)
(2.99397 0.00407694 0)
(2.98685 0.00905428 0)
(2.96473 0.023608 0)
(2.91516 0.0562206 0)
(2.77258 0.152761 0)
(2.38484 0.42207 0)
(1.95098 0.811923 0)
(3 6.17651e-11 0)
(3 5.9268e-10 0)
(3 1.65806e-09 0)
(3 5.39979e-09 0)
(3 1.18876e-08 0)
(3 3.35199e-08 0)
(3 7.04486e-08 0)
(3 1.92147e-07 0)
(3 3.99877e-07 0)
(3 1.08106e-06 0)
(3 2.24568e-06 0)
(2.99999 6.05363e-06 0)
(2.99998 1.25692e-05 0)
(2.99995 3.38591e-05 0)
(2.9999 7.02101e-05 0)
(2.99974 0.000189506 0)
(2.99943 0.000391913 0)
(2.99855 0.0010675 0)
(2.99679 0.00218779 0)
(2.99179 0.0061532 0)
(2.9813 0.012473 0)
(2.95167 0.0366516 0)
(2.88022 0.083147 0)
(2.67967 0.242226 0)
(2.21801 0.611296 0)
(3 5.71472e-11 0)
(3 3.07754e-10 0)
(3 1.14387e-09 0)
(3 2.93265e-09 0)
(3 8.02363e-09 0)
(3 1.83637e-08 0)
(3 4.71992e-08 0)
(3 1.05357e-07 0)
(3 2.66739e-07 0)
(3 5.91778e-07 0)
(3 1.49222e-06 0)
(3 3.30363e-06 0)
(2.99999 8.323e-06 0)
(2.99997 1.83938e-05 0)
(2.99994 4.6391e-05 0)
(2.99985 0.0001023 0)
(2.99968 0.000259062 0)
(2.99918 0.000569763 0)
(2.99821 0.00145359 0)
(2.99541 0.00322484 0)
(2.99011 0.00822509 0)
(2.97346 0.0191453 0)
(2.93919 0.048778 0)
(2.83748 0.125304 0)
(2.54574 0.348166 0)
(3 3.73039e-11 0)
(3 1.75041e-10 0)
(3 7.06884e-10 0)
(3 1.69005e-09 0)
(3 4.91996e-09 0)
(3 1.05872e-08 0)
(3 2.8796e-08 0)
(3 6.05797e-08 0)
(3 1.61979e-07 0)
(3 3.39037e-07 0)
(3 9.01695e-07 0)
(3 1.88511e-06 0)
(2.99999 5.00143e-06 0)
(2.99998 1.04497e-05 0)
(2.99997 2.76914e-05 0)
(2.99992 5.77747e-05 0)
(2.99982 0.000153198 0)
(2.99954 0.000318601 0)
(2.999 0.000849866 0)
(2.99742 0.00175088 0)
(2.99459 0.00480713 0)
(2.9849 0.0095998 0)
(2.96804 0.0283427 0)
(2.91009 0.05935 0)
(2.76294 0.184244 0)
(3 2.12465e-11 0)
(3 9.9816e-11 0)
(3 4.02586e-10 0)
(3 9.6438e-10 0)
(3 2.80359e-09 0)
(3 6.04397e-09 0)
(3 1.64116e-08 0)
(3 3.45853e-08 0)
(3 9.23006e-08 0)
(3 1.9354e-07 0)
(3 5.1365e-07 0)
(3 1.07604e-06 0)
(3 2.84737e-06 0)
(2.99999 5.96336e-06 0)
(2.99998 1.57445e-05 0)
(2.99996 3.29333e-05 0)
(2.99989 8.68866e-05 0)
(2.99976 0.000181091 0)
(2.99941 0.000480806 0)
(2.9987 0.000987687 0)
(2.99666 0.00272597 0)
(2.99284 0.00532844 0)
(2.98078 0.0161842 0)
(2.95699 0.0315586 0)
(2.88376 0.0991627 0)
(3 7.44057e-12 0)
(3 6.84762e-11 0)
(3 1.95014e-10 0)
(3 6.2304e-10 0)
(3 1.39047e-09 0)
(3 3.84946e-09 0)
(3 8.18685e-09 0)
(3 2.19142e-08 0)
(3 4.6098e-08 0)
(3 1.22247e-07 0)
(3 2.56507e-07 0)
(3 6.77826e-07 0)
(3 1.42133e-06 0)
(3 3.74814e-06 0)
(2.99999 7.85498e-06 0)
(2.99998 2.069e-05 0)
(2.99994 4.33014e-05 0)
(2.99987 0.000114139 0)
(2.99968 0.000238265 0)
(2.99929 0.000631758 0)
(2.9982 0.00130933 0)
(2.99609 0.00356794 0)
(2.9899 0.00716114 0)
(2.97763 0.020912 0)
(2.94151 0.0430663 0)
(3 4.78761e-12 0)
(3 3.6962e-11 0)
(3 1.13796e-10 0)
(3 3.39856e-10 0)
(3 8.05178e-10 0)
(3 2.10288e-09 0)
(3 4.72573e-09 0)
(3 1.19642e-08 0)
(3 2.65526e-08 0)
(3 6.66648e-08 0)
(3 1.47473e-07 0)
(3 3.69164e-07 0)
(3 8.15773e-07 0)
(3 2.03865e-06 0)
(2.99999 4.50158e-06 0)
(2.99999 1.12356e-05 0)
(2.99997 2.47797e-05 0)
(2.99993 6.18197e-05 0)
(2.99984 0.000136042 0)
(2.99959 0.00034003 0)
(2.99911 0.000745472 0)
(2.99772 0.00188156 0)
(2.99516 0.00409515 0)
(2.98682 0.0105928 0)
(2.97185 0.0236554 0)
(3 3.58695e-12 0)
(3 1.69015e-11 0)
(3 6.78576e-11 0)
(3 1.63386e-10 0)
(3 4.72506e-10 0)
(3 1.02288e-09 0)
(3 2.76071e-09 0)
(3 5.83712e-09 0)
(3 1.54795e-08 0)
(3 3.25484e-08 0)
(3 8.58614e-08 0)
(3 1.80318e-07 0)
(3 4.74607e-07 0)
(3 9.96556e-07 0)
(3 2.61903e-06 0)
(2.99999 5.49888e-06 0)
(2.99998 1.4435e-05 0)
(2.99996 3.02865e-05 0)
(2.99991 7.94939e-05 0)
(2.9998 0.000166419 0)
(2.99949 0.000438619 0)
(2.99888 0.000910775 0)
(2.99715 0.00246374 0)
(2.9939 0.00493879 0)
(2.98361 0.0143645 0)
(3 1.25497e-12 0)
(3 1.13256e-11 0)
(3 3.2583e-11 0)
(3 1.03263e-10 0)
(3 2.31878e-10 0)
(3 6.36793e-10 0)
(3 1.36138e-09 0)
(3 3.61339e-09 0)
(3 7.63736e-09 0)
(3 2.0083e-08 0)
(3 4.23349e-08 0)
(3 1.10965e-07 0)
(3 2.33799e-07 0)
(3 6.11764e-07 0)
(3 1.289e-06 0)
(3 3.36836e-06 0)
(2.99999 7.09682e-06 0)
(2.99998 1.85284e-05 0)
(2.99995 3.90109e-05 0)
(2.99989 0.000101881 0)
(2.99973 0.00021413 0)
(2.99941 0.000561818 0)
(2.99851 0.00117208 0)
(2.99673 0.00315167 0)
(2.99176 0.00637884 0)
(3 7.72524e-13 0)
(3 5.91527e-12 0)
(3 1.82335e-11 0)
(3 5.44131e-11 0)
(3 1.28885e-10 0)
(3 3.3616e-10 0)
(3 7.54951e-10 0)
(3 1.90784e-09 0)
(3 4.23007e-09 0)
(3 1.06018e-08 0)
(3 2.34285e-08 0)
(3 5.85637e-08 0)
(3 1.29292e-07 0)
(3 3.22782e-07 0)
(3 7.12306e-07 0)
(3 1.77663e-06 0)
(3 3.91875e-06 0)
(2.99999 9.76665e-06 0)
(2.99998 2.15208e-05 0)
(2.99994 5.36277e-05 0)
(2.99987 0.000117938 0)
(2.99968 0.000294351 0)
(2.9993 0.000645914 0)
(2.99824 0.00161877 0)
(2.9962 0.00357003 0)
(3 4.9576e-13 0)
(3 2.78365e-12 0)
(3 1.02129e-11 0)
(3 2.61578e-11 0)
(3 7.12993e-11 0)
(3 1.62796e-10 0)
(3 4.1582e-10 0)
(3 9.24957e-10 0)
(3 2.32388e-09 0)
(3 5.13469e-09 0)
(3 1.28369e-08 0)
(3 2.83087e-08 0)
(3 7.06283e-08 0)
(3 1.55639e-07 0)
(3 3.87786e-07 0)
(3 8.54112e-07 0)
(3 2.12554e-06 0)
(2.99999 4.67848e-06 0)
(2.99999 1.16316e-05 0)
(2.99997 2.55721e-05 0)
(2.99993 6.35636e-05 0)
(2.99985 0.000139487 0)
(2.99962 0.000347538 0)
(2.99916 0.00075965 0)
(2.99788 0.00191545 0)
(3 1.76848e-13 0)
(3 1.64139e-12 0)
(3 4.75694e-12 0)
(3 1.50475e-11 0)
(3 3.39307e-11 0)
(3 9.26028e-11 0)
(3 1.98681e-10 0)
(3 5.23716e-10 0)
(3 1.11027e-09 0)
(3 2.89834e-09 0)
(3 6.12606e-09 0)
(3 1.59401e-08 0)
(3 3.36623e-08 0)
(3 8.74504e-08 0)
(3 1.84621e-07 0)
(3 4.79066e-07 0)
(3 1.01121e-06 0)
(3 2.62123e-06 0)
(2.99999 5.53134e-06 0)
(2.99998 1.43268e-05 0)
(2.99997 3.02078e-05 0)
(2.99992 7.82467e-05 0)
(2.99982 0.000164645 0)
(2.99955 0.000428053 0)
(2.99902 0.000893985 0)
(3 1.4133e-13 0)
(3 6.60979e-13 0)
(3 2.77037e-12 0)
(3 6.78803e-12 0)
(3 1.9517e-11 0)
(3 4.27594e-11 0)
(3 1.13885e-10 0)
(3 2.42994e-10 0)
(3 6.34623e-10 0)
(3 1.34536e-09 0)
(3 3.49337e-09 0)
(3 7.39281e-09 0)
(3 1.91533e-08 0)
(3 4.05124e-08 0)
(3 1.04824e-07 0)
(3 2.21692e-07 0)
(3 5.73008e-07 0)
(3 1.21182e-06 0)
(3 3.12908e-06 0)
(2.99999 6.6162e-06 0)
(2.99998 1.70715e-05 0)
(2.99996 3.6064e-05 0)
(2.99991 9.30928e-05 0)
(2.99977 0.000196259 0)
(2.9995 0.000509285 0)
(3 7.05452e-14 0)
(3 3.5605e-13 0)
(3 1.43367e-12 0)
(3 3.52332e-12 0)
(3 9.98748e-12 0)
(3 2.18322e-11 0)
(3 5.78785e-11 0)
(3 1.23521e-10 0)
(3 3.22017e-10 0)
(3 6.83517e-10 0)
(3 1.77219e-09 0)
(3 3.7556e-09 0)
(3 9.71772e-09 0)
(3 2.05893e-08 0)
(3 5.32219e-08 0)
(3 1.1279e-07 0)
(3 2.91319e-07 0)
(3 6.17631e-07 0)
(3 1.59389e-06 0)
(3 3.38048e-06 0)
(2.99999 8.71681e-06 0)
(2.99998 1.84872e-05 0)
(2.99995 4.76597e-05 0)
(2.9999 0.000101005 0)
(2.99975 0.000260746 0)
(3 2.94695e-14 0)
(3 2.00731e-13 0)
(3 6.18305e-13 0)
(3 1.90423e-12 0)
(3 4.47672e-12 0)
(3 1.16847e-11 0)
(3 2.61867e-11 0)
(3 6.59842e-11 0)
(3 1.45829e-10 0)
(3 3.64122e-10 0)
(3 8.01978e-10 0)
(3 1.99676e-09 0)
(3 4.39334e-09 0)
(3 1.09267e-08 0)
(3 2.40322e-08 0)
(3 5.97294e-08 0)
(3 1.31339e-07 0)
(3 3.26223e-07 0)
(3 7.17137e-07 0)
(3 1.78014e-06 0)
(3 3.9112e-06 0)
(2.99999 9.70466e-06 0)
(2.99998 2.12994e-05 0)
(2.99995 5.28638e-05 0)
(2.99988 0.000115834 0)
(3 5.87859e-15 0)
(3 7.27774e-14 0)
(3 2.50342e-13 0)
(3 8.4755e-13 0)
(3 2.04846e-12 0)
(3 5.73289e-12 0)
(3 1.25259e-11 0)
(3 3.31152e-11 0)
(3 7.06072e-11 0)
(3 1.83333e-10 0)
(3 3.88656e-10 0)
(3 1.00444e-09 0)
(3 2.12696e-09 0)
(3 5.48509e-09 0)
(3 1.16136e-08 0)
(3 2.99027e-08 0)
(3 6.3323e-08 0)
(3 1.62799e-07 0)
(3 3.44817e-07 0)
(3 8.85044e-07 0)
(3 1.87475e-06 0)
(3 4.80346e-06 0)
(2.99999 1.0172e-05 0)
(2.99998 2.60208e-05 0)
(2.99994 5.50377e-05 0)
(3 1.74977e-14 0)
(3 6.91672e-14 0)
(3 1.81311e-13 0)
(3 4.52912e-13 0)
(3 1.03932e-12 0)
(3 2.59463e-12 0)
(3 5.78517e-12 0)
(3 1.44635e-11 0)
(3 3.18797e-11 0)
(3 7.92746e-11 0)
(3 1.74496e-10 0)
(3 4.32958e-10 0)
(3 9.52213e-10 0)
(3 2.36042e-09 0)
(3 5.18912e-09 0)
(3 1.28488e-08 0)
(3 2.82359e-08 0)
(3 6.98298e-08 0)
(3 1.53396e-07 0)
(3 3.78858e-07 0)
(3 8.31869e-07 0)
(3 2.05156e-06 0)
(2.99999 4.50162e-06 0)
(2.99999 1.10857e-05 0)
(2.99997 2.42949e-05 0)
(3 1.44101e-14 0)
(3 5.18831e-14 0)
(3 1.09116e-13 0)
(3 1.53334e-13 0)
(3 4.08367e-13 0)
(3 6.52093e-13 0)
(3 1.95356e-12 0)
(3 3.44572e-12 0)
(3 1.03275e-11 0)
(3 1.84066e-11 0)
(3 5.57287e-11 0)
(3 9.97661e-11 0)
(3 3.02553e-10 0)
(3 5.43579e-10 0)
(3 1.6442e-09 0)
(3 2.96164e-09 0)
(3 8.92566e-09 0)
(3 1.6113e-08 0)
(3 4.83747e-08 0)
(3 8.75151e-08 0)
(3 2.61704e-07 0)
(3 4.74296e-07 0)
(3 1.41282e-06 0)
(2.99999 2.56268e-06 0)
(2.99998 7.60902e-06 0)
(1.29891 1.10532 0)
(1.73983 0.901772 0)
(1.94617 0.629278 0)
(1.98341 0.354537 0)
(1.93787 0.129635 0)
(1.84632 -0.0184039 0)
(1.75238 -0.056312 0)
(1.70692 -0.0284446 0)
(1.70267 0.01155 0)
(1.7095 0.0358357 0)
(1.71908 0.0387255 0)
(1.72598 0.0286363 0)
(1.72779 0.0185364 0)
(1.72931 0.0100804 0)
(1.73055 0.00575177 0)
(1.73275 0.00566326 0)
(1.73619 0.00710296 0)
(1.74031 0.00879628 0)
(1.74605 0.00982351 0)
(1.75348 0.00932792 0)
(1.76149 0.00763641 0)
(1.7696 0.00561272 0)
(1.77803 0.00388963 0)
(1.78702 0.00267575 0)
(1.7967 0.00186115 0)
(1.80704 0.00126718 0)
(1.81797 0.000765957 0)
(1.82939 0.000303572 0)
(1.84123 -0.000123345 0)
(1.8534 -0.00049993 0)
(1.86586 -0.000814098 0)
(1.87853 -0.00106359 0)
(1.89137 -0.00125452 0)
(1.90432 -0.001397 0)
(1.91733 -0.00150133 0)
(1.93038 -0.00157671 0)
(1.94343 -0.00163073 0)
(1.95646 -0.00166852 0)
(1.96945 -0.00169681 0)
(1.98238 -0.00172257 0)
(1.99524 -0.00174152 0)
(2.00807 -0.00176271 0)
(2.02085 -0.00180906 0)
(2.03352 -0.00187306 0)
(2.04611 -0.00192589 0)
(2.05868 -0.00198984 0)
(2.0712 -0.00206458 0)
(2.08366 -0.00217251 0)
(2.09604 -0.00235433 0)
(2.10826 -0.00267713 0)
(2.1197 -0.00321549 0)
(2.12929 -0.00512081 0)
(2.13715 -0.00730339 0)
(2.14334 -0.0106107 0)
(2.1453 -0.016862 0)
(2.13807 -0.0296077 0)
(2.11243 -0.0561908 0)
(2.05232 -0.111408 0)
(1.93818 -0.200295 0)
(1.7893 -0.274406 0)
(1.65179 -0.284051 0)
(1.55712 -0.222432 0)
(1.51668 -0.122782 0)
(1.52837 -0.0310286 0)
(1.5637 0.0152742 0)
(1.5995 0.0259149 0)
(1.64182 0.01195 0)
(1.68409 -0.0128336 0)
(1.71726 -0.0394418 0)
(1.74627 -0.0557659 0)
(1.77468 -0.0554671 0)
(1.80253 -0.0444253 0)
(1.83063 -0.02746 0)
(1.8597 -0.00940121 0)
(1.89023 0.00600553 0)
(1.92287 0.0151907 0)
(1.95519 0.0163222 0)
(1.98567 0.0116423 0)
(2.01461 0.00300966 0)
(2.04175 -0.00649573 0)
(2.0672 -0.0145646 0)
(2.09139 -0.0198642 0)
(2.11465 -0.0221249 0)
(2.13735 -0.0214146 0)
(2.15987 -0.0183925 0)
(2.18246 -0.0140213 0)
(2.20526 -0.00935903 0)
(2.22805 -0.00523419 0)
(2.25056 -0.00209697 0)
(2.27255 -4.40159e-05 0)
(2.29393 0.00114194 0)
(2.31472 0.00163315 0)
(2.3349 0.00160136 0)
(2.35447 0.00120725 0)
(2.37339 0.000619775 0)
(2.39158 1.6054e-05 0)
(2.40898 -0.000563079 0)
(2.42476 -0.000729067 0)
(2.43862 -0.00104218 0)
(2.44899 -0.000243656 0)
(1.37742 1.01364 0)
(1.70455 0.732369 0)
(1.88983 0.417689 0)
(1.98228 0.145999 0)
(2.03516 -0.0476313 0)
(2.06797 -0.151039 0)
(2.08156 -0.162782 0)
(2.08325 -0.126306 0)
(2.07611 -0.0815915 0)
(2.06108 -0.0448935 0)
(2.048 -0.0223325 0)
(2.04557 -0.015758 0)
(2.04857 -0.0168673 0)
(2.05295 -0.0201018 0)
(2.05832 -0.0224152 0)
(2.06311 -0.0232552 0)
(2.06677 -0.0228159 0)
(2.06982 -0.0209917 0)
(2.07301 -0.0188098 0)
(2.07689 -0.0173322 0)
(2.08154 -0.0167668 0)
(2.08676 -0.0167085 0)