/*--------------------------------*- C++ -*----------------------------------*\
| =========                 |                                                 |
| \\      /  F ield         | OpenFOAM: The Open Source CFD Toolbox           |
|  \\    /   O peration     | Version:  2412                                  |
|   \\  /    A nd           | Website:  www.openfoam.com                      |
|    \\/     M anipulation  |                                                 |
\*---------------------------------------------------------------------------*/
FoamFile
{
    version     2.0;
    format      ascii;
    arch        "LSB;label=32;scalar=64";
    class       surfaceScalarField;
    location    "0.0999";
    object      phi;
}
// * * * * * * * * * * * * * * * * * * * * * * * * * * * * * * * * * * * * * //

dimensions      [1 0 -1 0 0 0 0];

oriented        oriented;

internalField   nonuniform List<scalar> 
29750
(
13.8651
9.99201e-16
13.8651
2.33147e-15
13.8651
5.44009e-15
13.8651
1.03251e-14
13.8651
1.9984e-14
13.8651
3.66374e-14
13.8651
6.81677e-14
13.8651
1.25344e-13
13.8651
2.30038e-13
13.8651
4.20441e-13
13.8651
7.68607e-13
13.8651
1.40443e-12
13.8651
2.56739e-12
13.8651
4.69713e-12
13.8651
8.60112e-12
13.8651
1.57651e-11
13.8651
2.89302e-11
13.8651
5.31618e-11
13.8651
9.78301e-11
13.8651
1.80301e-10
13.8651
3.32825e-10
13.8651
6.15417e-10
13.8651
1.14e-09
13.8651
2.11584e-09
13.8651
3.93485e-09
13.8651
7.33318e-09
13.8651
1.3697e-08
13.8651
2.56469e-08
13.8651
4.81472e-08
13.8651
9.06277e-08
13.8651
1.71045e-07
13.8651
3.23766e-07
13.8651
6.14866e-07
13.8651
1.17178e-06
13.8651
2.24086e-06
13.8651
4.298e-06
13.8651
8.27307e-06
13.8651
1.59888e-05
13.8651
3.1071e-05
13.865
6.05527e-05
13.8649
0.000118518
13.8646
0.000232189
13.8642
0.000459064
13.8633
0.000909151
13.8615
0.00182466
13.8579
0.00362183
13.8509
0.00732772
13.8364
0.0145975
13.8047
0.0306901
0.0617888
13.7431
13.8651
9.99201e-16
13.8651
3.66374e-15
13.8651
8.32667e-15
13.8651
1.76525e-14
13.8651
3.475e-14
13.8651
6.68354e-14
13.8651
1.2379e-13
13.8651
2.27041e-13
13.8651
4.15223e-13
13.8651
7.57838e-13
13.8651
1.38067e-12
13.8651
2.5121e-12
13.8651
4.57068e-12
13.8651
8.32012e-12
13.8651
1.51578e-11
13.8651
2.76341e-11
13.8651
5.04229e-11
13.8651
9.20785e-11
13.8651
1.68302e-10
13.8651
3.07893e-10
13.8651
5.63823e-10
13.8651
1.03344e-09
13.8651
1.89623e-09
13.8651
3.48272e-09
13.8651
6.40365e-09
13.8651
1.17861e-08
13.8651
2.17172e-08
13.8651
4.00579e-08
13.8651
7.39762e-08
13.8651
1.36756e-07
13.8651
2.53104e-07
13.8651
4.68882e-07
13.8651
8.69623e-07
13.8651
1.61451e-06
13.8651
3.00094e-06
13.8651
5.58173e-06
13.8651
1.03901e-05
13.8651
1.93515e-05
13.8651
3.6083e-05
13.8651
6.73146e-05
13.8651
0.000125616
13.8651
0.000234172
13.8651
0.00043648
13.8652
0.000813772
13.8655
0.00151859
13.8663
0.00282727
13.8685
0.00524269
13.8734
0.00968987
13.8862
0.0179123
0.0331891
13.9143
13.8651
1.11022e-15
13.8651
4.66294e-15
13.8651
1.08802e-14
13.8651
2.24265e-14
13.8651
4.41869e-14
13.8651
8.4488e-14
13.8651
1.57874e-13
13.8651
2.89879e-13
13.8651
5.29354e-13
13.8651
9.62674e-13
13.8651
1.74516e-12
13.8651
3.16036e-12
13.8651
5.72187e-12
13.8651
1.03589e-11
13.8651
1.87566e-11
13.8651
3.39725e-11
13.8651
6.15571e-11
13.8651
1.11584e-10
13.8651
2.0236e-10
13.8651
3.67138e-10
13.8651
6.66401e-10
13.8651
1.21009e-09
13.8651
2.1983e-09
13.8651
3.99503e-09
13.8651
7.26322e-09
13.8651
1.32093e-08
13.8651
2.40311e-08
13.8651
4.37292e-08
13.8651
7.95939e-08
13.8651
1.44895e-07
13.8651
2.63807e-07
13.8651
4.80292e-07
13.8651
8.74354e-07
13.8651
1.59138e-06
13.8651
2.89567e-06
13.8651
5.26647e-06
13.8651
9.5717e-06
13.8651
1.73789e-05
13.8651
3.15177e-05
13.8651
5.70843e-05
13.8652
0.000103219
13.8652
0.000186205
13.8653
0.000334856
13.8655
0.00060008
13.866
0.00107116
13.8669
0.00190362
13.8688
0.00336009
13.8726
0.00588068
13.8803
0.0101756
0.0174006
13.8961
13.8651
2.10942e-15
13.8651
4.88498e-15
13.8651
1.21014e-14
13.8651
2.55351e-14
13.8651
5.04041e-14
13.8651
9.4813e-14
13.8651
1.73528e-13
13.8651
3.16414e-13
13.8651
5.72431e-13
13.8651
1.03328e-12
13.8651
1.86229e-12
13.8651
3.35365e-12
13.8651
6.0334e-12
13.8651
1.0849e-11
13.8651
1.95076e-11
13.8651
3.50737e-11
13.8651
6.30642e-11
13.8651
1.13391e-10
13.8651
2.03894e-10
13.8651
3.66616e-10
13.8651
6.59216e-10
13.8651
1.18522e-09
13.8651
2.13082e-09
13.8651
3.83011e-09
13.8651
6.88351e-09
13.8651
1.23674e-08
13.8651
2.22137e-08
13.8651
3.98811e-08
13.8651
7.15679e-08
13.8651
1.28349e-07
13.8651
2.30029e-07
13.8651
4.11903e-07
13.8651
7.36883e-07
13.8651
1.31669e-06
13.8651
2.3497e-06
13.8651
4.1867e-06
13.8651
7.44713e-06
13.8651
1.32188e-05
13.8651
2.34078e-05
13.8652
4.13369e-05
13.8652
7.27788e-05
13.8652
0.000127683
13.8654
0.000223065
13.8656
0.00038775
13.866
0.000670177
13.8667
0.00115103
13.8681
0.00196239
13.8706
0.003316
13.8753
0.00554062
0.00913388
13.8835
13.8651
1.55431e-15
13.8651
5.10703e-15
13.8651
1.21014e-14
13.8651
2.57572e-14
13.8651
4.94049e-14
13.8651
9.15934e-14
13.8651
1.68976e-13
13.8651
3.06977e-13
13.8651
5.53668e-13
13.8651
9.94205e-13
13.8651
1.78135e-12
13.8651
3.18656e-12
13.8651
5.69411e-12
13.8651
1.01684e-11
13.8651
1.81494e-11
13.8651
3.23833e-11
13.8651
5.77657e-11
13.8651
1.03008e-10
13.8651
1.83626e-10
13.8651
3.27211e-10
13.8651
5.82848e-10
13.8651
1.03771e-09
13.8651
1.84663e-09
13.8651
3.28416e-09
13.8651
5.83707e-09
13.8651
1.03667e-08
13.8651
1.83965e-08
13.8651
3.26156e-08
13.8651
5.77665e-08
13.8651
1.02193e-07
13.8651
1.80557e-07
13.8651
3.18554e-07
13.8651
5.61133e-07
13.8651
9.86658e-07
13.8651
1.73144e-06
13.8651
3.03166e-06
13.8651
5.2953e-06
13.8651
9.22351e-06
13.8651
1.6016e-05
13.8651
2.77135e-05
13.8652
4.77682e-05
13.8652
8.19787e-05
13.8653
0.000140002
13.8655
0.000237757
13.8657
0.000401187
13.8662
0.000672102
13.867
0.00111684
13.8685
0.00183883
13.8711
0.00299467
0.00481573
13.8754
13.8651
6.66134e-16
13.8651
4.21885e-15
13.8651
1.15463e-14
13.8651
2.35367e-14
13.8651
4.50751e-14
13.8651
8.41549e-14
13.8651
1.52989e-13
13.8651
2.76446e-13
13.8651
4.9627e-13
13.8651
8.8618e-13
13.8651
1.57685e-12
13.8651
2.79887e-12
13.8651
4.96547e-12
13.8651
8.80362e-12
13.8651
1.55979e-11
13.8651
2.76181e-11
13.8651
4.88748e-11
13.8651
8.64351e-11
13.8651
1.5277e-10
13.8651
2.69826e-10
13.8651
4.76244e-10
13.8651
8.39885e-10
13.8651
1.47997e-09
13.8651
2.60537e-09
13.8651
4.58205e-09
13.8651
8.04922e-09
13.8651
1.41234e-08
13.8651
2.47478e-08
13.8651
4.33034e-08
13.8651
7.56507e-08
13.8651
1.31938e-07
13.8651
2.29668e-07
13.8651
3.98981e-07
13.8651
6.91542e-07
13.8651
1.19571e-06
13.8651
2.06183e-06
13.8651
3.54492e-06
13.8651
6.075e-06
13.8651
1.03739e-05
13.8651
1.76452e-05
13.8652
2.98834e-05
13.8652
5.03678e-05
13.8652
8.44475e-05
13.8653
0.000140759
13.8655
0.000233094
13.8658
0.000383203
13.8663
0.000624895
13.8671
0.00100991
13.8685
0.00161555
0.00255525
13.8708
13.8651
1.33227e-15
13.8651
4.21885e-15
13.8651
9.65894e-15
13.8651
1.9762e-14
13.8651
3.80806e-14
13.8651
7.13873e-14
13.8651
1.31006e-13
13.8651
2.34812e-13
13.8651
4.17555e-13
13.8651
7.40075e-13
13.8651
1.30862e-12
13.8651
2.31115e-12
13.8651
4.0733e-12
13.8651
7.16993e-12
13.8651
1.26111e-11
13.8651
2.21632e-11
13.8651
3.89164e-11
13.8651
6.82762e-11
13.8651
1.19683e-10
13.8651
2.09597e-10
13.8651
3.66706e-10
13.8651
6.40896e-10
13.8651
1.11886e-09
13.8651
1.95087e-09
13.8651
3.39722e-09
13.8651
5.90751e-09
13.8651
1.02574e-08
13.8651
1.77811e-08
13.8651
3.077e-08
13.8651
5.31459e-08
13.8651
9.16083e-08
13.8651
1.57558e-07
13.8651
2.70345e-07
13.8651
4.62679e-07
13.8651
7.89657e-07
13.8651
1.34365e-06
13.8651
2.27888e-06
13.8651
3.85138e-06
13.8651
6.48404e-06
13.8651
1.08707e-05
13.8651
1.81422e-05
13.8652
3.01275e-05
13.8652
4.976e-05
13.8653
8.16998e-05
13.8654
0.00013327
13.8655
0.000215853
13.8658
0.000346878
13.8663
0.000552675
13.867
0.000872138
0.00136201
13.8682
13.8651
1.22125e-15
13.8651
3.66374e-15
13.8651
8.21565e-15
13.8651
1.62093e-14
13.8651
3.11973e-14
13.8651
5.79536e-14
13.8651
1.05027e-13
13.8651
1.88405e-13
13.8651
3.34066e-13
13.8651
5.89528e-13
13.8651
1.0365e-12
13.8651
1.81732e-12
13.8651
3.18223e-12
13.8651
5.56455e-12
13.8651
9.72e-12
13.8651
1.69591e-11
13.8651
2.95577e-11
13.8651
5.14588e-11
13.8651
8.9494e-11
13.8651
1.55463e-10
13.8651
2.69743e-10
13.8651
4.67423e-10
13.8651
8.08901e-10
13.8651
1.3978e-09
13.8651
2.41182e-09
13.8651
4.15457e-09
13.8651
7.14434e-09
13.8651
1.22626e-08
13.8651
2.10063e-08
13.8651
3.59077e-08
13.8651
6.1242e-08
13.8651
1.04195e-07
13.8651
1.76817e-07
13.8651
2.99215e-07
13.8651
5.04836e-07
13.8651
8.49017e-07
13.8651
1.42295e-06
13.8651
2.37599e-06
13.8651
3.95156e-06
13.8651
6.54363e-06
13.8651
1.07859e-05
13.8651
1.76894e-05
13.8652
2.88547e-05
13.8652
4.6792e-05
13.8653
7.53983e-05
13.8654
0.000120661
13.8655
0.000191659
13.8658
0.000301987
13.8662
0.000471588
0.000729454
13.8668
13.8651
8.88178e-16
13.8651
2.77556e-15
13.8651
5.77316e-15
13.8651
1.15463e-14
13.8651
2.29816e-14
13.8651
4.36318e-14
13.8651
8.01581e-14
13.8651
1.43552e-13
13.8651
2.55018e-13
13.8651
4.48752e-13
13.8651
7.85705e-13
13.8651
1.37201e-12
13.8651
2.38864e-12
13.8651
4.15157e-12
13.8651
7.20379e-12
13.8651
1.24816e-11
13.8651
2.15995e-11
13.8651
3.7332e-11
13.8651
6.44422e-11
13.8651
1.11091e-10
13.8651
1.91248e-10
13.8651
3.28763e-10
13.8651
5.643e-10
13.8651
9.67014e-10
13.8651
1.65432e-09
13.8651
2.82499e-09
13.8651
4.81491e-09
13.8651
8.18979e-09
13.8651
1.39003e-08
13.8651
2.35384e-08
13.8651
3.97628e-08
13.8651
6.69958e-08
13.8651
1.12571e-07
13.8651
1.88593e-07
13.8651
3.1497e-07
13.8651
5.2428e-07
13.8651
8.6959e-07
13.8651
1.43686e-06
13.8651
2.36456e-06
13.8651
3.87434e-06
13.8651
6.31871e-06
13.8651
1.02541e-05
13.8651
1.65518e-05
13.8652
2.65648e-05
13.8652
4.23729e-05
13.8653
6.71438e-05
13.8653
0.000105643
13.8655
0.000164959
13.8657
0.000255443
0.000392097
13.866
13.8651
6.66134e-16
13.8651
2.10942e-15
13.8651
4.88498e-15
13.8651
9.65894e-15
13.8651
1.87628e-14
13.8651
3.41949e-14
13.8651
6.08402e-14
13.8651
1.08247e-13
13.8651
1.90403e-13
13.8651
3.32734e-13
13.8651
5.78759e-13
13.8651
1.00353e-12
13.8651
1.73694e-12
13.8651
2.99938e-12
13.8651
5.17031e-12
13.8651
8.9001e-12
13.8651
1.52991e-11
13.8651
2.62599e-11
13.8651
4.50102e-11
13.8651
7.70338e-11
13.8651
1.31644e-10
13.8651
2.24608e-10
13.8651
3.82592e-10
13.8651
6.50545e-10
13.8651
1.10415e-09
13.8651
1.87036e-09
13.8651
3.16186e-09
13.8651
5.33351e-09
13.8651
8.97632e-09
13.8651
1.50706e-08
13.8651
2.52382e-08
13.8651
4.21512e-08
13.8651
7.01981e-08
13.8651
1.16553e-07
13.8651
1.92899e-07
13.8651
3.18168e-07
13.8651
5.22902e-07
13.8651
8.56086e-07
13.8651
1.39589e-06
13.8651
2.26622e-06
13.8651
3.66232e-06
13.8651
5.88958e-06
13.8651
9.42213e-06
13.8651
1.49899e-05
13.8652
2.37067e-05
13.8652
3.72567e-05
13.8652
5.8158e-05
13.8653
9.01386e-05
13.8654
0.00013862
0.00021145
13.8656
13.8651
6.66134e-16
13.8651
1.77636e-15
13.8651
3.88578e-15
13.8651
8.65974e-15
13.8651
1.4766e-14
13.8651
2.57572e-14
13.8651
4.57412e-14
13.8651
7.99361e-14
13.8651
1.38223e-13
13.8651
2.3892e-13
13.8651
4.13669e-13
13.8651
7.1354e-13
13.8651
1.22768e-12
13.8651
2.10754e-12
13.8651
3.61144e-12
13.8651
6.17839e-12
13.8651
1.05522e-11
13.8651
1.79949e-11
13.8651
3.06402e-11
13.8651
5.20872e-11
13.8651
8.84021e-11
13.8651
1.49778e-10
13.8651
2.53319e-10
13.8651
4.27639e-10
13.8651
7.20515e-10
13.8651
1.21148e-09
13.8651
2.03264e-09
13.8651
3.40268e-09
13.8651
5.68269e-09
13.8651
9.46672e-09
13.8651
1.57292e-08
13.8651
2.60619e-08
13.8651
4.30568e-08
13.8651
7.0915e-08
13.8651
1.1642e-07
13.8651
1.9047e-07
13.8651
3.10496e-07
13.8651
5.04226e-07
13.8651
8.15532e-07
13.8651
1.31341e-06
13.8651
2.1057e-06
13.8651
3.35982e-06
13.8651
5.33377e-06
13.8651
8.4221e-06
13.8651
1.3223e-05
13.8652
2.06357e-05
13.8652
3.19985e-05
13.8652
4.92845e-05
13.8653
7.5355e-05
0.000114344
13.8654
13.8651
1.11022e-16
13.8651
8.88178e-16
13.8651
2.77556e-15
13.8651
4.88498e-15
13.8651
9.4369e-15
13.8651
1.75415e-14
13.8651
3.09752e-14
13.8651
5.4623e-14
13.8651
9.64784e-14
13.8651
1.67755e-13
13.8651
2.8888e-13
13.8651
4.95493e-13
13.8651
8.46878e-13
13.8651
1.44607e-12
13.8651
2.46447e-12
13.8651
4.19187e-12
13.8651
7.11875e-12
13.8651
1.20668e-11
13.8651
2.0419e-11
13.8651
3.44936e-11
13.8651
5.81671e-11
13.8651
9.79093e-11
13.8651
1.64501e-10
13.8651
2.75841e-10
13.8651
4.6161e-10
13.8651
7.70839e-10
13.8651
1.28438e-09
13.8651
2.13505e-09
13.8651
3.54055e-09
13.8651
5.85625e-09
13.8651
9.66074e-09
13.8651
1.58919e-08
13.8651
2.60654e-08
13.8651
4.2619e-08
13.8651
6.94595e-08
13.8651
1.12816e-07
13.8651
1.82578e-07
13.8651
2.94361e-07
13.8651
4.72699e-07
13.8651
7.55897e-07
13.8651
1.20344e-06
13.8651
1.90704e-06
13.8651
3.00722e-06
13.8651
4.71758e-06
13.8651
7.36029e-06
13.8651
1.14175e-05
13.8652
1.76035e-05
13.8652
2.69684e-05
13.8652
4.10313e-05
6.19846e-05
13.8653
13.8651
5.55112e-16
13.8651
1.33227e-15
13.8651
1.88738e-15
13.8651
3.66374e-15
13.8651
7.32747e-15
13.8651
1.26565e-14
13.8651
2.22045e-14
13.8651
3.90799e-14
13.8651
6.75016e-14
13.8651
1.15685e-13
13.8651
1.97509e-13
13.8651
3.37064e-13
13.8651
5.74429e-13
13.8651
9.76108e-13
13.8651
1.65346e-12
13.8651
2.79465e-12
13.8651
4.71589e-12
13.8651
7.94631e-12
13.8651
1.33652e-11
13.8651
2.24399e-11
13.8651
3.76126e-11
13.8651
6.29252e-11
13.8651
1.0507e-10
13.8651
1.75089e-10
13.8651
2.91163e-10
13.8651
4.83134e-10
13.8651
7.99865e-10
13.8651
1.32109e-09
13.8651
2.1766e-09
13.8651
3.57682e-09
13.8651
5.86196e-09
13.8651
9.57985e-09
13.8651
1.56096e-08
13.8651
2.53558e-08
13.8651
4.10539e-08
13.8651
6.62453e-08
13.8651
1.06515e-07
13.8651
1.70625e-07
13.8651
2.72255e-07
13.8651
4.32637e-07
13.8651
6.84542e-07
13.8651
1.07823e-06
13.8651
1.69028e-06
13.8651
2.63656e-06
13.8651
4.09101e-06
13.8651
6.31294e-06
13.8651
9.68528e-06
13.8652
1.47693e-05
13.8652
2.23756e-05
3.36725e-05
13.8652
13.8651
-1.11022e-16
13.8651
9.4453e-32
13.8651
7.77156e-16
13.8651
2.10942e-15
13.8651
4.10783e-15
13.8651
8.21565e-15
13.8651
1.4766e-14
13.8651
2.58682e-14
13.8651
4.4742e-14
13.8651
7.72715e-14
13.8651
1.3245e-13
13.8651
2.25264e-13
13.8651
3.81362e-13
13.8651
6.4404e-13
13.8651
1.08658e-12
13.8651
1.82954e-12
13.8651
3.0721e-12
13.8651
5.14755e-12
13.8651
8.61144e-12
13.8651
1.43802e-11
13.8651
2.39662e-11
13.8651
3.98667e-11
13.8651
6.61871e-11
13.8651
1.09657e-10
13.8651
1.8129e-10
13.8651
2.99053e-10
13.8651
4.92184e-10
13.8651
8.08092e-10
13.8651
1.32347e-09
13.8651
2.16188e-09
13.8651
3.52189e-09
13.8651
5.72118e-09
13.8651
9.26654e-09
13.8651
1.49626e-08
13.8651
2.40826e-08
13.8651
3.86311e-08
13.8651
6.17517e-08
13.8651
9.83478e-08
13.8651
1.56033e-07
13.8651
2.46561e-07
13.8651
3.8798e-07
13.8651
6.07839e-07
13.8651
9.47919e-07
13.8651
1.47117e-06
13.8651
2.27173e-06
13.8651
3.48948e-06
13.8651
5.33037e-06
13.8651
8.0956e-06
13.8651
1.22194e-05
1.83272e-05
13.8652
13.8651
-2.22045e-16
13.8651
-6.86931e-32
13.8651
4.44089e-16
13.8651
1.11022e-15
13.8651
2.22045e-15
13.8651
5.10703e-15
13.8651
1.0103e-14
13.8651
1.74305e-14
13.8651
2.9754e-14
13.8651
5.07372e-14
13.8651
8.61533e-14
13.8651
1.46216e-13
13.8651
2.48357e-13
13.8651
4.18776e-13
13.8651
7.0377e-13
13.8651
1.17906e-12
13.8651
1.97109e-12
13.8651
3.28859e-12
13.8651
5.47473e-12
13.8651
9.09395e-12
13.8651
1.50771e-11
13.8651
2.49473e-11
13.8651
4.11957e-11
13.8651
6.78846e-11
13.8651
1.11623e-10
13.8651
1.83129e-10
13.8651
2.99747e-10
13.8651
4.89443e-10
13.8651
7.97193e-10
13.8651
1.29507e-09
13.8651
2.09819e-09
13.8651
3.38979e-09
13.8651
5.46045e-09
13.8651
8.76912e-09
13.8651
1.4038e-08
13.8651
2.23981e-08
13.8651
3.56141e-08
13.8651
5.64245e-08
13.8651
8.90606e-08
13.8651
1.40024e-07
13.8651
2.19255e-07
13.8651
3.41857e-07
13.8651
5.30651e-07
13.8651
8.19891e-07
13.8651
1.26064e-06
13.8651
1.92853e-06
13.8651
2.93468e-06
13.8651
4.44123e-06
13.8651
6.68165e-06
9.99193e-06
13.8651
13.8651
7.77156e-16
13.8651
6.66134e-16
13.8651
3.33067e-16
13.8651
1.11022e-15
13.8651
2.44249e-15
13.8651
3.44169e-15
13.8651
5.88418e-15
13.8651
1.05471e-14
13.8651
1.85407e-14
13.8651
3.19744e-14
13.8651
5.50671e-14
13.8651
9.42579e-14
13.8651
1.5965e-13
13.8651
2.68563e-13
13.8651
4.50306e-13
13.8651
7.51732e-13
13.8651
1.25056e-12
13.8651
2.07623e-12
13.8651
3.4398e-12
13.8651
5.68701e-12
13.8651
9.38283e-12
13.8651
1.54481e-11
13.8651
2.53807e-11
13.8651
4.16137e-11
13.8651
6.80808e-11
13.8651
1.11129e-10
13.8651
1.80975e-10
13.8651
2.94005e-10
13.8651
4.76441e-10
13.8651
7.70071e-10
13.8651
1.24132e-09
13.8651
1.99536e-09
13.8651
3.19814e-09
13.8651
5.11047e-09
13.8651
8.14077e-09
13.8651
1.29256e-08
13.8651
2.04536e-08
13.8651
3.22519e-08
13.8651
5.067e-08
13.8651
7.93029e-08
13.8651
1.23625e-07
13.8651
1.91923e-07
13.8651
2.96674e-07
13.8651
4.56546e-07
13.8651
6.99287e-07
13.8651
1.06589e-06
13.8651
1.61646e-06
13.8651
2.43853e-06
13.8651
3.65802e-06
5.45598e-06
13.8651
13.8651
-1.11022e-15
13.8651
-6.66134e-16
13.8651
1.11022e-16
13.8651
3.33067e-16
13.8651
6.66134e-16
13.8651
2.33147e-15
13.8651
4.32987e-15
13.8651
7.66054e-15
13.8651
1.35447e-14
13.8651
2.28706e-14
13.8651
3.78586e-14
13.8651
6.26166e-14
13.8651
1.03917e-13
13.8651
1.72751e-13
13.8651
2.86438e-13
13.8651
4.7462e-13
13.8651
7.86815e-13
13.8651
1.29974e-12
13.8651
2.14151e-12
13.8651
3.52185e-12
13.8651
5.78237e-12
13.8651
9.47664e-12
13.8651
1.54984e-11
13.8651
2.52907e-11
13.8651
4.11805e-11
13.8651
6.69022e-11
13.8651
1.08437e-10
13.8651
1.75336e-10
13.8651
2.828e-10
13.8651
4.5495e-10
13.8651
7.29942e-10
13.8651
1.16791e-09
13.8651
1.8633e-09
13.8651
2.96389e-09
13.8651
4.70005e-09
13.8651
7.42937e-09
13.8651
1.17047e-08
13.8651
1.83769e-08
13.8651
2.87494e-08
13.8651
4.48098e-08
13.8651
6.95732e-08
13.8651
1.0759e-07
13.8651
1.65688e-07
13.8651
2.54055e-07
13.8651
3.87796e-07
13.8651
5.89178e-07
13.8651
8.90775e-07
13.8651
1.33998e-06
13.8651
2.00487e-06
2.98329e-06
13.8651
13.8651
5.55112e-16
13.8651
1.38072e-46
13.8651
-1.11022e-16
13.8651
1.11022e-16
13.8651
9.99201e-16
13.8651
1.55431e-15
13.8651
2.33147e-15
13.8651
4.55191e-15
13.8651
8.65974e-15
13.8651
1.4766e-14
13.8651
2.4869e-14
13.8651
4.05231e-14
13.8651
6.63913e-14
13.8651
1.09135e-13
13.8651
1.80633e-13
13.8651
2.9754e-13
13.8651
4.89275e-13
13.8651
8.04468e-13
13.8651
1.31994e-12
13.8651
2.16172e-12
13.8651
3.53451e-12
13.8651
5.76661e-12
13.8651
9.38905e-12
13.8651
1.52556e-11
13.8651
2.4732e-11
13.8651
4.00038e-11
13.8651
6.45567e-11
13.8651
1.03927e-10
13.8651
1.66894e-10
13.8651
2.67324e-10
13.8651
4.27058e-10
13.8651
6.80367e-10
13.8651
1.08086e-09
13.8651
1.71207e-09
13.8651
2.70369e-09
13.8651
4.25624e-09
13.8651
6.67861e-09
13.8651
1.04443e-08
13.8651
1.62765e-08
13.8651
2.52736e-08
13.8651
3.90972e-08
13.8651
6.02469e-08
13.8651
9.24637e-08
13.8651
1.41315e-07
13.8651
2.15036e-07
13.8651
3.25742e-07
13.8651
4.91129e-07
13.8651
7.36907e-07
13.8651
1.09997e-06
1.63332e-06
13.8651
13.8651
-2.22045e-16
13.8651
1.11022e-16
13.8651
6.66134e-16
13.8651
7.77156e-16
13.8651
9.99201e-16
13.8651
1.9984e-15
13.8651
3.33067e-15
13.8651
3.44169e-15
13.8651
4.88498e-15
13.8651
8.77076e-15
13.8651
1.4766e-14
13.8651
2.52021e-14
13.8651
4.15223e-14
13.8651
6.80567e-14
13.8651
1.11799e-13
13.8651
1.8352e-13
13.8651
3.00426e-13
13.8651
4.9194e-13
13.8651
8.05689e-13
13.8651
1.31639e-12
13.8651
2.14384e-12
13.8651
3.48432e-12
13.8651
5.65037e-12
13.8651
9.14213e-12
13.8651
1.47603e-11
13.8651
2.3778e-11
13.8651
3.82151e-11
13.8651
6.12699e-11
13.8651
9.79921e-11
13.8651
1.56327e-10
13.8651
2.48737e-10
13.8651
3.94702e-10
13.8651
6.24579e-10
13.8651
9.8549e-10
13.8651
1.55033e-09
13.8651
2.4314e-09
13.8651
3.80109e-09
13.8651
5.92282e-09
13.8651
9.19751e-09
13.8651
1.42325e-08
13.8651
2.19435e-08
13.8651
3.37048e-08
13.8651
5.15678e-08
13.8651
7.85783e-08
13.8651
1.19233e-07
13.8651
1.80135e-07
13.8651
2.70915e-07
13.8651
4.05548e-07
13.8651
6.04072e-07
8.95262e-07
13.8651
13.8651
3.33067e-16
13.8651
3.33067e-16
13.8651
7.77156e-16
13.8651
7.77156e-16
13.8651
7.77156e-16
13.8651
6.66134e-16
13.8651
8.88178e-16
13.8651
2.10942e-15
13.8651
3.44169e-15
13.8651
5.88418e-15
13.8651
1.04361e-14
13.8651
1.63203e-14
13.8651
2.57572e-14
13.8651
4.22995e-14
13.8651
6.93889e-14
13.8651
1.13132e-13
13.8651
1.8463e-13
13.8651
3.00537e-13
13.8651
4.89497e-13
13.8651
7.95697e-13
13.8651
1.29086e-12
13.8651
2.09011e-12
13.8651
3.37819e-12
13.8651
5.44709e-12
13.8651
8.76166e-12
13.8651
1.40603e-11
13.8651
2.25111e-11
13.8651
3.59548e-11
13.8651
5.72875e-11
13.8651
9.10465e-11
13.8651
1.44327e-10
13.8651
2.28178e-10
13.8651
3.59756e-10
13.8651
5.65599e-10
13.8651
8.86628e-10
13.8651
1.38567e-09
13.8651
2.15888e-09
13.8651
3.35273e-09
13.8651
5.18949e-09
13.8651
8.00495e-09
13.8651
1.23042e-08
13.8651
1.8843e-08
13.8651
2.87475e-08
13.8651
4.36859e-08
13.8651
6.61167e-08
13.8651
9.96444e-08
13.8651
1.49519e-07
13.8651
2.2335e-07
13.8651
3.32041e-07
4.91243e-07
13.8651
13.8651
0
13.8651
1.11022e-16
13.8651
-4.44089e-16
13.8651
2.22045e-16
13.8651
8.88178e-16
13.8651
8.88178e-16
13.8651
1.22125e-15
13.8651
2.10942e-15
13.8651
2.33147e-15
13.8651
2.55351e-15
13.8651
4.32987e-15
13.8651
7.77156e-15
13.8651
1.46549e-14
13.8651
2.498e-14
13.8651
4.10783e-14
13.8651
6.71685e-14
13.8651
1.10245e-13
13.8651
1.81077e-13
13.8651
2.9543e-13
13.8651
4.79172e-13
13.8651
7.74714e-13
13.8651
1.25e-12
13.8651
2.01128e-12
13.8651
3.22942e-12
13.8651
5.17542e-12
13.8651
8.27549e-12
13.8651
1.32019e-11
13.8651
2.10117e-11
13.8651
3.33605e-11
13.8651
5.28336e-11
13.8651
8.3461e-11
13.8651
1.31498e-10
13.8651
2.06623e-10
13.8651
3.23763e-10
13.8651
5.05861e-10
13.8651
7.88045e-10
13.8651
1.2239e-09
13.8651
1.89486e-09
13.8651
2.92414e-09
13.8651
4.49744e-09
13.8651
6.89335e-09
13.8651
1.0528e-08
13.8651
1.60199e-08
13.8651
2.42839e-08
13.8651
3.66655e-08
13.8651
5.51353e-08
13.8651
8.25591e-08
13.8651
1.23088e-07
13.8651
1.82665e-07
2.69817e-07
13.8651
13.8651
-2.22045e-16
13.8651
-3.33067e-16
13.8651
3.33067e-16
13.8651
4.44089e-16
13.8651
-1.0304e-31
13.8651
6.66134e-16
13.8651
1.22125e-15
13.8651
1.33227e-15
13.8651
1.33227e-15
13.8651
1.9984e-15
13.8651
3.10862e-15
13.8651
5.32907e-15
13.8651
8.21565e-15
13.8651
1.45439e-14
13.8651
2.40918e-14
13.8651
4.00791e-14
13.8651
6.65024e-14
13.8651
1.08913e-13
13.8651
1.76859e-13
13.8651
2.85882e-13
13.8651
4.6152e-13
13.8651
7.42739e-13
13.8651
1.19149e-12
13.8651
1.90681e-12
13.8651
3.04468e-12
13.8651
4.85134e-12
13.8651
7.71294e-12
13.8651
1.22352e-11
13.8651
1.93617e-11
13.8651
3.05642e-11
13.8651
4.81257e-11
13.8651
7.55811e-11
13.8651
1.18385e-10
13.8651
1.84925e-10
13.8651
2.88053e-10
13.8651
4.47393e-10
13.8651
6.92808e-10
13.8651
1.06955e-09
13.8651
1.64593e-09
13.8651
2.52467e-09
13.8651
3.85954e-09
13.8651
5.87974e-09
13.8651
8.92534e-09
13.8651
1.34984e-08
13.8651
2.03364e-08
13.8651
3.05178e-08
13.8651
4.56093e-08
13.8651
6.78783e-08
13.8651
1.00569e-07
1.48335e-07
13.8651
13.8651
-1.11022e-16
13.8651
2.22045e-16
13.8651
-1.11022e-16
13.8651
-5.55112e-16
13.8651
-5.55112e-16
13.8651
-6.66134e-16
13.8651
-2.22045e-16
13.8651
1.11022e-16
13.8651
8.88178e-16
13.8651
1.88738e-15
13.8651
2.33147e-15
13.8651
3.66374e-15
13.8651
6.32827e-15
13.8651
9.4369e-15
13.8651
1.56541e-14
13.8651
2.53131e-14
13.8651
4.00791e-14
13.8651
6.38378e-14
13.8651
1.03473e-13
13.8651
1.6831e-13
13.8651
2.72338e-13
13.8651
4.37539e-13
13.8651
6.99996e-13
13.8651
1.11833e-12
13.8651
1.7818e-12
13.8651
2.83173e-12
13.8651
4.49019e-12
13.8651
7.10065e-12
13.8651
1.12018e-11
13.8651
1.76292e-11
13.8651
2.76761e-11
13.8651
4.33364e-11
13.8651
6.76796e-11
13.8651
1.05414e-10
13.8651
1.63734e-10
13.8651
2.53598e-10
13.8651
3.91637e-10
13.8651
6.02998e-10
13.8651
9.25563e-10
13.8651
1.41616e-09
13.8651
2.15969e-09
13.8651
3.28249e-09
13.8651
4.97166e-09
13.8651
7.50302e-09
13.8651
1.12812e-08
13.8651
1.6897e-08
13.8651
2.52081e-08
13.8651
3.74547e-08
13.8651
5.54106e-08
8.16186e-08
13.8651
13.8651
2.22045e-16
13.8651
2.22045e-16
13.8651
-2.22045e-16
13.8651
-4.44089e-16
13.8651
1.11022e-16
13.8651
6.66134e-16
13.8651
3.33067e-16
13.8651
2.22045e-16
13.8651
9.99201e-16
13.8651
1.55431e-15
13.8651
1.55431e-15
13.8651
1.55431e-15
13.8651
1.88738e-15
13.8651
4.10783e-15
13.8651
8.43769e-15
13.8651
1.4766e-14
13.8651
2.43139e-14
13.8651
3.90799e-14
13.8651
6.21725e-14
13.8651
1.00031e-13
13.8651
1.60538e-13
13.8651
2.56462e-13
13.8651
4.10116e-13
13.8651
6.54032e-13
13.8651
1.04017e-12
13.8651
1.64824e-12
13.8651
2.60558e-12
13.8651
4.10916e-12
13.8651
6.46461e-12
13.8651
1.01446e-11
13.8651
1.58802e-11
13.8651
2.47961e-11
13.8651
3.86186e-11
13.8651
5.99883e-11
13.8651
9.293e-11
13.8651
1.4356e-10
13.8651
2.21141e-10
13.8651
3.39646e-10
13.8651
5.20082e-10
13.8651
7.93898e-10
13.8651
1.20801e-09
13.8651
1.83207e-09
13.8651
2.76911e-09
13.8651
4.17078e-09
13.8651
6.25927e-09
13.8651
9.35869e-09
13.8651
1.39391e-08
13.8651
2.06797e-08
13.8651
3.05512e-08
4.49454e-08
13.8651
13.8651
-3.43465e-32
13.8651
-3.33067e-16
13.8651
0
13.8651
2.22045e-16
13.8651
-1.11022e-16
13.8651
-9.99201e-16
13.8651
-1.88738e-15
13.8651
-2.10942e-15
13.8651
-2.33147e-15
13.8651
-2.22045e-15
13.8651
-1.55431e-15
13.8651
-1.11022e-16
13.8651
8.88178e-16
13.8651
1.44329e-15
13.8651
2.77556e-15
13.8651
5.88418e-15
13.8651
1.17684e-14
13.8651
2.14273e-14
13.8651
3.59712e-14
13.8651
5.78426e-14
13.8651
9.29257e-14
13.8651
1.50102e-13
13.8651
2.40363e-13
13.8651
3.82361e-13
13.8651
6.05516e-13
13.8651
9.57234e-13
13.8651
1.50857e-12
13.8651
2.37133e-12
13.8651
3.72058e-12
13.8651
5.82434e-12
13.8651
9.09328e-12
13.8651
1.41617e-11
13.8651
2.19986e-11
13.8651
3.40848e-11
13.8651
5.26714e-11
13.8651
8.11702e-11
13.8651
1.24738e-10
13.8651
1.91142e-10
13.8651
2.92032e-10
13.8651
4.44816e-10
13.8651
6.75421e-10
13.8651
1.02229e-09
13.8651
1.54219e-09
13.8651
2.31856e-09
13.8651
3.47354e-09
13.8651
5.1851e-09
13.8651
7.71111e-09
13.8651
1.14239e-08
13.8651
1.68557e-08
2.47687e-08
13.8651
13.8651
-2.22045e-16
13.8651
-4.44089e-16
13.8651
-7.77156e-16
13.8651
-8.88178e-16
13.8651
-1.22125e-15
13.8651
-1.22125e-15
13.8651
-6.66134e-16
13.8651
-9.99201e-16
13.8651
-1.33227e-15
13.8651
-1.44329e-15
13.8651
-6.66134e-16
13.8651
6.86931e-31
13.8651
1.22125e-15
13.8651
2.66454e-15
13.8651
3.9968e-15
13.8651
5.66214e-15
13.8651
8.21565e-15
13.8651
1.27676e-14
13.8651
2.08722e-14
13.8651
3.39728e-14
13.8651
5.4956e-14
13.8651
8.77076e-14
13.8651
1.39666e-13
13.8651
2.21267e-13
13.8651
3.49942e-13
13.8651
5.52447e-13
13.8651
8.69638e-13
13.8651
1.36424e-12
13.8651
2.13507e-12
13.8651
3.33455e-12
13.8651
5.19473e-12
13.8651
8.07088e-12
13.8651
1.25094e-11
13.8651
1.93385e-11
13.8651
2.9816e-11
13.8651
4.58461e-11
13.8651
7.03001e-11
13.8651
1.07493e-10
13.8651
1.63887e-10
13.8651
2.49125e-10
13.8651
3.77542e-10
13.8651
5.70359e-10
13.8651
8.58879e-10
13.8651
1.28906e-09
13.8651
1.92808e-09
13.8651
2.87375e-09
13.8651
4.26771e-09
13.8651
6.31432e-09
13.8651
9.3055e-09
1.36594e-08
13.8651
13.8651
1.11022e-16
13.8651
1.11022e-16
13.8651
-1.11022e-16
13.8651
-3.33067e-16
13.8651
-5.55112e-16
13.8651
-7.77156e-16
13.8651
-1.11022e-15
13.8651
-8.88178e-16
13.8651
-4.44089e-16
13.8651
1.11022e-16
13.8651
1.11022e-16
13.8651
-1.11022e-16
13.8651
1.11022e-16
13.8651
5.55112e-16
13.8651
1.33227e-15
13.8651
2.10942e-15
13.8651
3.55271e-15
13.8651
6.32827e-15
13.8651
1.02141e-14
13.8651
1.76525e-14
13.8651
2.9643e-14
13.8651
4.79616e-14
13.8651
7.72715e-14
13.8651
1.24567e-13
13.8651
1.98508e-13
13.8651
3.14748e-13
13.8651
4.96492e-13
13.8651
7.80931e-13
13.8651
1.22158e-12
13.8651
1.90337e-12
13.8651
2.96008e-12
13.8651
4.59233e-12
13.8651
7.1041e-12
13.8651
1.09591e-11
13.8651
1.68612e-11
13.8651
2.58716e-11
13.8651
3.95893e-11
13.8651
6.04118e-11
13.8651
9.19259e-11
13.8651
1.39473e-10
13.8651
2.10981e-10
13.8651
3.18174e-10
13.8651
4.78321e-10
13.8651
7.1675e-10
13.8651
1.07045e-09
13.8651
1.59322e-09
13.8651
2.36292e-09
13.8651
3.49183e-09
13.8651
5.14027e-09
7.53786e-09
13.8651
13.8651
2.22045e-16
13.8651
6.66134e-16
13.8651
9.99201e-16
13.8651
7.77156e-16
13.8651
6.66134e-16
13.8651
5.55112e-16
13.8651
4.44089e-16
13.8651
8.88178e-16
13.8651
1.22125e-15
13.8651
6.66134e-16
13.8651
4.44089e-16
13.8651
5.55112e-16
13.8651
3.33067e-16
13.8651
1.11022e-16
13.8651
0
13.8651
2.22045e-16
13.8651
1.33227e-15
13.8651
2.66454e-15
13.8651
5.88418e-15
13.8651
1.03251e-14
13.8651
1.73195e-14
13.8651
2.80886e-14
13.8651
4.45199e-14
13.8651
7.09433e-14
13.8651
1.13687e-13
13.8651
1.80966e-13
13.8651
2.85105e-13
13.8651
4.46421e-13
13.8651
6.97886e-13
13.8651
1.08724e-12
13.8651
1.68721e-12
13.8651
2.61113e-12
13.8651
4.03033e-12
13.8651
6.20404e-12
13.8651
9.52638e-12
13.8651
1.45889e-11
13.8651
2.22814e-11
13.8651
3.39366e-11
13.8651
5.15439e-11
13.8651
7.80633e-11
13.8651
1.17884e-10
13.8651
1.77484e-10
13.8651
2.66399e-10
13.8651
3.98594e-10
13.8651
5.94451e-10
13.8651
8.83589e-10
13.8651
1.30884e-09
13.8651
1.93196e-09
13.8651
2.84107e-09
4.16237e-09
13.8651
13.8651
-3.33067e-16
13.8651
-2.22045e-16
13.8651
-5.55112e-16
13.8651
-6.66134e-16
13.8651
-3.33067e-16
13.8651
2.22045e-16
13.8651
1.22125e-15
13.8651
1.22125e-15
13.8651
6.66134e-16
13.8651
5.55112e-16
13.8651
2.22045e-16
13.8651
1.11022e-16
13.8651
1.11022e-16
13.8651
3.33067e-16
13.8651
2.22045e-16
13.8651
6.66134e-16
13.8651
9.99201e-16
13.8651
2.33147e-15
13.8651
3.77476e-15
13.8651
6.32827e-15
13.8651
9.65894e-15
13.8651
1.54321e-14
13.8651
2.58682e-14
13.8651
4.21885e-14
13.8651
6.69464e-14
13.8651
1.05249e-13
13.8651
1.6509e-13
13.8651
2.57794e-13
13.8651
4.00235e-13
13.8651
6.21281e-13
13.8651
9.61675e-13
13.8651
1.48437e-12
13.8651
2.28506e-12
13.8651
3.51097e-12
13.8651
5.37936e-12
13.8651
8.22142e-12
13.8651
1.25326e-11
13.8651
1.90534e-11
13.8651
2.88891e-11
13.8651
4.36802e-11
13.8651
6.58551e-11
13.8651
9.89978e-11
13.8651
1.48374e-10
13.8651
2.21691e-10
13.8651
3.30186e-10
13.8651
4.90179e-10
13.8651
7.25257e-10
13.8651
1.0694e-09
13.8651
1.57111e-09
2.2998e-09
13.8651
13.8651
5.55112e-16
13.8651
-1.11022e-16
13.8651
-2.22045e-16
13.8651
2.22045e-16
13.8651
5.55112e-16
13.8651
4.44089e-16
13.8651
0
13.8651
5.55112e-16
13.8651
2.22045e-16
13.8651
-3.33067e-16
13.8651
1.14706e-44
13.8651