/*--------------------------------*- C++ -*----------------------------------*\
| =========                 |                                                 |
| \\      /  F ield         | OpenFOAM: The Open Source CFD Toolbox           |
|  \\    /   O peration     | Version:  2412                                  |
|   \\  /    A nd           | Website:  www.openfoam.com                      |
|    \\/     M anipulation  |                                                 |
\*---------------------------------------------------------------------------*/
FoamFile
{
    version     2.0;
    format      ascii;
    arch        "LSB;label=32;scalar=64";
    class       volVectorField;
    location    "0.0999";
    object      U;
}
// * * * * * * * * * * * * * * * * * * * * * * * * * * * * * * * * * * * * * //

dimensions      [0 1 -1 0 0 0 0];

internalField   nonuniform List<vector> 
15000
(
(694.73 3.91481e-14 0)
(694.73 1.11703e-13 0)
(694.73 2.43284e-13 0)
(694.73 4.63987e-13 0)
(694.73 8.7419e-13 0)
(694.73 1.5999e-12 0)
(694.73 2.96165e-12 0)
(694.73 5.47673e-12 0)
(694.73 1.00516e-11 0)
(694.73 1.8386e-11 0)
(694.73 3.36554e-11 0)
(694.73 6.15822e-11 0)
(694.73 1.12719e-10 0)
(694.73 2.06527e-10 0)
(694.73 3.78686e-10 0)
(694.73 6.95053e-10 0)
(694.73 1.27733e-09 0)
(694.73 2.35083e-09 0)
(694.73 4.33336e-09 0)
(694.73 8.00098e-09 0)
(694.73 1.47987e-08 0)
(694.73 2.74225e-08 0)
(694.73 5.09167e-08 0)
(694.73 9.47397e-08 0)
(694.73 1.76676e-07 0)
(694.73 3.30243e-07 0)
(694.73 6.18836e-07 0)
(694.73 1.16279e-06 0)
(694.73 2.19126e-06 0)
(694.73 4.14161e-06 0)
(694.73 7.85149e-06 0)
(694.73 1.49327e-05 0)
(694.73 2.85045e-05 0)
(694.729 5.46216e-05 0)
(694.729 0.000105075 0)
(694.727 0.000202807 0)
(694.725 0.00039296 0)
(694.721 0.000764729 0)
(694.715 0.00149689 0)
(694.702 0.00294027 0)
(694.678 0.00580038 0)
(694.636 0.0114603 0)
(694.557 0.0228326 0)
(694.409 0.0456238 0)
(694.138 0.0922108 0)
(693.632 0.184871 0)
(692.701 0.37557 0)
(690.885 0.754466 0)
(687.564 1.57437 0)
(680.835 3.1863 0)
(694.73 8.15366e-14 0)
(694.73 2.70858e-13 0)
(694.73 5.96974e-13 0)
(694.73 1.22315e-12 0)
(694.73 2.41126e-12 0)
(694.73 4.54787e-12 0)
(694.73 8.40276e-12 0)
(694.73 1.54128e-11 0)
(694.73 2.82066e-11 0)
(694.73 5.1526e-11 0)
(694.73 9.40138e-11 0)
(694.73 1.71393e-10 0)
(694.73 3.12547e-10 0)
(694.73 5.70403e-10 0)
(694.73 1.04195e-09 0)
(694.73 1.90501e-09 0)
(694.73 3.48659e-09 0)
(694.73 6.38811e-09 0)
(694.73 1.17181e-08 0)
(694.73 2.15205e-08 0)
(694.73 3.95742e-08 0)
(694.73 7.28677e-08 0)
(694.73 1.34363e-07 0)
(694.73 2.48112e-07 0)
(694.73 4.58873e-07 0)
(694.73 8.49982e-07 0)
(694.73 1.57709e-06 0)
(694.73 2.9313e-06 0)
(694.73 5.4587e-06 0)
(694.73 1.01842e-05 0)
(694.73 1.90373e-05 0)
(694.73 3.56566e-05 0)
(694.73 6.69349e-05 0)
(694.729 0.000125944 0)
(694.729 0.000237551 0)
(694.728 0.000448963 0)
(694.726 0.000850502 0)
(694.723 0.00161526 0)
(694.718 0.00307861 0)
(694.709 0.00588107 0)
(694.693 0.0112651 0)
(694.665 0.0215943 0)
(694.615 0.0415977 0)
(694.527 0.080304 0)
(694.375 0.156238 0)
(694.113 0.302379 0)
(693.669 0.58977 0)
(692.919 1.14041 0)
(691.683 2.26452 0)
(689.705 4.39704 0)
(694.73 1.03535e-13 0)
(694.73 3.47565e-13 0)
(694.73 8.34603e-13 0)
(694.73 1.73535e-12 0)
(694.73 3.39541e-12 0)
(694.73 6.53139e-12 0)
(694.73 1.22188e-11 0)
(694.73 2.24505e-11 0)
(694.73 4.10581e-11 0)
(694.73 7.48381e-11 0)
(694.73 1.36053e-10 0)
(694.73 2.4704e-10 0)
(694.73 4.48475e-10 0)
(694.73 8.14277e-10 0)
(694.73 1.47912e-09 0)
(694.73 2.68817e-09 0)
(694.73 4.88856e-09 0)
(694.73 8.89544e-09 0)
(694.73 1.61977e-08 0)
(694.73 2.95133e-08 0)
(694.73 5.38139e-08 0)
(694.73 9.81876e-08 0)
(694.73 1.79282e-07 0)
(694.73 3.27572e-07 0)
(694.73 5.98958e-07 0)
(694.73 1.09589e-06 0)
(694.73 2.00652e-06 0)
(694.73 3.67609e-06 0)
(694.73 6.73944e-06 0)
(694.73 1.23625e-05 0)
(694.73 2.26904e-05 0)
(694.73 4.16639e-05 0)
(694.73 7.65375e-05 0)
(694.729 0.000140646 0)
(694.729 0.000258541 0)
(694.728 0.000475261 0)
(694.727 0.000873563 0)
(694.725 0.00160505 0)
(694.722 0.00294831 0)
(694.716 0.00541196 0)
(694.705 0.00992485 0)
(694.687 0.0181626 0)
(694.656 0.0331689 0)
(694.604 0.0604174 0)
(694.516 0.109813 0)
(694.369 0.198543 0)
(694.127 0.356703 0)
(693.738 0.634528 0)
(693.123 1.12031 0)
(692.186 1.95115 0)
(694.73 1.38905e-13 0)
(694.73 4.26281e-13 0)
(694.73 9.8424e-13 0)
(694.73 2.06989e-12 0)
(694.73 4.08245e-12 0)
(694.73 7.7356e-12 0)
(694.73 1.43314e-11 0)
(694.73 2.62148e-11 0)
(694.73 4.76882e-11 0)
(694.73 8.64258e-11 0)
(694.73 1.56267e-10 0)
(694.73 2.82265e-10 0)
(694.73 5.09513e-10 0)
(694.73 9.19445e-10 0)
(694.73 1.65928e-09 0)
(694.73 2.99466e-09 0)
(694.73 5.40592e-09 0)
(694.73 9.76047e-09 0)
(694.73 1.76272e-08 0)
(694.73 3.18405e-08 0)
(694.73 5.75277e-08 0)
(694.73 1.03954e-07 0)
(694.73 1.87881e-07 0)
(694.73 3.39598e-07 0)
(694.73 6.13901e-07 0)
(694.73 1.10977e-06 0)
(694.73 2.00622e-06 0)
(694.73 3.6264e-06 0)
(694.73 6.55426e-06 0)
(694.73 1.18431e-05 0)
(694.73 2.13938e-05 0)
(694.73 3.86291e-05 0)
(694.73 6.97131e-05 0)
(694.73 0.000125719 0)
(694.729 0.000226543 0)
(694.729 0.000407809 0)
(694.728 0.000733232 0)
(694.727 0.00131626 0)
(694.725 0.00235867 0)
(694.721 0.00421781 0)
(694.715 0.00752468 0)
(694.704 0.013384 0)
(694.686 0.0237181 0)
(694.657 0.0418446 0)
(694.61 0.0734542 0)
(694.533 0.128194 0)
(694.41 0.222088 0)
(694.217 0.381067 0)
(693.92 0.645697 0)
(693.476 1.07718 0)
(694.73 1.56661e-13 0)
(694.73 4.4856e-13 0)
(694.73 1.05927e-12 0)
(694.73 2.22427e-12 0)
(694.73 4.32565e-12 0)
(694.73 8.06874e-12 0)
(694.73 1.47855e-11 0)
(694.73 2.69068e-11 0)
(694.73 4.85971e-11 0)
(694.73 8.74502e-11 0)
(694.73 1.57128e-10 0)
(694.73 2.8203e-10 0)
(694.73 5.05724e-10 0)
(694.73 9.06258e-10 0)
(694.73 1.62361e-09 0)
(694.73 2.90818e-09 0)
(694.73 5.20849e-09 0)
(694.73 9.32664e-09 0)
(694.73 1.66987e-08 0)
(694.73 2.98913e-08 0)
(694.73 5.3496e-08 0)
(694.73 9.57125e-08 0)
(694.73 1.71195e-07 0)
(694.73 3.06083e-07 0)
(694.73 5.47028e-07 0)
(694.73 9.77112e-07 0)
(694.73 1.74436e-06 0)
(694.73 3.11184e-06 0)
(694.73 5.54717e-06 0)
(694.73 9.87919e-06 0)
(694.73 1.75769e-05 0)
(694.73 3.12353e-05 0)
(694.73 5.5435e-05 0)
(694.73 9.82316e-05 0)
(694.73 0.000173775 0)
(694.729 0.000306813 0)
(694.729 0.000540538 0)
(694.728 0.0009499 0)
(694.727 0.00166455 0)
(694.724 0.00290735 0)
(694.721 0.00505976 0)
(694.715 0.00876935 0)
(694.705 0.0151263 0)
(694.689 0.0259458 0)
(694.663 0.0442196 0)
(694.622 0.0748222 0)
(694.557 0.125558 0)
(694.458 0.208656 0)
(694.307 0.342636 0)
(694.083 0.554731 0)
(694.73 9.95837e-14 0)
(694.73 3.83634e-13 0)
(694.73 1.00471e-12 0)
(694.73 2.11535e-12 0)
(694.73 4.0591e-12 0)
(694.73 7.54011e-12 0)
(694.73 1.38022e-11 0)
(694.73 2.50137e-11 0)
(694.73 4.50524e-11 0)
(694.73 8.07114e-11 0)
(694.73 1.44146e-10 0)
(694.73 2.56877e-10 0)
(694.73 4.5737e-10 0)
(694.73 8.13823e-10 0)
(694.73 1.44723e-09 0)
(694.73 2.5723e-09 0)
(694.73 4.57021e-09 0)
(694.73 8.11585e-09 0)
(694.73 1.44055e-08 0)
(694.73 2.55556e-08 0)
(694.73 4.53113e-08 0)
(694.73 8.02862e-08 0)
(694.73 1.42163e-07 0)
(694.73 2.51528e-07 0)
(694.73 4.44662e-07 0)
(694.73 7.85338e-07 0)
(694.73 1.38563e-06 0)
(694.73 2.44193e-06 0)
(694.73 4.2982e-06 0)
(694.73 7.55486e-06 0)
(694.73 1.32591e-05 0)
(694.73 2.32308e-05 0)
(694.73 4.06273e-05 0)
(694.73 7.09042e-05 0)
(694.73 0.000123467 0)
(694.73 0.000214453 0)
(694.729 0.00037147 0)
(694.729 0.000641474 0)
(694.728 0.00110399 0)
(694.727 0.00189276 0)
(694.725 0.0032315 0)
(694.721 0.00549138 0)
(694.716 0.0092832 0)
(694.707 0.0156014 0)
(694.693 0.0260461 0)
(694.671 0.0431604 0)
(694.637 0.0709212 0)
(694.586 0.115441 0)
(694.509 0.185847 0)
(694.395 0.295465 0)
(694.73 8.28766e-14 0)
(694.73 3.45312e-13 0)
(694.73 8.74492e-13 0)
(694.73 1.83481e-12 0)
(694.73 3.55299e-12 0)
(694.73 6.65326e-12 0)
(694.73 1.21812e-11 0)
(694.73 2.19143e-11 0)
(694.73 3.91118e-11 0)
(694.73 6.95535e-11 0)
(694.73 1.23353e-10 0)
(694.73 2.18316e-10 0)
(694.73 3.85983e-10 0)
(694.73 6.81841e-10 0)
(694.73 1.20362e-09 0)
(694.73 2.12309e-09 0)
(694.73 3.74234e-09 0)
(694.73 6.59159e-09 0)
(694.73 1.16016e-08 0)
(694.73 2.04026e-08 0)
(694.73 3.58501e-08 0)
(694.73 6.29329e-08 0)
(694.73 1.10367e-07 0)
(694.73 1.9334e-07 0)
(694.73 3.38301e-07 0)
(694.73 5.91184e-07 0)
(694.73 1.0317e-06 0)
(694.73 1.79774e-06 0)
(694.73 3.12758e-06 0)
(694.73 5.43145e-06 0)
(694.73 9.41467e-06 0)
(694.73 1.6285e-05 0)
(694.73 2.81061e-05 0)
(694.73 4.83887e-05 0)
(694.73 8.30879e-05 0)
(694.73 0.000142254 0)
(694.73 0.000242784 0)
(694.729 0.000412926 0)
(694.729 0.000699663 0)
(694.728 0.0011806 0)
(694.727 0.00198312 0)
(694.725 0.00331459 0)
(694.722 0.0055098 0)
(694.717 0.00910383 0)
(694.71 0.0149422 0)
(694.698 0.024345 0)
(694.68 0.0393419 0)
(694.653 0.0630073 0)
(694.613 0.0998849 0)
(694.554 0.156593 0)
(694.73 1.16637e-13 0)
(694.73 3.58982e-13 0)
(694.73 7.97592e-13 0)
(694.73 1.57935e-12 0)
(694.73 2.99607e-12 0)
(694.73 5.55223e-12 0)
(694.73 1.00845e-11 0)
(694.73 1.80568e-11 0)
(694.73 3.20403e-11 0)
(694.73 5.66125e-11 0)
(694.73 9.97955e-11 0)
(694.73 1.75593e-10 0)
(694.73 3.08467e-10 0)
(694.73 5.41142e-10 0)
(694.73 9.48403e-10 0)
(694.73 1.66061e-09 0)
(694.73 2.90482e-09 0)
(694.73 5.0762e-09 0)
(694.73 8.86224e-09 0)
(694.73 1.54557e-08 0)
(694.73 2.69255e-08 0)
(694.73 4.68511e-08 0)
(694.73 8.14221e-08 0)
(694.73 1.4131e-07 0)
(694.73 2.44903e-07 0)
(694.73 4.23778e-07 0)
(694.73 7.32115e-07 0)
(694.73 1.26254e-06 0)
(694.73 2.17321e-06 0)
(694.73 3.73308e-06 0)
(694.73 6.39875e-06 0)
(694.73 1.0942e-05 0)
(694.73 1.86644e-05 0)
(694.73 3.175e-05 0)
(694.73 5.38531e-05 0)
(694.73 9.10547e-05 0)
(694.73 0.000153434 0)
(694.73 0.000257596 0)
(694.729 0.000430758 0)
(694.729 0.000717221 0)
(694.728 0.00118864 0)
(694.727 0.00195994 0)
(694.725 0.00321402 0)
(694.723 0.00523901 0)
(694.719 0.00848419 0)
(694.713 0.0136423 0)
(694.703 0.0217665 0)
(694.689 0.0344364 0)
(694.668 0.053969 0)
(694.637 0.0837279 0)
(694.73 8.67514e-14 0)
(694.73 2.69543e-13 0)
(694.73 5.99253e-13 0)
(694.73 1.15958e-12 0)
(694.73 2.26898e-12 0)
(694.73 4.26356e-12 0)
(694.73 7.79914e-12 0)
(694.73 1.40299e-11 0)
(694.73 2.49215e-11 0)
(694.73 4.39694e-11 0)
(694.73 7.71687e-11 0)
(694.73 1.35037e-10 0)
(694.73 2.35802e-10 0)
(694.73 4.11079e-10 0)
(694.73 7.15685e-10 0)
(694.73 1.24429e-09 0)
(694.73 2.16073e-09 0)
(694.73 3.7477e-09 0)
(694.73 6.49266e-09 0)
(694.73 1.1234e-08 0)
(694.73 1.94128e-08 0)
(694.73 3.34996e-08 0)
(694.73 5.77255e-08 0)
(694.73 9.93161e-08 0)
(694.73 1.70597e-07 0)
(694.73 2.92523e-07 0)
(694.73 5.00675e-07 0)
(694.73 8.55245e-07 0)
(694.73 1.45789e-06 0)
(694.73 2.4796e-06 0)
(694.73 4.20739e-06 0)
(694.73 7.12091e-06 0)
(694.73 1.20195e-05 0)
(694.73 2.02291e-05 0)
(694.73 3.39412e-05 0)
(694.73 5.67588e-05 0)
(694.73 9.45809e-05 0)
(694.73 0.000157007 0)
(694.73 0.000259576 0)
(694.729 0.000427274 0)
(694.729 0.000700016 0)
(694.728 0.00114106 0)
(694.727 0.0018499 0)
(694.726 0.00298151 0)
(694.724 0.00477496 0)
(694.721 0.00759529 0)
(694.715 0.0119927 0)
(694.708 0.0187868 0)
(694.697 0.0291739 0)
(694.68 0.0448872 0)
(694.73 7.13127e-14 0)
(694.73 2.09991e-13 0)
(694.73 4.36011e-13 0)
(694.73 8.75548e-13 0)
(694.73 1.7405e-12 0)
(694.73 3.28894e-12 0)
(694.73 5.94742e-12 0)
(694.73 1.06393e-11 0)
(694.73 1.88261e-11 0)
(694.73 3.3006e-11 0)
(694.73 5.76212e-11 0)
(694.73 1.00273e-10 0)
(694.73 1.74055e-10 0)
(694.73 3.01491e-10 0)
(694.73 5.21358e-10 0)
(694.73 9.00248e-10 0)
(694.73 1.55244e-09 0)
(694.73 2.67351e-09 0)
(694.73 4.598e-09 0)
(694.73 7.89653e-09 0)
(694.73 1.35419e-08 0)
(694.73 2.31872e-08 0)
(694.73 3.96396e-08 0)
(694.73 6.76497e-08 0)
(694.73 1.15248e-07 0)
(694.73 1.95962e-07 0)
(694.73 3.32543e-07 0)
(694.73 5.63118e-07 0)
(694.73 9.51445e-07 0)
(694.73 1.60373e-06 0)
(694.73 2.69643e-06 0)
(694.73 4.52151e-06 0)
(694.73 7.56053e-06 0)
(694.73 1.2604e-05 0)
(694.73 2.0945e-05 0)
(694.73 3.46872e-05 0)
(694.73 5.72389e-05 0)
(694.73 9.40885e-05 0)
(694.73 0.000154028 0)
(694.73 0.00025105 0)
(694.729 0.000407281 0)
(694.729 0.000657449 0)
(694.729 0.00105564 0)
(694.728 0.00168538 0)
(694.727 0.00267439 0)
(694.725 0.00421626 0)
(694.722 0.00660081 0)
(694.718 0.0102575 0)
(694.712 0.0158109 0)
(694.704 0.0241641 0)
(694.73 6.44177e-14 0)
(694.73 1.59823e-13 0)
(694.73 3.64061e-13 0)
(694.73 7.75857e-13 0)
(694.73 1.4348e-12 0)
(694.73 2.55206e-12 0)
(694.73 4.50597e-12 0)
(694.73 7.93151e-12 0)
(694.73 1.38518e-11 0)
(694.73 2.40793e-11 0)
(694.73 4.17721e-11 0)
(694.73 7.22245e-11 0)
(694.73 1.24628e-10 0)
(694.73 2.14571e-10 0)
(694.73 3.68717e-10 0)
(694.73 6.32634e-10 0)
(694.73 1.08385e-09 0)
(694.73 1.85404e-09 0)
(694.73 3.16678e-09 0)
(694.73 5.40058e-09 0)
(694.73 9.19555e-09 0)
(694.73 1.56312e-08 0)
(694.73 2.65253e-08 0)
(694.73 4.49296e-08 0)
(694.73 7.59594e-08 0)
(694.73 1.28159e-07 0)
(694.73 2.15778e-07 0)
(694.73 3.62486e-07 0)
(694.73 6.0752e-07 0)
(694.73 1.01566e-06 0)
(694.73 1.69359e-06 0)
(694.73 2.8162e-06 0)
(694.73 4.66938e-06 0)
(694.73 7.71815e-06 0)
(694.73 1.27162e-05 0)
(694.73 2.08787e-05 0)
(694.73 3.41562e-05 0)
(694.73 5.56618e-05 0)
(694.73 9.03383e-05 0)
(694.73 0.000145982 0)
(694.73 0.000234819 0)
(694.729 0.000375879 0)
(694.729 0.000598567 0)
(694.729 0.000947951 0)
(694.728 0.00149249 0)
(694.727 0.0023353 0)
(694.726 0.00362995 0)
(694.724 0.00560304 0)
(694.72 0.0085831 0)
(694.716 0.0130447 0)
(694.73 3.59852e-14 0)
(694.73 1.14768e-13 0)
(694.73 2.9468e-13 0)
(694.73 5.84294e-13 0)
(694.73 1.0294e-12 0)
(694.73 1.81668e-12 0)
(694.73 3.25138e-12 0)
(694.73 5.68969e-12 0)
(694.73 9.88731e-12 0)
(694.73 1.70983e-11 0)
(694.73 2.94769e-11 0)
(694.73 5.06995e-11 0)
(694.73 8.69322e-11 0)
(694.73 1.48795e-10 0)
(694.73 2.54246e-10 0)
(694.73 4.33661e-10 0)
(694.73 7.38448e-10 0)
(694.73 1.25531e-09 0)
(694.73 2.13044e-09 0)
(694.73 3.6096e-09 0)
(694.73 6.10535e-09 0)
(694.73 1.03082e-08 0)
(694.73 1.73726e-08 0)
(694.73 2.92218e-08 0)
(694.73 4.90553e-08 0)
(694.73 8.21762e-08 0)
(694.73 1.37359e-07 0)
(694.73 2.29065e-07 0)
(694.73 3.81079e-07 0)
(694.73 6.32354e-07 0)
(694.73 1.04653e-06 0)
(694.73 1.72708e-06 0)
(694.73 2.84183e-06 0)
(694.73 4.66151e-06 0)
(694.73 7.62143e-06 0)
(694.73 1.24178e-05 0)
(694.73 2.01594e-05 0)
(694.73 3.2602e-05 0)
(694.73 5.25118e-05 0)
(694.73 8.42201e-05 0)
(694.73 0.000134469 0)
(694.73 0.00021368 0)
(694.73 0.000337851 0)
(694.729 0.000531349 0)
(694.729 0.000830985 0)
(694.728 0.00129192 0)
(694.728 0.00199594 0)
(694.727 0.00306336 0)
(694.725 0.00466815 0)
(694.722 0.00706137 0)
(694.73 3.11298e-14 0)
(694.73 1.03606e-13 0)
(694.73 2.07529e-13 0)
(694.73 3.78283e-13 0)
(694.73 7.1323e-13 0)
(694.73 1.28457e-12 0)
(694.73 2.23305e-12 0)
(694.73 3.92069e-12 0)
(694.73 6.85319e-12 0)
(694.73 1.18479e-11 0)
(694.73 2.03462e-11 0)
(694.73 3.48125e-11 0)
(694.73 5.94043e-11 0)
(694.73 1.01163e-10 0)
(694.73 1.71891e-10 0)
(694.73 2.91403e-10 0)
(694.73 4.93209e-10 0)
(694.73 8.33406e-10 0)
(694.73 1.40576e-09 0)
(694.73 2.36702e-09 0)
(694.73 3.97862e-09 0)
(694.73 6.67501e-09 0)
(694.73 1.11775e-08 0)
(694.73 1.86797e-08 0)
(694.73 3.11531e-08 0)
(694.73 5.18426e-08 0)
(694.73 8.60788e-08 0)
(694.73 1.42585e-07 0)
(694.73 2.35606e-07 0)
(694.73 3.883e-07 0)
(694.73 6.38231e-07 0)
(694.73 1.04605e-06 0)
(694.73 1.70937e-06 0)
(694.73 2.7846e-06 0)
(694.73 4.5214e-06 0)
(694.73 7.31624e-06 0)
(694.73 1.17962e-05 0)
(694.73 1.89474e-05 0)
(694.73 3.03134e-05 0)
(694.73 4.82949e-05 0)
(694.73 7.66062e-05 0)
(694.73 0.000120954 0)
(694.73 0.00019005 0)
(694.73 0.000297094 0)
(694.729 0.00046193 0)
(694.729 0.000714171 0)
(694.729 0.00109758 0)
(694.728 0.00167631 0)
(694.727 0.00254301 0)
(694.726 0.0038312 0)
(694.73 1.35929e-14 0)
(694.73 5.05232e-14 0)
(694.73 1.07994e-13 0)
(694.73 2.33378e-13 0)
(694.73 4.90309e-13 0)
(694.73 8.81401e-13 0)
(694.73 1.55373e-12 0)
(694.73 2.73712e-12 0)
(694.73 4.73161e-12 0)
(694.73 8.11788e-12 0)
(694.73 1.383e-11 0)
(694.73 2.35292e-11 0)
(694.73 3.99294e-11 0)
(694.73 6.75894e-11 0)
(694.73 1.14147e-10 0)
(694.73 1.92441e-10 0)
(694.73 3.23842e-10 0)
(694.73 5.43986e-10 0)
(694.73 9.12202e-10 0)
(694.73 1.52698e-09 0)
(694.73 2.55151e-09 0)
(694.73 4.25545e-09 0)
(694.73 7.08344e-09 0)
(694.73 1.17666e-08 0)
(694.73 1.95047e-08 0)
(694.73 3.22602e-08 0)
(694.73 5.32356e-08 0)
(694.73 8.76376e-08 0)
(694.73 1.43912e-07 0)
(694.73 2.35703e-07 0)
(694.73 3.84994e-07 0)
(694.73 6.27052e-07 0)
(694.73 1.01828e-06 0)
(694.73 1.64844e-06 0)
(694.73 2.65995e-06 0)
(694.73 4.27755e-06 0)
(694.73 6.85448e-06 0)
(694.73 1.0943e-05 0)
(694.73 1.74023e-05 0)
(694.73 2.75615e-05 0)
(694.73 4.34655e-05 0)
(694.73 6.82402e-05 0)
(694.73 0.000106634 0)
(694.73 0.000165811 0)
(694.73 0.000256497 0)
(694.73 0.000394638 0)
(694.729 0.000603732 0)
(694.729 0.000918152 0)
(694.728 0.00138743 0)
(694.728 0.00208292 0)
(694.73 -1.39399e-14 0)
(694.73 -7.73809e-15 0)
(694.73 3.79556e-14 0)
(694.73 1.24634e-13 0)
(694.73 2.3252e-13 0)
(694.73 5.05726e-13 0)
(694.73 1.00374e-12 0)
(694.73 1.77295e-12 0)
(694.73 3.0544e-12 0)
(694.73 5.27348e-12 0)
(694.73 9.04209e-12 0)
(694.73 1.53949e-11 0)
(694.73 2.613e-11 0)
(694.73 4.41189e-11 0)
(694.73 7.42967e-11 0)
(694.73 1.24805e-10 0)
(694.73 2.0911e-10 0)
(694.73 3.49557e-10 0)
(694.73 5.83267e-10 0)
(694.73 9.71276e-10 0)
(694.73 1.61416e-09 0)
(694.73 2.67728e-09 0)
(694.73 4.43181e-09 0)
(694.73 7.3208e-09 0)
(694.73 1.20671e-08 0)
(694.73 1.98457e-08 0)
(694.73 3.25631e-08 0)
(694.73 5.33005e-08 0)
(694.73 8.70258e-08 0)
(694.73 1.41717e-07 0)
(694.73 2.30154e-07 0)
(694.73 3.72716e-07 0)
(694.73 6.01804e-07 0)
(694.73 9.68701e-07 0)
(694.73 1.55429e-06 0)
(694.73 2.4855e-06 0)
(694.73 3.96077e-06 0)
(694.73 6.28865e-06 0)
(694.73 9.94676e-06 0)
(694.73 1.56702e-05 0)
(694.73 2.45847e-05 0)
(694.73 3.84033e-05 0)
(694.73 5.97175e-05 0)
(694.73 9.24211e-05 0)
(694.73 0.000142325 0)
(694.73 0.000218041 0)
(694.73 0.000332225 0)
(694.729 0.000503356 0)
(694.729 0.000758021 0)
(694.729 0.0011345 0)
(694.73 2.90404e-14 0)
(694.73 5.1235e-14 0)
(694.73 4.29259e-14 0)
(694.73 9.58152e-14 0)
(694.73 2.09986e-13 0)
(694.73 3.94796e-13 0)
(694.73 7.04173e-13 0)
(694.73 1.19998e-12 0)
(694.73 2.04629e-12 0)
(694.73 3.4512e-12 0)
(694.73 5.86008e-12 0)
(694.73 9.96808e-12 0)
(694.73 1.68968e-11 0)
(694.73 2.84834e-11 0)
(694.73 4.78112e-11 0)
(694.73 7.9959e-11 0)
(694.73 1.33327e-10 0)
(694.73 2.21855e-10 0)
(694.73 3.68397e-10 0)
(694.73 6.1038e-10 0)
(694.73 1.00925e-09 0)
(694.73 1.66537e-09 0)
(694.73 2.74241e-09 0)
(694.73 4.50649e-09 0)
(694.73 7.38931e-09 0)
(694.73 1.20888e-08 0)
(694.73 1.97309e-08 0)
(694.73 3.21259e-08 0)
(694.73 5.21762e-08 0)
(694.73 8.45187e-08 0)
(694.73 1.36539e-07 0)
(694.73 2.19955e-07 0)
(694.73 3.53296e-07 0)
(694.73 5.65739e-07 0)
(694.73 9.03064e-07 0)
(694.73 1.43676e-06 0)
(694.73 2.27805e-06 0)
(694.73 3.59904e-06 0)
(694.73 5.66493e-06 0)
(694.73 8.88211e-06 0)
(694.73 1.38703e-05 0)
(694.73 2.15687e-05 0)
(694.73 3.33932e-05 0)
(694.73 5.14639e-05 0)
(694.73 7.89347e-05 0)
(694.73 0.000120468 0)
(694.73 0.000182901 0)
(694.73 0.000276196 0)
(694.73 0.000414672 0)
(694.729 0.000618928 0)
(694.73 -1.96413e-14 0)
(694.73 -2.21953e-14 0)
(694.73 1.53483e-14 0)
(694.73 6.56774e-14 0)
(694.73 1.33049e-13 0)
(694.73 2.21985e-13 0)
(694.73 4.03706e-13 0)
(694.73 7.41564e-13 0)
(694.73 1.30565e-12 0)
(694.73 2.2604e-12 0)
(694.73 3.83454e-12 0)
(694.73 6.48174e-12 0)
(694.73 1.09027e-11 0)
(694.73 1.82524e-11 0)
(694.73 3.04466e-11 0)
(694.73 5.0655e-11 0)
(694.73 8.4106e-11 0)
(694.73 1.39318e-10 0)
(694.73 2.30156e-10 0)
(694.73 3.79472e-10 0)
(694.73 6.24521e-10 0)
(694.73 1.02566e-09 0)
(694.73 1.68087e-09 0)
(694.73 2.74875e-09 0)
(694.73 4.48524e-09 0)
(694.73 7.302e-09 0)
(694.73 1.18599e-08 0)
(694.73 1.9216e-08 0)
(694.73 3.1057e-08 0)
(694.73 5.00635e-08 0)
(694.73 8.0485e-08 0)
(694.73 1.2903e-07 0)
(694.73 2.06258e-07 0)
(694.73 3.28715e-07 0)
(694.73 5.22247e-07 0)
(694.73 8.27029e-07 0)
(694.73 1.30529e-06 0)
(694.73 2.05291e-06 0)
(694.73 3.21705e-06 0)
(694.73 5.02231e-06 0)
(694.73 7.8099e-06 0)
(694.73 1.20952e-05 0)
(694.73 1.86526e-05 0)
(694.73 2.8638e-05 0)
(694.73 4.37668e-05 0)
(694.73 6.65684e-05 0)
(694.73 0.000100745 0)
(694.73 0.000151683 0)
(694.73 0.000227115 0)
(694.73 0.000338161 0)
(694.73 -2.68838e-14 0)
(694.73 -4.29321e-14 0)
(694.73 1.11496e-15 0)
(694.73 1.90405e-14 0)
(694.73 5.27112e-14 0)
(694.73 1.56083e-13 0)
(694.73 2.65096e-13 0)
(694.73 4.74911e-13 0)
(694.73 9.27207e-13 0)
(694.73 1.58493e-12 0)
(694.73 2.623e-12 0)
(694.73 4.31806e-12 0)
(694.73 7.07707e-12 0)
(694.73 1.16901e-11 0)
(694.73 1.93282e-11 0)
(694.73 3.19154e-11 0)
(694.73 5.26945e-11 0)
(694.73 8.68118e-11 0)
(694.73 1.42654e-10 0)
(694.73 2.33971e-10 0)
(694.73 3.83156e-10 0)
(694.73 6.26338e-10 0)
(694.73 1.0218e-09 0)
(694.73 1.66333e-09 0)
(694.73 2.7017e-09 0)
(694.73 4.37835e-09 0)
(694.73 7.07903e-09 0)
(694.73 1.14179e-08 0)
(694.73 1.83702e-08 0)
(694.73 2.94793e-08 0)
(694.73 4.71805e-08 0)
(694.73 7.53015e-08 0)
(694.73 1.19841e-07 0)
(694.73 1.90157e-07 0)
(694.73 3.0081e-07 0)
(694.73 4.74336e-07 0)
(694.73 7.45504e-07 0)
(694.73 1.16769e-06 0)
(694.73 1.8225e-06 0)
(694.73 2.83405e-06 0)
(694.73 4.39028e-06 0)
(694.73 6.77417e-06 0)
(694.73 1.04096e-05 0)
(694.73 1.59279e-05 0)
(694.73 2.42634e-05 0)
(694.73 3.67911e-05 0)
(694.73 5.55199e-05 0)
(694.73 8.3369e-05 0)
(694.73 0.000124525 0)
(694.73 0.000185005 0)
(694.73 7.54566e-15 0)
(694.73 1.3523e-14 0)
(694.73 1.65344e-14 0)
(694.73 2.87073e-14 0)
(694.73 8.45567e-14 0)
(694.73 1.5368e-13 0)
(694.73 2.5883e-13 0)
(694.73 3.72982e-13 0)
(694.73 5.90047e-13 0)
(694.73 1.00803e-12 0)
(694.73 1.67015e-12 0)
(694.73 2.72604e-12 0)
(694.73 4.4772e-12 0)
(694.73 7.34586e-12 0)
(694.73 1.20839e-11 0)
(694.73 1.98636e-11 0)
(694.73 3.25315e-11 0)
(694.73 5.33354e-11 0)
(694.73 8.74182e-11 0)
(694.73 1.42944e-10 0)
(694.73 2.3321e-10 0)
(694.73 3.79623e-10 0)
(694.73 6.16649e-10 0)
(694.73 9.99527e-10 0)
(694.73 1.61663e-09 0)
(694.73 2.60883e-09 0)
(694.73 4.20025e-09 0)
(694.73 6.74607e-09 0)
(694.73 1.08081e-08 0)
(694.73 1.72717e-08 0)
(694.73 2.75282e-08 0)
(694.73 4.37551e-08 0)
(694.73 6.93514e-08 0)
(694.73 1.09601e-07 0)
(694.73 1.72688e-07 0)
(694.73 2.71241e-07 0)
(694.73 4.24666e-07 0)
(694.73 6.62655e-07 0)
(694.73 1.03045e-06 0)
(694.73 1.59665e-06 0)
(694.73 2.46481e-06 0)
(694.73 3.79041e-06 0)
(694.73 5.80577e-06 0)
(694.73 8.85601e-06 0)
(694.73 1.34509e-05 0)
(694.73 2.03392e-05 0)
(694.73 3.06133e-05 0)
(694.73 4.58583e-05 0)
(694.73 6.83463e-05 0)
(694.73 0.00010134 0)
(694.73 1.42854e-14 0)
(694.73 2.50405e-14 0)
(694.73 4.67791e-14 0)
(694.73 8.08456e-14 0)
(694.73 8.57543e-14 0)
(694.73 8.18898e-14 0)
(694.73 1.40007e-13 0)
(694.73 2.21669e-13 0)
(694.73 3.21252e-13 0)
(694.73 5.66087e-13 0)
(694.73 1.02888e-12 0)
(694.73 1.71635e-12 0)
(694.73 2.76759e-12 0)
(694.73 4.5312e-12 0)
(694.73 7.43456e-12 0)
(694.73 1.21616e-11 0)
(694.73 1.99136e-11 0)
(694.73 3.25265e-11 0)
(694.73 5.3095e-11 0)
(694.73 8.65752e-11 0)
(694.73 1.40756e-10 0)
(694.73 2.28331e-10 0)
(694.73 3.6959e-10 0)
(694.73 5.96887e-10 0)
(694.73 9.61686e-10 0)
(694.73 1.54586e-09 0)
(694.73 2.47907e-09 0)
(694.73 3.96599e-09 0)
(694.73 6.32918e-09 0)
(694.73 1.00749e-08 0)
(694.73 1.59957e-08 0)
(694.73 2.53276e-08 0)
(694.73 3.99925e-08 0)
(694.73 6.29676e-08 0)
(694.73 9.88487e-08 0)
(694.73 1.54702e-07 0)
(694.73 2.41351e-07 0)
(694.73 3.75305e-07 0)
(694.73 5.81642e-07 0)
(694.73 8.98278e-07 0)
(694.73 1.38229e-06 0)
(694.73 2.11918e-06 0)
(694.73 3.23637e-06 0)
(694.73 4.92278e-06 0)
(694.73 7.45689e-06 0)
(694.73 1.12472e-05 0)
(694.73 1.68885e-05 0)
(694.73 2.52434e-05 0)
(694.73 3.75472e-05 0)
(694.73 5.5573e-05 0)
(694.73 7.18486e-15 0)
(694.73 1.52042e-14 0)
(694.73 3.31354e-14 0)
(694.73 5.16964e-14 0)
(694.73 7.84086e-14 0)
(694.73 8.79128e-14 0)
(694.73 1.06567e-13 0)
(694.73 1.66818e-13 0)
(694.73 2.30416e-13 0)
(694.73 3.61533e-13 0)
(694.73 6.0895e-13 0)
(694.73 9.93654e-13 0)
(694.73 1.66076e-12 0)
(694.73 2.77968e-12 0)
(694.73 4.54955e-12 0)
(694.73 7.43985e-12 0)
(694.73 1.21509e-11 0)
(694.73 1.98064e-11 0)
(694.73 3.22273e-11 0)
(694.73 5.23039e-11 0)
(694.73 8.46414e-11 0)
(694.73 1.3672e-10 0)
(694.73 2.20452e-10 0)
(694.73 3.54658e-10 0)
(694.73 5.6926e-10 0)
(694.73 9.11626e-10 0)
(694.73 1.45651e-09 0)
(694.73 2.32157e-09 0)
(694.73 3.69139e-09 0)
(694.73 5.85467e-09 0)
(694.73 9.26192e-09 0)
(694.73 1.46133e-08 0)
(694.73 2.29938e-08 0)
(694.73 3.60783e-08 0)
(694.73 5.64446e-08 0)
(694.73 8.80433e-08 0)
(694.73 1.36908e-07 0)
(694.73 2.12215e-07 0)
(694.73 3.27864e-07 0)
(694.73 5.04818e-07 0)
(694.73 7.74554e-07 0)
(694.73 1.18411e-06 0)
(694.73 1.80346e-06 0)
(694.73 2.73611e-06 0)
(694.73 4.13442e-06 0)
(694.73 6.22149e-06 0)
(694.73 9.32187e-06 0)
(694.73 1.39056e-05 0)
(694.73 2.06456e-05 0)
(694.73 3.05071e-05 0)
(694.73 -2.07458e-15 0)
(694.73 -3.93275e-15 0)
(694.73 -3.13031e-14 0)
(694.73 -2.4425e-15 0)
(694.73 2.39406e-14 0)
(694.73 5.53639e-14 0)
(694.73 1.04298e-13 0)
(694.73 1.62165e-13 0)
(694.73 1.65949e-13 0)
(694.73 1.63958e-13 0)
(694.73 2.46289e-13 0)
(694.73 4.72895e-13 0)
(694.73 8.82674e-13 0)
(694.73 1.55689e-12 0)
(694.73 2.61355e-12 0)
(694.73 4.3288e-12 0)
(694.73 7.16518e-12 0)
(694.73 1.18366e-11 0)
(694.73 1.93359e-11 0)
(694.73 3.1328e-11 0)
(694.73 5.05946e-11 0)
(694.73 8.15074e-11 0)
(694.73 1.30897e-10 0)
(694.73 2.09708e-10 0)
(694.73 3.35387e-10 0)
(694.73 5.3521e-10 0)
(694.73 8.52133e-10 0)
(694.73 1.35364e-09 0)
(694.73 2.14511e-09 0)
(694.73 3.3908e-09 0)
(694.73 5.34622e-09 0)
(694.73 8.40724e-09 0)
(694.73 1.31855e-08 0)
(694.73 2.06221e-08 0)
(694.73 3.21616e-08 0)
(694.73 5.0011e-08 0)
(694.73 7.75323e-08 0)
(694.73 1.19824e-07 0)
(694.73 1.84592e-07 0)
(694.73 2.83427e-07 0)
(694.73 4.33695e-07 0)
(694.73 6.61296e-07 0)
(694.73 1.00468e-06 0)
(694.73 1.52062e-06 0)
(694.73 2.29257e-06 0)
(694.73 3.44254e-06 0)
(694.73 5.14787e-06 0)
(694.73 7.66513e-06 0)
(694.73 1.13613e-05 0)
(694.73 1.6763e-05 0)
(694.73 -2.02699e-14 0)
(694.73 -1.4917e-14 0)
(694.73 1.21678e-14 0)
(694.73 3.0064e-14 0)
(694.73 1.20153e-14 0)
(694.73 2.24278e-14 0)
(694.73 5.95209e-14 0)
(694.73 7.92038e-14 0)
(694.73 1.1504e-13 0)
(694.73 1.93598e-13 0)
(694.73 2.70107e-13 0)
(694.73 4.09773e-13 0)
(694.73 6.63844e-13 0)
(694.73 1.04445e-12 0)
(694.73 1.67635e-12 0)
(694.73 2.7182e-12 0)
(694.73 4.40746e-12 0)
(694.73 7.09199e-12 0)
(694.73 1.14645e-11 0)
(694.73 1.85634e-11 0)
(694.73 2.99842e-11 0)
(694.73 4.82072e-11 0)
(694.73 7.72256e-11 0)
(694.73 1.23419e-10 0)
(694.73 1.96771e-10 0)
(694.73 3.13011e-10 0)
(694.73 4.96845e-10 0)
(694.73 7.8673e-10 0)
(694.73 1.24267e-09 0)
(694.73 1.9581e-09 0)
(694.73 3.07771e-09 0)
(694.73 4.82492e-09 0)
(694.73 7.54407e-09 0)
(694.73 1.17637e-08 0)
(694.73 1.82924e-08 0)
(694.73 2.83626e-08 0)
(694.73 4.38469e-08 0)
(694.73 6.75784e-08 0)
(694.73 1.03828e-07 0)
(694.73 1.59008e-07 0)
(694.73 2.42704e-07 0)
(694.73 3.69185e-07 0)
(694.73 5.59595e-07 0)
(694.73 8.45112e-07 0)
(694.73 1.27149e-06 0)
(694.73 1.90554e-06 0)
(694.73 2.84428e-06 0)
(694.73 4.22797e-06 0)
(694.73 6.2571e-06 0)
(694.73 9.21923e-06 0)
(694.73 1.51706e-14 0)
(694.73 2.29857e-14 0)
(694.73 4.15887e-15 0)
(694.73 -7.03332e-14 0)
(694.73 -6.41071e-14 0)
(694.73 -8.48642e-15 0)
(694.73 2.12672e-16 0)
(694.73 2.29921e-14 0)
(694.73 1.14149e-13 0)
(694.73 1.92388e-13 0)
(694.73 2.28989e-13 0)
(694.73 2.67288e-13 0)
(694.73 3.74251e-13 0)
(694.73 6.10371e-13 0)
(694.73 1.04008e-12 0)
(694.73 1.705e-12 0)
(694.73 2.69524e-12 0)
(694.73 4.23108e-12 0)
(694.73 6.76527e-12 0)
(694.73 1.09394e-11 0)
(694.73 1.76513e-11 0)
(694.73 2.82963e-11 0)
(694.73 4.52247e-11 0)
(694.73 7.21971e-11 0)
(694.73 1.14902e-10 0)
(694.73 1.82341e-10 0)
(694.73 2.88627e-10 0)
(694.73 4.55687e-10 0)
(694.73 7.17713e-10 0)
(694.73 1.12761e-09 0)
(694.73 1.76723e-09 0)
(694.73 2.76262e-09 0)
(694.73 4.30738e-09 0)
(694.73 6.69798e-09 0)
(694.73 1.03868e-08 0)
(694.73 1.60619e-08 0)
(694.73 2.47658e-08 0)
(694.73 3.80726e-08 0)
(694.73 5.83503e-08 0)
(694.73 8.91464e-08 0)
(694.73 1.35755e-07 0)
(694.73 2.06041e-07 0)
(694.73 3.11642e-07 0)
(694.73 4.69693e-07 0)
(694.73 7.05303e-07 0)
(694.73 1.05511e-06 0)
(694.73 1.57224e-06 0)
(694.73 2.33347e-06 0)
(694.73 3.44847e-06 0)
(694.73 5.07453e-06 0)
(694.73 8.93967e-15 0)
(694.73 -4.93938e-16 0)
(694.73 -1.23157e-14 0)
(694.73 6.74023e-15 0)
(694.73 4.31714e-14 0)
(694.73 1.07829e-14 0)
(694.73 -6.47821e-14 0)
(694.73 -1.08857e-13 0)
(694.73 -9.71674e-14 0)
(694.73 -7.82596e-14 0)
(694.73 -7.48294e-14 0)
(694.73 -3.98871e-14 0)
(694.73 9.22769e-15 0)
(694.73 1.16785e-13 0)
(694.73 3.48289e-13 0)
(694.73 7.44374e-13 0)
(694.73 1.3952e-12 0)
(694.73 2.42333e-12 0)
(694.73 3.99951e-12 0)
(694.73 6.44309e-12 0)
(694.73 1.03323e-11 0)
(694.73 1.65616e-11 0)
(694.73 2.65002e-11 0)
(694.73 4.22115e-11 0)
(694.73 6.69885e-11 0)
(694.73 1.05988e-10 0)
(694.73 1.67231e-10 0)
(694.73 2.63273e-10 0)
(694.73 4.13553e-10 0)
(694.73 6.48013e-10 0)
(694.73 1.01279e-09 0)
(694.73 1.57888e-09 0)
(694.73 2.45516e-09 0)
(694.73 3.80782e-09 0)
(694.73 5.88985e-09 0)
(694.73 9.08505e-09 0)
(694.73 1.3974e-08 0)
(694.73 2.14312e-08 0)
(694.73 3.27698e-08 0)
(694.73 4.99531e-08 0)
(694.73 7.59059e-08 0)
(694.73 1.14967e-07 0)
(694.73 1.73546e-07 0)
(694.73 2.61067e-07 0)
(694.73 3.91326e-07 0)
(694.73 5.84428e-07 0)
(694.73 8.69508e-07 0)
(694.73 1.28863e-06 0)
(694.73 1.90188e-06 0)
(694.73 2.79537e-06 0)
(694.73 -9.95793e-15 0)
(694.73 -4.36248e-14 0)
(694.73 -4.552e-14 0)
(694.73 -3.43824e-14 0)
(694.73 -7.06625e-14 0)
(694.73 -1.26467e-13 0)
(694.73 -1.56584e-13 0)
(694.73 -1.64515e-13 0)
(694.73 -2.02975e-13 0)
(694.73 -2.07816e-13 0)
(694.73 -1.27129e-13 0)
(694.73 -2.40592e-14 0)
(694.73 8.62396e-14 0)
(694.73 1.70394e-13 0)
(694.73 2.51511e-13 0)
(694.73 4.33452e-13 0)
(694.73 7.81047e-13 0)
(694.73 1.35751e-12 0)
(694.73 2.28368e-12 0)
(694.73 3.7397e-12 0)
(694.73 6.03175e-12 0)
(694.73 9.6951e-12 0)