/*--------------------------------*- C++ -*----------------------------------*\
| =========                 |                                                 |
| \\      /  F ield         | OpenFOAM: The Open Source CFD Toolbox           |
|  \\    /   O peration     | Version:  2412                                  |
|   \\  /    A nd           | Website:  www.openfoam.com                      |
|    \\/     M anipulation  |                                                 |
\*---------------------------------------------------------------------------*/
FoamFile
{
    version     2.0;
    format      ascii;
    arch        "LSB;label=32;scalar=64";
    class       volScalarField;
    location    "0.5";
    object      Ma;
}
// * * * * * * * * * * * * * * * * * * * * * * * * * * * * * * * * * * * * * //

dimensions      [0 0 0 0 0 0 0];

internalField   nonuniform List<scalar> 
200
(
0.0496319
0.0273019
0.0401301
0.0363802
0.0339466
0.033715
0.0342499
0.0345682
0.0343307
0.0334499
0.0286414
0.0281877
0.0445356
0.0424014
0.0392282
0.0383939
0.0387906
0.0393194
0.0396834
0.0398548
0.0117516
0.0298869
0.0494188
0.0490252
0.04538
0.0439011
0.0439641
0.0443519
0.0446425
0.0447784
0.00136325
0.0322499
0.0531965
0.0542891
0.0507258
0.0489589
0.0488254
0.0491064
0.0493159
0.0493879
0.00757799
0.0345688
0.0560153
0.0581821
0.054901
0.0530583
0.0528418
0.0530797
0.0532495
0.0532893
0.0133083
0.03661
0.0581389
0.061045
0.0580508
0.0562215
0.0559847
0.056221
0.0563867
0.056429
0.0175085
0.0382874
0.0597383
0.0631309
0.0603693
0.0585789
0.0583478
0.0585985
0.0587785
0.0588412
0.0204661
0.0395608
0.060894
0.0645966
0.0620027
0.060251
0.0600317
0.0603
0.0604983
0.0605853
0.0223605
0.0404115
0.0616432
0.0655317
0.0630451
0.0613223
0.0611138
0.0613973
0.0616104
0.0617173
0.0232642
0.0408206
0.062
0.0659777
0.063545
0.0618381
0.061636
0.0619278
0.0621501
0.0622679
0.0346856
0.0399396
0.0451643
0.0492986
0.0527814
0.0560845
0.0593697
0.0626466
0.0659233
0.0708951
0.0419257
0.0456083
0.0495303
0.0530098
0.0561727
0.0592602
0.0623553
0.0654907
0.0687456
0.0735343
0.0462865
0.0487093
0.0516267
0.0545669
0.0574364
0.0603168
0.0632671
0.066314
0.0695081
0.0742283
0.050508
0.0523473
0.0547005
0.0572469
0.059855
0.0625428
0.0653473
0.0682854
0.0713719
0.075951
0.0540757
0.0554234
0.057221
0.0592715
0.0614764
0.0638319
0.0663648
0.0690896
0.0720256
0.0764961
0.0569912
0.0580129
0.0594459
0.061176
0.0631342
0.0653077
0.0677042
0.0703257
0.0731726
0.0775199
0.059266
0.0600716
0.0612502
0.0627335
0.0644746
0.0664554
0.0686801
0.071149
0.0738685
0.0781144
0.0609299
0.0615989
0.06261
0.063925
0.0655136
0.0673608
0.0694729
0.0718505
0.0744985
0.0786676
0.0620211
0.0626113
0.0635228
0.0647348
0.0662259
0.0679844
0.070018
0.0723269
0.0749175
0.0790324
0.0625564
0.063112
0.0639787
0.0651439
0.0665899
0.0683067
0.0703028
0.0725788
0.0751425
0.0792301
)
;

boundaryField
{
    inlet
    {
        type            calculated;
        value           uniform 0.149424;
    }
    sym
    {
        type            calculated;
        value           nonuniform List<scalar> 10(0.0496262 0.0272439 0.0400744 0.036349 0.033932 0.0337101 0.0342498 0.0345648 0.0343073 0.0333676);
    }
    wedge
    {
        type            calculated;
        value           nonuniform List<scalar> 10(0.0341951 0.0396913 0.044998 0.0491797 0.0526936 0.0560141 0.0593078 0.0625885 0.0658681 0.0708231);
    }
    top
    {
        type            calculated;
        value           nonuniform List<scalar> 
20
(
0.0232641
0.0408206
0.062
0.0659777
0.063545
0.0618381
0.061636
0.0619278
0.06215
0.0622677
0.062556
0.0631109
0.0639766
0.0651407
0.0665854
0.0683008
0.0702956
0.0725704
0.0751329
0.0792196
)
;
    }
    back
    {
        type            empty;
    }
    front
    {
        type            empty;
    }
    outlet
    {
        type            calculated;
        value           nonuniform List<scalar> 10(0.0708948 0.0735336 0.074228 0.0759509 0.0764962 0.0775199 0.0781144 0.0786676 0.0790325 0.0792302);
    }
}


// ************************************************************************* //
