/*--------------------------------*- C++ -*----------------------------------*\
| =========                 |                                                 |
| \\      /  F ield         | OpenFOAM: The Open Source CFD Toolbox           |
|  \\    /   O peration     | Version:  2412                                  |
|   \\  /    A nd           | Website:  www.openfoam.com                      |
|    \\/     M anipulation  |                                                 |
\*---------------------------------------------------------------------------*/
FoamFile
{
    version     2.0;
    format      ascii;
    arch        "LSB;label=32;scalar=64";
    class       volScalarField;
    location    "0.5";
    object      p;
}
// * * * * * * * * * * * * * * * * * * * * * * * * * * * * * * * * * * * * * //

dimensions      [1 -1 -2 0 0 0 0];

internalField   nonuniform List<scalar> 
200
(
1.01303
1.00755
1.00621
1.00688
1.00755
1.00799
1.00832
1.00862
1.00893
1.00925
1.01283
1.00826
1.00655
1.00695
1.00761
1.00806
1.00837
1.00864
1.00891
1.00918
1.0125
1.00934
1.00711
1.00714
1.00775
1.0082
1.00849
1.00873
1.00897
1.00922
1.01222
1.0101
1.00759
1.00734
1.00789
1.00833
1.0086
1.00882
1.00904
1.00927
1.01199
1.0106
1.00795
1.00752
1.00801
1.00845
1.00871
1.00891
1.00911
1.00933
1.01181
1.01093
1.00821
1.00765
1.00811
1.00855
1.0088
1.00899
1.00918
1.00938
1.01167
1.01114
1.0084
1.00776
1.00818
1.00862
1.00887
1.00905
1.00923
1.00943
1.01157
1.01127
1.00852
1.00783
1.00823
1.00867
1.00892
1.00909
1.00927
1.00946
1.0115
1.01135
1.0086
1.00788
1.00827
1.0087
1.00895
1.00912
1.00929
1.00948
1.01146
1.01139
1.00864
1.0079
1.00828
1.00872
1.00897
1.00914
1.0093
1.00949
1.00974
1.01007
1.01032
1.01062
1.01096
1.01131
1.01166
1.01199
1.01233
1.01267
1.00959
1.01
1.01034
1.01069
1.01105
1.01141
1.01177
1.01211
1.01244
1.01275
1.00961
1.01005
1.01043
1.0108
1.01116
1.01151
1.01186
1.01219
1.01251
1.01281
1.00963
1.01007
1.01045
1.01081
1.01117
1.01152
1.01186
1.0122
1.01251
1.01282
1.00967
1.0101
1.01048
1.01085
1.01122
1.01157
1.01192
1.01226
1.01258
1.01288
1.00971
1.01012
1.0105
1.01087
1.01124
1.01159
1.01194
1.01227
1.01258
1.01288
1.00974
1.01014
1.01052
1.01089
1.01125
1.01161
1.01195
1.01229
1.01261
1.01291
1.00976
1.01015
1.01053
1.0109
1.01126
1.01162
1.01197
1.0123
1.01262
1.01291
1.00978
1.01016
1.01054
1.01091
1.01127
1.01163
1.01197
1.01231
1.01262
1.01292
1.00978
1.01017
1.01054
1.01091
1.01127
1.01163
1.01198
1.01231
1.01263
1.01292
)
;

boundaryField
{
    inlet
    {
        type            fixedValue;
        value           uniform 1;
    }
    sym
    {
        type            slip;
    }
    wedge
    {
        type            slip;
    }
    top
    {
        type            slip;
    }
    back
    {
        type            empty;
    }
    front
    {
        type            empty;
    }
    outlet
    {
        type            zeroGradient;
    }
}


// ************************************************************************* //
