/*--------------------------------*- C++ -*----------------------------------*\
| =========                 |                                                 |
| \\      /  F ield         | OpenFOAM: The Open Source CFD Toolbox           |
|  \\    /   O peration     | Version:  2412                                  |
|   \\  /    A nd           | Website:  www.openfoam.com                      |
|    \\/     M anipulation  |                                                 |
\*---------------------------------------------------------------------------*/
FoamFile
{
    version     2.0;
    format      ascii;
    arch        "LSB;label=32;scalar=64";
    class       volScalarField;
    location    "0.5";
    object      p;
}
// * * * * * * * * * * * * * * * * * * * * * * * * * * * * * * * * * * * * * //

dimensions      [1 -1 -2 0 0 0 0];

internalField   nonuniform List<scalar> 
200
(
1.11502
0.95496
1.03993
0.999178
1.01627
1.01212
1.01191
1.01222
1.01246
1.01269
1.1149
0.955196
1.0398
0.999407
1.01617
1.01226
1.01199
1.01228
1.01251
1.01272
1.11467
0.955642
1.03959
0.999816
1.01605
1.01252
1.01221
1.01249
1.01273
1.01296
1.11436
0.956237
1.0393
1.00036
1.01591
1.01284
1.01253
1.01279
1.01305
1.01328
1.11399
0.956927
1.039
1.00097
1.01578
1.01322
1.01293
1.01319
1.01347
1.01373
1.11361
0.957641
1.03869
1.00158
1.01566
1.01362
1.01337
1.01362
1.01392
1.01421
1.11325
0.958315
1.03843
1.00214
1.01557
1.01402
1.0138
1.01406
1.01439
1.0147
1.11295
0.95889
1.03824
1.0026
1.01552
1.01438
1.01419
1.01446
1.01481
1.01514
1.11273
0.959305
1.03812
1.00294
1.01549
1.01466
1.0145
1.01478
1.01513
1.01546
1.11261
0.959516
1.03807
1.00312
1.01549
1.01481
1.01467
1.01495
1.01531
1.01564
1.01311
1.01337
1.01381
1.01438
1.015
1.01563
1.01624
1.01683
1.01737
1.01794
1.01306
1.01355
1.0141
1.01472
1.01535
1.01596
1.01655
1.01711
1.01762
1.01812
1.01333
1.01389
1.01447
1.01507
1.01567
1.01626
1.01681
1.01733
1.01782
1.01829
1.01369
1.01428
1.01488
1.01547
1.01605
1.0166
1.01712
1.01761
1.01806
1.0185
1.01417
1.01479
1.01537
1.01593
1.01646
1.01696
1.01744
1.01789
1.01831
1.01873
1.01467
1.01529
1.01585
1.01636
1.01684
1.0173
1.01773
1.01815
1.01854
1.01894
1.01518
1.01577
1.0163
1.01677
1.01721
1.01762
1.01802
1.01841
1.01877
1.01915
1.01561
1.01618
1.01667
1.0171
1.0175
1.01788
1.01824
1.0186
1.01895
1.01931
1.01593
1.01647
1.01693
1.01734
1.01771
1.01807
1.01841
1.01876
1.01909
1.01945
1.01609
1.01662
1.01707
1.01746
1.01782
1.01816
1.0185
1.01883
1.01916
1.01951
)
;

boundaryField
{
    inlet
    {
        type            fixedValue;
        value           uniform 1;
    }
    sym
    {
        type            slip;
    }
    wedge
    {
        type            slip;
    }
    top
    {
        type            slip;
    }
    back
    {
        type            empty;
    }
    front
    {
        type            empty;
    }
    outlet
    {
        type            zeroGradient;
    }
}


// ************************************************************************* //
