/*--------------------------------*- C++ -*----------------------------------*\
| =========                 |                                                 |
| \\      /  F ield         | OpenFOAM: The Open Source CFD Toolbox           |
|  \\    /   O peration     | Version:  2412                                  |
|   \\  /    A nd           | Website:  www.openfoam.com                      |
|    \\/     M anipulation  |                                                 |
\*---------------------------------------------------------------------------*/
FoamFile
{
    version     2.0;
    format      ascii;
    arch        "LSB;label=32;scalar=64";
    class       surfaceScalarField;
    location    "0.5";
    object      phi;
}
// * * * * * * * * * * * * * * * * * * * * * * * * * * * * * * * * * * * * * //

dimensions      [1 0 -1 0 0 0 0];

oriented        oriented;

internalField   nonuniform List<scalar> 
370
(
0.529202
6.21293e-08
0.529201
3.74582e-07
0.529201
1.21486e-06
0.529201
3.23246e-06
0.529201
7.89769e-06
0.529202
1.85618e-05
0.529189
4.29026e-05
0.529069
9.92044e-05
0.528718
0.000232554
0.000569286
0.526777
0.529202
3.14357e-08
0.529202
1.97065e-07
0.529202
6.62886e-07
0.529204
1.79806e-06
0.529208
4.43552e-06
0.529218
1.04549e-05
0.529244
2.4098e-05
0.529302
5.50137e-05
0.529434
0.000125096
0.00028685
0.529686
0.529202
9.63809e-09
0.529202
6.03268e-08
0.529202
2.02497e-07
0.529203
5.48019e-07
0.529206
1.34848e-06
0.529213
3.16889e-06
0.52923
7.27731e-06
0.52927
1.65286e-05
0.529364
3.7262e-05
8.42419e-05
0.529581
0.529202
2.96083e-09
0.529202
1.85275e-08
0.529202
6.2154e-08
0.529202
1.68075e-07
0.529203
4.13159e-07
0.529205
9.69679e-07
0.52921
2.22322e-06
0.52922
5.03815e-06
0.529245
1.13275e-05
2.54718e-05
0.529303
0.529202
9.12975e-10
0.529202
5.70923e-09
0.529202
1.91426e-08
0.529202
5.17691e-08
0.529202
1.27338e-07
0.529203
2.99191e-07
0.529204
6.87003e-07
0.529207
1.55964e-06
0.529214
3.51424e-06
7.91421e-06
0.529229
0.529202
2.8764e-10
0.529202
1.79856e-09
0.529202
6.03052e-09
0.529202
1.63142e-08
0.529202
4.01533e-08
0.529202
9.44294e-08
0.529203
2.17085e-07
0.529203
4.93534e-07
0.529205
1.11398e-06
2.5123e-06
0.52921
0.529202
9.0398e-11
0.529202
5.65356e-10
0.529202
1.89604e-09
0.529202
5.13045e-09
0.529202
1.26311e-08
0.529202
2.97185e-08
0.529202
6.83625e-08
0.529202
1.55547e-07
0.529203
3.5142e-07
7.93037e-07
0.529204
0.529202
2.77187e-11
0.529202
1.7334e-10
0.529202
5.81183e-10
0.529202
1.57188e-09
0.529202
3.86777e-09
0.529202
9.09502e-09
0.529202
2.09102e-08
0.529202
4.75547e-08
0.529202
1.07393e-07
2.42174e-07
0.529203
0.529202
7.54161e-12
0.529202
4.7181e-11
0.529202
1.58206e-10
0.529202
4.2776e-10
0.529202
1.05203e-09
0.529202
2.47233e-09
0.529202
5.68004e-09
0.529202
1.29048e-08
0.529202
2.91263e-08
6.56307e-08
0.529202
0.529202
0.529202
0.529202
0.529202
0.529202
0.529202
0.529202
0.529202
0.529202
0.529202
0.64413
-0.115881
0.764732
-0.112519
0.873319
-0.100002
0.918572
-0.0947637
1.00245
-0.0784325
1.09541
-0.0566014
1.10278
-0.0190366
1.05756
0.0439825
0.983151
0.109648
0.100118
0.529305
-0.115427
0.524376
-0.109141
0.530824
-0.103981
0.532952
-0.0969709
0.541074
-0.0894935
0.56359
-0.0812733
0.601368
-0.0592844
0.634685
-0.0205186
0.707337
0.015029
0.0579091
0.518872
-0.104631
0.512353
-0.102448
0.508428
-0.100438
0.508739
-0.0975574
0.51404
-0.0945195
0.523825
-0.0906231
0.544794
-0.0844235
0.591416
-0.0760369
0.653392
-0.0622937
-0.0461555
0.515626
-0.0909537
0.503195
-0.0900539
0.491915
-0.089233
0.48216
-0.0878767
0.474076
-0.0865304
0.467797
-0.0845867
0.464514
-0.0823433
0.464673
-0.0785001
0.471166
-0.0730745
-0.0657103
0.514462
-0.0761958
0.50023
-0.0758532
0.486468
-0.0755169
0.473464
-0.074916
0.461217
-0.0743346
0.449936
-0.0734133
0.439495
-0.0724693
0.430922
-0.0708766
0.42486
-0.0686807
-0.0658565
0.514086
-0.0610774
0.499177
-0.0609596
0.484464
-0.0608241
0.47009
-0.0605653
0.456031
-0.0603093
0.442455
-0.0598839
0.429171
-0.0594442
0.416665
-0.058738
0.405149
-0.0578326
-0.0565892
0.513968
-0.0458427
0.49881
-0.0458066
0.48373
-0.0457524
0.468797
-0.0456445
0.454001
-0.0455315
0.439433
-0.0453373
0.424998
-0.0451259
0.410903
-0.0447945
0.397183
-0.0443974
-0.0438205
0.51393
-0.0305701
0.498682
-0.0305598
0.483465
-0.0305389
0.468311
-0.0304963
0.453217
-0.0304467
0.438226
-0.0303572
0.423302
-0.0302565
0.408538
-0.0300966
0.393924
-0.029916
-0.029638
0.513918
-0.0152863
0.498641
-0.0152831
0.483377
-0.0152762
0.46814
-0.0152617
0.452931
-0.0152424
0.437771
-0.0152052
0.42265
-0.015164
0.407616
-0.0150963
0.392651
-0.0150246
-0.0149049
0.513916
0.498632
0.483355
0.468092
0.452846
0.437634
0.42245
0.407329
0.392251
)
;

boundaryField
{
    inlet
    {
        type            calculated;
        value           nonuniform List<scalar> 10(-0.529202 -0.529202 -0.529202 -0.529202 -0.529202 -0.529202 -0.529202 -0.529202 -0.529202 -0.529202);
    }
    sym
    {
        type            calculated;
        value           uniform 0;
    }
    wedge
    {
        type            calculated;
        value           nonuniform List<scalar> 10(2.193e-17 0 3.46476e-17 -4.00978e-17 4.58656e-17 0 1.2217e-16 6.05003e-17 -5.96462e-17 5.71044e-17);
    }
    top
    {
        type            calculated;
        value           uniform 0;
    }
    back
    {
        type            empty;
    }
    front
    {
        type            empty;
    }
    outlet
    {
        type            calculated;
        value           nonuniform List<scalar> 10(0.904637 0.732436 0.718103 0.479018 0.42063 0.394157 0.383698 0.379424 0.377756 0.377231);
    }
}


// ************************************************************************* //
