/*--------------------------------*- C++ -*----------------------------------*\
| =========                 |                                                 |
| \\      /  F ield         | OpenFOAM: The Open Source CFD Toolbox           |
|  \\    /   O peration     | Version:  2412                                  |
|   \\  /    A nd           | Website:  www.openfoam.com                      |
|    \\/     M anipulation  |                                                 |
\*---------------------------------------------------------------------------*/
FoamFile
{
    version     2.0;
    format      ascii;
    arch        "LSB;label=32;scalar=64";
    class       surfaceScalarField;
    location    "0.5";
    object      phi;
}
// * * * * * * * * * * * * * * * * * * * * * * * * * * * * * * * * * * * * * //

dimensions      [1 0 -1 0 0 0 0];

oriented        oriented;

internalField   nonuniform List<scalar> 
370
(
0.000327323
5.88766e-06
0.000332912
4.86017e-07
0.000323587
6.45532e-06
0.000324189
2.22921e-06
0.00031648
6.58021e-06
0.000311827
6.22875e-06
0.000305814
7.69269e-06
0.000297624
9.95287e-06
0.00028683
1.28649e-05
1.67296e-05
0.000272567
0.00032896
1.10011e-05
0.000334811
7.57772e-07
0.00032716
1.11879e-05
0.000328636
3.66706e-06
0.000324092
9.97866e-06
0.000322678
9.18495e-06
0.000321627
1.05108e-05
0.000320618
1.28391e-05
0.000320051
1.55646e-05
1.86981e-05
0.000320654
0.000331424
1.48838e-05
0.000337454
9.35399e-07
0.000331319
1.43319e-05
0.00033361
4.44581e-06
0.000330589
1.18679e-05
0.000330633
1.06871e-05
0.000331298
1.17787e-05
0.000332267
1.39694e-05
0.000333698
1.6462e-05
1.91591e-05
0.000336027
0.000334528
1.71634e-05
0.000340871
9.20951e-07
0.000336477
1.56795e-05
0.000339575
4.66341e-06
0.000338388
1.20078e-05
0.000340044
1.06518e-05
0.000342645
1.1328e-05
0.000345987
1.30205e-05
0.000350132
1.49437e-05
1.69342e-05
0.000355423
0.000337832
1.77505e-05
0.00034446
7.75713e-07
0.000341563
1.55184e-05
0.000345393
4.44736e-06
0.000345366
1.11581e-05
0.000348019
9.82622e-06
0.000351544
1.01937e-05
0.000355875
1.14415e-05
0.000360922
1.29457e-05
1.45301e-05
0.000366819
0.000341082
1.66751e-05
0.000347969
5.77794e-07
0.000346441
1.40308e-05
0.000350934
3.86948e-06
0.000351964
9.48861e-06
0.000355541
8.36866e-06
0.000359973
8.47695e-06
0.000365304
9.29939e-06
0.000371447
1.03768e-05
1.15196e-05
0.000378457
0.000343963
1.40915e-05
0.000351061
3.96651e-07
0.000350691
1.14862e-05
0.000355773
3.05058e-06
0.00035757
7.37065e-06
0.000361843
6.55734e-06
0.000366907
6.51896e-06
0.000372835
7.02737e-06
0.000379538
7.77445e-06
8.59304e-06
0.000386965
0.00034627
1.02249e-05
0.000353475
2.7592e-07
0.00035408
8.11662e-06
0.000359693
2.09739e-06
0.000362125
4.98413e-06
0.000366988
4.49498e-06
0.000372577
4.40882e-06
0.000378972
4.68757e-06
0.000386123
5.14598e-06
5.65931e-06
0.000393958
0.000347816
5.39925e-06
0.000355071
1.90078e-07
0.000356365
4.18922e-06
0.00036241
1.07872e-06
0.000365245
2.51002e-06
0.000370508
2.28713e-06
0.000376434
2.22585e-06
0.00038309
2.34716e-06
0.000390463
2.56646e-06
2.81942e-06
0.000398468
0.000348486
0.000355875
0.000357489
0.000363795
0.000366831
0.0003723
0.000378397
0.000385182
0.00039267
0.00040078
0.000295002
-1.77512e-05
0.00031102
-1.15461e-05
0.000324412
-9.04264e-06
0.000335685
-7.14504e-06
0.000345158
-5.75191e-06
0.000353447
-5.00519e-06
0.000361125
-4.69562e-06
0.000368377
-4.49328e-06
0.000374589
-3.59702e-06
-6.92645e-06
0.000330026
-2.20128e-05
0.000338614
-1.5271e-05
0.000347251
-1.30547e-05
0.000356255
-1.18319e-05
0.00036519
-1.07881e-05
0.000373636
-9.89281e-06
0.000381446
-9.23025e-06
0.000388696
-8.68591e-06
0.000395922
-7.92463e-06
-1.12034e-05
0.000342408
-2.26464e-05
0.000351175
-1.8567e-05
0.000360304
-1.70298e-05
0.000369196
-1.59323e-05
0.000377462
-1.46864e-05
0.00038506
-1.34722e-05
0.000392107
-1.25282e-05
0.000398827
-1.18669e-05
0.000405503
-1.12171e-05
-1.46121e-05
0.000362398
-2.29562e-05
0.00037007
-1.99246e-05
0.000377459
-1.84952e-05
0.00038448
-1.7439e-05
0.000391236
-1.63648e-05
0.000397758
-1.52685e-05
0.000404047
-1.43549e-05
0.000410099
-1.36752e-05
0.000416085
-1.31366e-05
-1.61437e-05
0.000372607
-2.09739e-05
0.000379292
-1.92754e-05
0.00038632
-1.86556e-05
0.000393392
-1.80888e-05
0.000400198
-1.71899e-05
0.000406699
-1.61556e-05
0.000412869
-1.51848e-05
0.000418781
-1.44845e-05
0.000424507
-1.39735e-05
-1.63599e-05
0.000385174
-1.87456e-05
0.000392058
-1.77517e-05
0.000398518
-1.72474e-05
0.00040455
-1.67255e-05
0.000410272
-1.5965e-05
0.00041573
-1.50697e-05
0.000421019
-1.42304e-05
0.000426089
-1.35936e-05
0.000430942
-1.31223e-05
-1.50413e-05
0.00039329
-1.50438e-05
0.000399437
-1.44828e-05
0.00040534
-1.43125e-05
0.000410982
-1.40085e-05
0.000416427
-1.34786e-05
0.000421668
-1.28023e-05
0.00042675
-1.212e-05
0.00043162
-1.15915e-05
0.000436273
-1.12165e-05
-1.25602e-05
0.000400415
-1.0623e-05
0.000406519
-1.03409e-05
0.000412106
-1.02492e-05
0.000417339
-1.00761e-05
0.00042233
-9.72555e-06
0.000427071
-9.2439e-06
0.000431677
-8.75771e-06
0.000436076
-8.36966e-06
0.000440199
-8.07817e-06
-8.95144e-06
0.000404763
-5.46803e-06
0.000410609
-5.34931e-06
0.000415925
-5.32379e-06
0.000420873
-5.25816e-06
0.000425573
-5.08193e-06
0.000430074
-4.84355e-06
0.000434474
-4.59793e-06
0.000438698
-4.40138e-06
0.000442681
-4.25576e-06
-4.67455e-06
0.000407046
0.000412838
0.000418062
0.000422875
0.000427442
0.000431805
0.000436063
0.000440138
0.00044396
)
;

boundaryField
{
    inlet
    {
        type            calculated;
        value           nonuniform List<scalar> 10(-0.000343992 -0.000344995 -0.000346502 -0.000348373 -0.000350406 -0.000352419 -0.000354199 -0.000355593 -0.000356473 -0.000356736);
    }
    sym
    {
        type            calculated;
        value           uniform 0;
    }
    wedge
    {
        type            calculated;
        value           nonuniform List<scalar> 10(-2.62166e-41 0 0 0 2.43765e-20 2.43763e-20 2.43778e-20 2.4375e-20 0 4.87536e-20);
    }
    top
    {
        type            calculated;
        value           uniform 0;
    }
    back
    {
        type            empty;
    }
    front
    {
        type            empty;
    }
    outlet
    {
        type            calculated;
        value           nonuniform List<scalar> 10(0.000384139 0.000403093 0.000412295 0.000421659 0.000429546 0.000435236 0.000440208 0.000443672 0.000445995 0.000447134);
    }
}


// ************************************************************************* //
