/*--------------------------------*- C++ -*----------------------------------*\
| =========                 |                                                 |
| \\      /  F ield         | OpenFOAM: The Open Source CFD Toolbox           |
|  \\    /   O peration     | Version:  2412                                  |
|   \\  /    A nd           | Website:  www.openfoam.com                      |
|    \\/     M anipulation  |                                                 |
\*---------------------------------------------------------------------------*/
FoamFile
{
    version     2.0;
    format      ascii;
    arch        "LSB;label=32;scalar=64";
    class       surfaceScalarField;
    location    "0.5";
    object      phi;
}
// * * * * * * * * * * * * * * * * * * * * * * * * * * * * * * * * * * * * * //

dimensions      [1 0 -1 0 0 0 0];

oriented        oriented;

internalField   nonuniform List<scalar> 
370
(
0.000261643
4.70993e-06
0.000272983
-1.07668e-05
0.000285442
-1.19663e-05
0.000294128
-8.35627e-06
0.000300343
-5.85379e-06
0.000304462
-3.76429e-06
0.000306174
-1.34197e-06
0.00030479
1.77492e-06
0.000299562
5.65791e-06
1.06638e-05
0.000289397
0.000331319
6.18907e-06
0.000332904
-1.1664e-05
0.000336037
-1.45939e-05
0.000339469
-1.14447e-05
0.000342453
-8.47793e-06
0.000345044
-5.99669e-06
0.000347236
-3.18571e-06
0.000349286
1.08675e-07
0.000351309
4.05659e-06
8.65141e-06
0.000353807
0.000402051
5.19714e-06
0.000397414
-6.53717e-06
0.000394111
-1.08176e-05
0.000392657
-9.63663e-06
0.000392124
-7.59676e-06
0.000392098
-5.6467e-06
0.000392656
-3.40405e-06
0.000393802
-6.64111e-07
0.000395655
2.60953e-06
6.35113e-06
0.000398416
0.000447808
4.09307e-06
0.000444888
-3.14976e-06
0.000441253
-6.79744e-06
0.000438635
-6.70835e-06
0.000436907
-5.54987e-06
0.000435834
-4.23791e-06
0.000435413
-2.64378e-06
0.000435722
-6.05846e-07
0.000436854
1.8779e-06
4.74728e-06
0.000438902
0.000480352
3.18494e-06
0.000479006
-1.32207e-06
0.000476497
-3.99618e-06
0.00047433
-4.24813e-06
0.000472712
-3.6062e-06
0.00047157
-2.75289e-06
0.000470923
-1.65588e-06
0.000470886
-2.06642e-07
0.000471556
1.60405e-06
3.7338e-06
0.000473002
0.00050468
2.42205e-06
0.000504145
-3.96776e-07
0.00050267
-2.22965e-06
0.000501241
-2.51556e-06
0.000500119
-2.14379e-06
0.000499301
-1.58452e-06
0.000498829
-8.3493e-07
0.000498809
1.77064e-07
0.00049934
1.46632e-06
3.00818e-06
0.000500489
0.000522779
1.75754e-06
0.000522636
5.89624e-08
0.000521901
-1.1798e-06
0.000521095
-1.40008e-06
0.000520471
-1.17107e-06
0.000520046
-8.02468e-07
0.000519862
-2.99511e-07
0.000520018
3.869e-07
0.000520608
1.27129e-06
2.34162e-06
0.000521693
0.000535653
1.15692e-06
0.000535796
1.84544e-07
0.000535495
-5.72772e-07
0.000535127
-7.09697e-07
0.000534882
-5.71451e-07
0.00053479
-3.43766e-07
0.000534878
-3.18664e-08
0.000535235
3.97429e-07
0.000535951
9.51645e-07
1.6276e-06
0.000537079
0.000543966
5.81799e-07
0.000544243
1.38943e-07
0.000544201
-2.19052e-07
0.000544107
-2.87115e-07
0.000544108
-2.2068e-07
0.000544242
-1.10596e-07
0.000544548
3.99255e-08
0.00054506
2.44834e-07
0.000545895
5.12071e-07
8.39478e-07
0.000547099
0.000547914
0.000548266
0.000548361
0.000548405
0.00054854
0.000548804
0.000549216
0.000549825
0.00055073
0.000551982
0.000324969
-3.44474e-05
0.000348789
-2.25949e-05
0.000367531
-1.74064e-05
0.000382726
-1.37897e-05
0.000394822
-1.06663e-05
0.00040446
-8.18979e-06
0.0004122
-6.3655e-06
0.00041827
-4.93243e-06
0.000422653
-3.33077e-06
-4.91085e-06
0.000371684
-5.12026e-05
0.000387373
-3.69964e-05
0.000399876
-2.85567e-05
0.000410118
-2.26512e-05
0.000418608
-1.77569e-05
0.000425496
-1.37685e-05
0.000430832
-1.06628e-05
0.000435186
-8.1843e-06
0.000438951
-6.03263e-06
-7.39315e-06
0.000405924
-5.7601e-05
0.000415098
-4.48803e-05
0.000423615
-3.55927e-05
0.000431002
-2.85238e-05
0.000437412
-2.2643e-05
0.000442921
-1.77539e-05
0.000447582
-1.3848e-05
0.000451656
-1.07857e-05
0.000455458
-8.37284e-06
-9.05317e-06
0.000440512
-5.81193e-05
0.000444239
-4.73271e-05
0.000448425
-3.83179e-05
0.000452395
-3.09147e-05
0.000456008
-2.4673e-05
0.000459291
-1.94388e-05
0.000462228
-1.51847e-05
0.000464837
-1.18095e-05
0.000467162
-9.14012e-06
-9.44798e-06
0.00046983
-5.38799e-05
0.000468736
-4.49479e-05
0.000468812
-3.69348e-05
0.000469516
-3.00163e-05
0.000470555
-2.41e-05
0.000471864
-1.91217e-05
0.000473369
-1.50578e-05
0.000475036
-1.18434e-05
0.000476868
-9.37868e-06
-9.29071e-06
0.000493906
-4.62521e-05
0.000489455
-3.92117e-05
0.000486614
-3.26332e-05
0.000484974
-2.67625e-05
0.000484166
-2.16571e-05
0.000484009
-1.73189e-05
0.000484322
-1.37336e-05
0.000484965
-1.08507e-05
0.000485765
-8.58211e-06
-8.22192e-06
0.000512801
-3.633e-05
0.000506011
-3.11403e-05
0.000500998
-2.61598e-05
0.000497467
-2.16081e-05
0.000495048
-1.75847e-05
0.000493511
-1.41267e-05
0.000492666
-1.12414e-05
0.000492356
-8.90726e-06
0.000492458
-7.08082e-06
-6.70808e-06
0.00052669
-2.49254e-05
0.000518348
-2.15177e-05
0.00051184
-1.81925e-05
0.000506969
-1.51077e-05
0.000503397
-1.23489e-05
0.000500891
-9.95948e-06
0.000499258
-7.95516e-06
0.000498317
-6.3262e-06
0.000497887
-5.0451e-06
-4.7095e-06
0.000535837
-1.26552e-05
0.000526563
-1.09679e-05
0.00051914
-9.30787e-06
0.00051342
-7.75318e-06
0.000509091
-6.35374e-06
0.000505934
-5.13639e-06
0.000503748
-4.1123e-06
0.000502339
-3.27748e-06
0.000501524
-2.61948e-06
-2.42824e-06
0.00054033
0.00053064
0.000522797
0.000516681
0.000511993
0.000508523
0.000506068
0.000504432
0.000503426
)
;

boundaryField
{
    inlet
    {
        type            calculated;
        value           nonuniform List<scalar> 10(-0.000266799 -0.000333128 -0.00040127 -0.000446861 -0.000479576 -0.000504027 -0.000522208 -0.000535132 -0.00054346 -0.000547395);
    }
    sym
    {
        type            calculated;
        value           uniform 0;
    }
    wedge
    {
        type            calculated;
        value           nonuniform List<scalar> 10(-1.21102e-20 1.2115e-20 1.21201e-20 -2.42549e-20 -3.57931e-38 0 0 2.42729e-20 2.42612e-20 -2.04362e-38);
    }
    top
    {
        type            calculated;
        value           uniform 0;
    }
    back
    {
        type            empty;
    }
    front
    {
        type            empty;
    }
    outlet
    {
        type            calculated;
        value           nonuniform List<scalar> 10(0.000428816 0.000442522 0.000458533 0.000469153 0.000478364 0.000486362 0.000492616 0.000497566 0.000500923 0.000502681);
    }
}


// ************************************************************************* //
