/*--------------------------------*- C++ -*----------------------------------*\
| =========                 |                                                 |
| \\      /  F ield         | OpenFOAM: The Open Source CFD Toolbox           |
|  \\    /   O peration     | Version:  2412                                  |
|   \\  /    A nd           | Website:  www.openfoam.com                      |
|    \\/     M anipulation  |                                                 |
\*---------------------------------------------------------------------------*/
FoamFile
{
    version     2.0;
    format      ascii;
    arch        "LSB;label=32;scalar=64";
    class       volScalarField;
    location    "0.5";
    object      T;
}
// * * * * * * * * * * * * * * * * * * * * * * * * * * * * * * * * * * * * * //

dimensions      [0 0 0 1 0 0 0];

internalField   nonuniform List<scalar> 
200
(
1.00002
1.00005
1.00013
1.00031
1.0007
1.00159
1.0036
1.0082
1.01882
1.04398
1.00001
1.00002
1.00004
1.00009
1.00021
1.00048
1.00109
1.00238
1.00603
1.01021
1
1
1.00001
1.00003
1.00007
1.00015
1.00033
1.00073
1.00178
1.00317
1
1
1
1.00001
1.00002
1.00005
1.0001
1.00023
1.00055
1.00101
1
1
1
1
1.00001
1.00001
1.00003
1.00007
1.00017
1.00033
1
1
1
1
1
1
1.00001
1.00002
1.00005
1.00011
1
1
1
1
1
1
1
1.00001
1.00002
1.00003
1
1
1
1
1
1
1
1
1.00001
1.00001
1
1
1
1
1
1
1
1
1
1
1
1
1
1
1
1
1
1
1
1
1.12257
1.17893
1.31799
1.46222
1.46988
1.47666
1.55912
1.56572
1.5341
1.46874
1.02741
1.07705
1.13269
1.21032
1.29139
1.38881
1.42614
1.51966
1.54743
1.60313
1.00781
1.02054
1.03248
1.05933
1.07815
1.12146
1.15783
1.25599
1.31719
1.4341
1.00256
1.00683
1.01141
1.02122
1.0297
1.04757
1.06326
1.09967
1.131
1.1888
1.00086
1.00235
1.00401
1.00761
1.01076
1.01751
1.02325
1.03652
1.04743
1.06666
1.00029
1.00081
1.00142
1.00278
1.00402
1.00669
1.00896
1.01414
1.01811
1.02549
1.00009
1.00027
1.00049
1.001
1.00149
1.00254
1.00345
1.00552
1.00702
1.00987
1.00003
1.00009
1.00016
1.00035
1.00053
1.00095
1.00131
1.00217
1.00275
1.00393
1.00001
1.00003
1.00005
1.00012
1.00019
1.00036
1.00052
1.0009
1.00116
1.0017
1
1.00001
1.00002
1.00005
1.00009
1.00018
1.00027
1.0005
1.00066
1.001
)
;

boundaryField
{
    inlet
    {
        type            fixedValue;
        value           uniform 1;
    }
    sym
    {
        type            slip;
    }
    wedge
    {
        type            slip;
    }
    top
    {
        type            slip;
    }
    back
    {
        type            empty;
    }
    front
    {
        type            empty;
    }
    outlet
    {
        type            inletOutlet;
        inletValue      uniform 1;
        value           nonuniform List<scalar> 10(1.46866 1.60311 1.43413 1.18881 1.06667 1.02549 1.00988 1.00393 1.00171 1.001);
    }
}


// ************************************************************************* //
