/*--------------------------------*- C++ -*----------------------------------*\
| =========                 |                                                 |
| \\      /  F ield         | OpenFOAM: The Open Source CFD Toolbox           |
|  \\    /   O peration     | Version:  2412                                  |
|   \\  /    A nd           | Website:  www.openfoam.com                      |
|    \\/     M anipulation  |                                                 |
\*---------------------------------------------------------------------------*/
FoamFile
{
    version     2.0;
    format      ascii;
    arch        "LSB;label=32;scalar=64";
    class       volVectorField;
    location    "0.5";
    object      U;
}
// * * * * * * * * * * * * * * * * * * * * * * * * * * * * * * * * * * * * * //

dimensions      [0 1 -1 0 0 0 0];

internalField   nonuniform List<vector> 
200
(
(2.99999 6.0889e-07 0)
(2.99996 3.75987e-06 0)
(2.99989 1.2472e-05 0)
(2.99975 3.35866e-05 0)
(2.99942 8.25437e-05 0)
(2.99868 0.000194299 0)
(2.99702 0.000447797 0)
(2.99322 0.00102464 0)
(2.98438 0.00234502 0)
(2.96443 0.00542848 0)
(3 7.91695e-07 0)
(2.99999 4.88789e-06 0)
(2.99997 1.62099e-05 0)
(2.99992 4.36401e-05 0)
(2.99983 0.000107224 0)
(2.9996 0.000252288 0)
(2.99911 0.000581128 0)
(2.998 0.00132811 0)
(2.99546 0.00303039 0)
(2.99137 0.00698202 0)
(3 2.40001e-07 0)
(3 1.48056e-06 0)
(2.99999 4.90393e-06 0)
(2.99998 1.31821e-05 0)
(2.99995 3.23366e-05 0)
(2.99988 7.59114e-05 0)
(2.99973 0.000174365 0)
(2.99939 0.000396478 0)
(2.99863 0.00089516 0)
(2.99737 0.00203019 0)
(3 7.44737e-08 0)
(3 4.59006e-07 0)
(3 1.51803e-06 0)
(2.99999 4.0731e-06 0)
(2.99998 9.96827e-06 0)
(2.99996 2.33325e-05 0)
(2.99992 5.3394e-05 0)
(2.99981 0.000120825 0)
(2.99958 0.00027125 0)
(2.99917 0.000609471 0)
(3 2.26949e-08 0)
(3 1.39841e-07 0)
(3 4.62427e-07 0)
(3 1.2412e-06 0)
(2.99999 3.04029e-06 0)
(2.99999 7.12587e-06 0)
(2.99997 1.6336e-05 0)
(2.99994 3.70416e-05 0)
(2.99987 8.33611e-05 0)
(2.99973 0.000187592 0)
(3 7.13231e-09 0)
(3 4.39486e-08 0)
(3 1.45352e-07 0)
(3 3.90315e-07 0)
(3 9.56787e-07 0)
(3 2.24489e-06 0)
(2.99999 5.15334e-06 0)
(2.99998 1.17039e-05 0)
(2.99996 2.63921e-05 0)
(2.99991 5.94886e-05 0)
(3 2.25301e-09 0)
(3 1.38845e-08 0)
(3 4.5929e-08 0)
(3 1.23373e-07 0)
(3 3.02575e-07 0)
(3 7.10437e-07 0)
(3 1.63241e-06 0)
(2.99999 3.71183e-06 0)
(2.99999 8.38187e-06 0)
(2.99997 1.89141e-05 0)
(3 7.00882e-10 0)
(3 4.3191e-09 0)
(3 1.42856e-08 0)
(3 3.83662e-08 0)
(3 9.40759e-08 0)
(3 2.20863e-07 0)
(3 5.07471e-07 0)
(3 1.15403e-06 0)
(3 2.60627e-06 0)
(2.99999 5.87972e-06 0)
(3 2.06544e-10 0)
(3 1.27205e-09 0)
(3 4.20375e-09 0)
(3 1.12793e-08 0)
(3 2.76312e-08 0)
(3 6.48078e-08 0)
(3 1.48756e-07 0)
(3 3.37895e-07 0)
(3 7.62368e-07 0)
(3 1.71777e-06 0)
(3 4.28642e-11 0)
(3 2.63819e-10 0)
(3 8.71059e-10 0)
(3 2.33548e-09 0)
(3 5.71816e-09 0)
(3 1.34055e-08 0)
(3 3.07574e-08 0)
(3 6.98123e-08 0)
(3 1.57506e-07 0)
(3 3.5491e-07 0)
(2.89919 0.0254404 -1.09933e-21)
(2.8071 0.0683946 0)
(2.71925 0.14523 0)
(2.64634 0.232819 0)
(2.54011 0.337729 3.39814e-20)
(2.44491 0.464634 0)
(2.41126 0.589474 0)
(2.41489 0.681942 0)
(2.43199 0.746899 0)
(2.45429 0.756878 -2.36218e-20)
(2.97387 0.0259492 -1.31516e-20)
(2.94429 0.0735868 1.23817e-20)
(2.88997 0.168933 0)
(2.826 0.285433 0)
(2.74231 0.431828 -1.22863e-20)
(2.64028 0.641187 0)
(2.5313 0.870215 0)
(2.41661 1.05832 0)
(2.3016 1.17133 0)
(2.27351 1.20194 0)
(2.9926 0.00591026 0)
(2.98451 0.0156599 -1.2784e-20)
(2.97132 0.0305768 0)
(2.95276 0.0591148 0)
(2.92811 0.0959481 -2.98065e-20)
(2.89503 0.155204 1.40829e-20)
(2.85379 0.222449 0)
(2.7896 0.311529 1.59064e-20)
(2.68382 0.429037 0)
(2.60866 0.606892 1.74182e-20)
(2.9976 0.00184089 0)
(2.99493 0.00495028 0)
(2.99028 0.0103573 0)
(2.98372 0.0208213 0)
(2.97458 0.0352372 1.44471e-20)
(2.96254 0.0586715 -1.5711e-20)
(2.94686 0.0890287 0)
(2.92383 0.135959 -3.44757e-20)
(2.88498 0.211227 0)
(2.84571 0.346552 -2.81974e-20)
(2.9992 0.00059685 5.83196e-21)
(2.99827 0.0016518 6.00988e-21)
(2.99658 0.0035487 0)
(2.99419 0.00728887 6.40133e-21)
(2.99078 0.0125491 6.61647e-21)
(2.9863 0.0212503 0)
(2.98058 0.0323586 0)
(2.97263 0.049256 1.62805e-20)
(2.96047 0.072523 0)
(2.95022 0.111754 0)
(2.99974 0.000198731 -5.84528e-21)
(2.99941 0.000565188 -6.02978e-21)
(2.99878 0.00126346 0)
(2.99789 0.00267801 -6.45499e-21)
(2.99657 0.00473044 -6.69359e-21)
(2.99483 0.00818187 0)
(2.99259 0.0126994 0)
(2.98963 0.0194963 0)
(2.98523 0.0286323 0)
(2.98185 0.0433708 0)
(2.99992 6.58954e-05 5.84955e-21)
(2.9998 0.000191574 0)
(2.99958 0.000448955 0)
(2.99925 0.000987892 0)
(2.99874 0.00179686 6.62353e-21)
(2.99806 0.00318539 0)
(2.99716 0.00505 0)
(2.99601 0.00786107 0)
(2.99433 0.0115635 0)
(2.99316 0.0173836 7.94172e-21)
(2.99997 2.1264e-05 -2.93007e-21)
(2.99994 6.29473e-05 3.0177e-21)
(2.99986 0.000155151 0)
(2.99974 0.000354592 3.21098e-21)
(2.99955 0.000665493 -3.32836e-21)
(2.99929 0.00121394 3.43097e-21)
(2.99893 0.00196985 3.5526e-21)
(2.99847 0.00312392 0)
(2.9978 0.00463819 3.82459e-21)
(2.99738 0.00699586 -4.07928e-21)
(2.99999 6.42601e-06 -4.40164e-21)
(2.99998 1.93467e-05 -4.53439e-21)
(2.99996 4.95678e-05 0)
(2.99991 0.000116494 -4.82614e-21)
(2.99984 0.000225134 -1.66353e-21)
(2.99974 0.00042316 -5.15949e-21)
(2.99959 0.00070279 -3.56466e-21)
(2.99939 0.00113723 0)
(2.99909 0.00170904 -3.84399e-21)
(2.99893 0.0025998 -5.99678e-21)
(3 1.37289e-06 1.46963e-21)
(2.99999 4.20692e-06 1.51399e-21)
(2.99998 1.09362e-05 0)
(2.99996 2.60477e-05 1.61139e-21)
(2.99993 5.15283e-05 -1.665e-21)
(2.99987 9.9345e-05 1.72247e-21)
(2.99979 0.000168333 0)
(2.99968 0.000277264 0)
(2.9995 0.000421705 0)
(2.99942 0.000647737 2.00004e-21)
)
;

boundaryField
{
    inlet
    {
        type            fixedValue;
        value           uniform (3 0 0);
    }
    sym
    {
        type            slip;
    }
    wedge
    {
        type            slip;
    }
    top
    {
        type            slip;
    }
    back
    {
        type            empty;
    }
    front
    {
        type            empty;
    }
    outlet
    {
        type            inletOutlet;
        inletValue      uniform (3 0 0);
        value           nonuniform List<vector> 10((2.45429 0.756878 -2.36218e-20) (2.27351 1.20194 0) (2.60866 0.606892 1.74182e-20) (2.84571 0.346552 -2.81974e-20) (2.95022 0.111754 0) (2.98185 0.0433708 0) (2.99316 0.0173836 7.94172e-21) (2.99738 0.00699586 -4.07928e-21) (2.99893 0.0025998 -5.99678e-21) (2.99942 0.000647737 2.00004e-21));
    }
}


// ************************************************************************* //
