/*--------------------------------*- C++ -*----------------------------------*\
| =========                 |                                                 |
| \\      /  F ield         | OpenFOAM: The Open Source CFD Toolbox           |
|  \\    /   O peration     | Version:  2412                                  |
|   \\  /    A nd           | Website:  www.openfoam.com                      |
|    \\/     M anipulation  |                                                 |
\*---------------------------------------------------------------------------*/
FoamFile
{
    version     2.0;
    format      ascii;
    arch        "LSB;label=32;scalar=64";
    class       volVectorField;
    location    "0.5";
    object      U;
}
// * * * * * * * * * * * * * * * * * * * * * * * * * * * * * * * * * * * * * //

dimensions      [0 1 -1 0 0 0 0];

internalField   nonuniform List<vector> 
200
(
(-7.61194 0.0148904 0)
(5.57506 0.0019913 0)
(-1.79031 0.019084 0)
(2.06394 0.00821798 0)
(0.224316 0.0218195 0)
(0.776326 0.0227132 0)
(0.732746 0.0293024 0)
(0.690278 0.0396321 0)
(0.666589 0.0538774 0)
(0.633386 0.0741268 0)
(-7.56644 0.0422337 0)
(5.54604 0.00440476 0)
(-1.76224 0.049909 0)
(2.04877 0.0188759 0)
(0.257251 0.0496841 0)
(0.782222 0.0479317 0)
(0.760396 0.0568597 0)
(0.733904 0.0712945 0)
(0.729209 0.088933 0)
(0.725985 0.110455 0)
(-7.49153 0.0646939 0)
(5.4981 0.00593592 0)
(-1.71937 0.0714292 0)
(2.02313 0.0250036 0)
(0.298873 0.0636049 0)
(0.779638 0.058957 0)
(0.776786 0.0660723 0)
(0.7584 0.0791085 0)
(0.757714 0.0938681 0)
(0.759053 0.1098 0)
(-7.39461 0.0801084 0)
(5.43588 0.00661889 0)
(-1.66381 0.0839205 0)
(1.98971 0.0280183 0)
(0.349773 0.0693884 0)
(0.777258 0.0630981 0)
(0.795566 0.0685069 0)
(0.787077 0.0800114 0)
(0.791822 0.0930274 0)
(0.799444 0.106735 0)
(-7.2872 0.0873223 0)
(5.36679 0.00598386 0)
(-1.60339 0.0869892 0)
(1.9527 0.0276953 0)
(0.401245 0.0668987 0)
(0.773945 0.0598076 0)
(0.809912 0.0629126 0)
(0.808477 0.0713387 0)
(0.815214 0.0810293 0)
(0.82488 0.090955 0)
(-7.17856 0.0861939 0)
(5.29666 0.00476245 0)
(-1.54279 0.0823591 0)
(1.9155 0.0252942 0)
(0.450904 0.0596374 0)
(0.773096 0.0530672 0)
(0.823699 0.054597 0)
(0.828538 0.0605935 0)
(0.837736 0.0680101 0)
(0.850219 0.0758061 0)
(-7.0787 0.0771277 0)
(5.23182 0.00341447 0)
(-1.48741 0.0711035 0)
(1.88129 0.0209956 0)
(0.494988 0.0485875 0)
(0.774074 0.0432784 0)
(0.835013 0.0435638 0)
(0.84453 0.0473291 0)
(0.855343 0.0524671 0)
(0.869432 0.057965 0)
(-6.99594 0.0610359 0)
(5.17766 0.00231287 0)
(-1.44162 0.0546146 0)
(1.85277 0.0156364 0)
(0.531103 0.0356263 0)
(0.776748 0.032063 0)
(0.844269 0.0318431 0)
(0.857355 0.0341138 0)
(0.869626 0.0375629 0)
(0.885164 0.0413757 0)
(-6.93777 0.039266 0)
(5.13914 0.00167695 0)
(-1.40936 0.0343226 0)
(1.83237 0.00961034 0)
(0.55648 0.0215578 0)
(0.779514 0.0195557 0)
(0.850514 0.0191816 0)
(0.865883 0.0202847 0)
(0.879082 0.0221629 0)
(0.895479 0.0242918 0)
(-6.90948 0.0136671 0)
(5.11982 0.00083254 0)
(-1.393 0.0118461 0)
(1.82183 0.00336939 0)
(0.569522 0.00734704 0)
(0.781222 0.00674142 0)
(0.85366 0.00661551 0)
(0.870168 0.00699238 0)
(0.883864 0.00765546 0)
(0.900745 0.00842823 0)
(0.626002 0.155868 -1.13055e-22)
(0.711473 0.206913 0)
(0.780084 0.241989 0)
(0.834527 0.269746 0)
(0.885416 0.293287 1.12302e-17)
(0.93788 0.314168 0)
(0.993142 0.333782 0)
(1.05147 0.353421 0)
(1.10788 0.374392 0)
(1.21897 0.400962 -6.71224e-18)
(0.740829 0.181699 -4.97426e-18)
(0.785696 0.219421 5.11585e-18)
(0.836674 0.240895 0)
(0.88635 0.25849 0)
(0.937466 0.276142 1.84478e-21)
(0.991972 0.294362 0)
(1.04948 0.31334 0)
(1.10957 0.333488 0)
(1.17032 0.355395 0)
(1.27734 0.381721 0)
(0.778357 0.142377 0)
(0.816286 0.164005 -5.11129e-18)
(0.865817 0.180767 0)
(0.917387 0.197709 0)
(0.969509 0.215722 -1.12066e-17)
(1.02331 0.233879 5.79196e-18)
(1.07952 0.251658 0)
(1.13867 0.269274 6.20716e-18)
(1.19889 0.287075 0)
(1.30607 0.304844 6.68551e-18)
(0.82704 0.133581 0)
(0.863617 0.15478 0)
(0.909306 0.172257 0)
(0.957327 0.188573 0)
(1.00661 0.204892 5.59805e-18)
(1.05831 0.221293 -5.78597e-18)
(1.11323 0.237626 0)
(1.17166 0.253933 -1.24043e-17)
(1.23158 0.270376 0)
(1.33573 0.286896 -6.67975e-18)
(0.853306 0.107038 2.4854e-18)
(0.887756 0.118764 2.55421e-18)
(0.931375 0.128451 0)
(0.979156 0.138403 2.71139e-18)
(1.02941 0.149612 2.79885e-18)
(1.08223 0.161956 0)
(1.13789 0.174818 0)
(1.19682 0.187759 6.19788e-18)
(1.25717 0.200545 0)
(1.36043 0.212811 0)
(0.881705 0.0885606 -2.48397e-18)
(0.917915 0.0991091 -2.55214e-18)
(0.961449 0.109077 0)
(1.008 0.11974 -2.70906e-18)
(1.05641 0.131413 -2.79661e-18)
(1.10724 0.143677 0)
(1.16112 0.156052 0)
(1.21846 0.168258 0)
(1.27735 0.180077 0)
(1.3783 0.191266 0)
(0.900958 0.0663907 2.48537e-18)
(0.936542 0.0727155 0)
(0.978711 0.0781326 0)
(1.02442 0.0839432 0)
(1.07255 0.0907753 2.79714e-18)
(1.12334 0.0984835 0)
(1.17728 0.106621 0)
(1.23468 0.114807 0)
(1.29364 0.122777 0)
(1.39381 0.130285 3.33712e-18)
(0.917119 0.0473294 -1.24192e-18)
(0.953411 0.0521555 1.27655e-18)
(0.995409 0.0567555 0)
(1.0406 0.0619855 1.35474e-18)
(1.08808 0.0681266 -1.39772e-18)
(1.13813 0.0749575 1.44525e-18)
(1.19126 0.082083 1.49525e-18)
(1.24782 0.0891882 0)
(1.30591 0.0960637 1.60644e-18)
(1.4046 0.102556 -1.66803e-18)
(0.927161 0.0274879 -1.86426e-18)
(0.963464 0.0299227 -1.91473e-18)
(1.00499 0.0320479 0)
(1.04971 0.0344449 -2.03198e-18)
(1.09676 0.0373265 -6.99016e-19)
(1.14642 0.0405758 -2.16777e-18)
(1.19925 0.0440051 -1.49514e-18)
(1.25557 0.0474095 0)
(1.31353 0.0506633 -1.60634e-18)
(1.4118 0.0537164 -2.50281e-18)
(0.932354 0.00957577 6.21576e-19)
(0.968834 0.01054 6.38382e-19)
(1.01027 0.0114734 0)
(1.05483 0.0125636 6.77452e-19)
(1.10168 0.0138823 -6.99288e-19)
(1.15114 0.0154082 7.22714e-19)
(1.20374 0.0170744 0)
(1.2598 0.0187971 0)
(1.31752 0.0205085 0)
(1.41532 0.0221779 8.34442e-19)
)
;

boundaryField
{
    inlet
    {
        type            fixedValue;
        value           uniform (3 0 0);
    }
    sym
    {
        type            slip;
    }
    wedge
    {
        type            slip;
    }
    top
    {
        type            slip;
    }
    back
    {
        type            empty;
    }
    front
    {
        type            empty;
    }
    outlet
    {
        type            inletOutlet;
        inletValue      uniform (3 0 0);
        value           nonuniform List<vector> 10((1.21897 0.400962 -6.71224e-18) (1.27734 0.381721 0) (1.30607 0.304844 6.68551e-18) (1.33573 0.286896 -6.67975e-18) (1.36043 0.212811 0) (1.3783 0.191266 0) (1.39381 0.130285 3.33712e-18) (1.4046 0.102556 -1.66803e-18) (1.4118 0.0537164 -2.50281e-18) (1.41532 0.0221779 8.34442e-19));
    }
}


// ************************************************************************* //
