/*--------------------------------*- C++ -*----------------------------------*\
| =========                 |                                                 |
| \\      /  F ield         | OpenFOAM: The Open Source CFD Toolbox           |
|  \\    /   O peration     | Version:  2412                                  |
|   \\  /    A nd           | Website:  www.openfoam.com                      |
|    \\/     M anipulation  |                                                 |
\*---------------------------------------------------------------------------*/
FoamFile
{
    version     2.0;
    format      ascii;
    arch        "LSB;label=32;scalar=64";
    class       volVectorField;
    location    "0.5";
    object      U;
}
// * * * * * * * * * * * * * * * * * * * * * * * * * * * * * * * * * * * * * //

dimensions      [0 1 -1 0 0 0 0];

internalField   nonuniform List<vector> 
200
(
(-0.998131 0.0151962 0)
(0.548327 -0.0357875 0)
(0.806341 -0.0425514 0)
(0.731363 -0.0302817 0)
(0.682732 -0.0200026 0)
(0.678304 -0.011583 0)
(0.689239 -0.00216327 0)
(0.695667 0.00975203 0)
(0.690589 0.0255138 0)
(0.671747 0.0472152 0)
(-0.575303 0.0321488 0)
(0.563516 -0.0651353 0)
(0.892075 -0.08391 0)
(0.85061 -0.0647626 0)
(0.78788 -0.0463089 0)
(0.771883 -0.0308039 0)
(0.780451 -0.0137414 0)
(0.791288 0.00706501 0)
(0.798094 0.0323399 0)
(0.799815 0.0629518 0)
(-0.234235 0.0323309 0)
(0.599347 -0.0497347 0)
(0.991453 -0.0734924 0)
(0.98427 -0.0627687 0)
(0.911649 -0.048465 0)
(0.882517 -0.0353948 0)
(0.884358 -0.0207812 0)
(0.892518 -0.0030228 0)
(0.898298 0.0179776 0)
(0.900358 0.041946 0)
(-0.00790572 0.0262685 0)
(0.64837 -0.0267144 0)
(1.06896 -0.048969 0)
(1.09111 -0.0462465 0)
(1.01974 -0.0377634 0)
(0.984528 -0.0286584 0)
(0.982189 -0.0177731 0)
(0.988115 -0.00410075 0)
(0.992371 0.0123488 0)
(0.99354 0.0312 0)
(0.151098 0.0206026 0)
(0.695404 -0.0122151 0)
(1.12637 -0.0296071 0)
(1.16998 -0.0302744 0)
(1.10411 -0.0255659 0)
(1.06719 -0.0196611 0)
(1.06302 -0.012164 0)
(1.068 -0.00237809 0)
(1.07149 0.00971398 0)
(1.0722 0.0238124 0)
(0.267343 0.015899 0)
(0.736483 -0.0044421 0)
(1.16938 -0.0169746 0)
(1.22782 -0.0184482 0)
(1.16765 -0.0157377 0)
(1.13091 -0.0118745 0)
(1.12625 -0.00673996 0)
(1.13114 0.000148452 0)
(1.13456 0.00885052 0)
(1.13542 0.0191793 0)
(0.352141 0.0118663 0)
(0.77019 -0.000735152 0)
(1.20165 -0.00924622 0)
(1.26987 -0.0105786 0)
(1.21434 -0.00891891 0)
(1.17836 -0.00635405 0)
(1.17378 -0.00285694 0)
(1.17893 0.00190431 0)
(1.18264 0.00800973 0)
(1.18397 0.0153605 0)
(0.411775 0.00828121 0)
(0.79578 0.000727379 0)
(1.22493 -0.00469906 0)
(1.29939 -0.00564017 0)
(1.24721 -0.00460001 0)
(1.21199 -0.00292887 0)
(1.20763 -0.000642652 0)
(1.21312 0.00249706 0)
(1.21721 0.00654851 0)
(1.21906 0.0114722 0)
(0.449952 0.00494291 0)
(0.812878 0.000947926 0)
(1.24002 -0.00207379 0)
(1.3182 -0.00261844 0)
(1.26819 -0.00203386 0)
(1.23353 -0.00107933 0)
(1.22939 0.000222453 0)
(1.23517 0.0020097 0)
(1.23957 0.0043228 0)
(1.24184 0.00714913 0)
(0.468162 0.00165557 0)
(0.8211 0.000413544 0)
(1.2472 -0.000557028 0)
(1.32717 -0.000735394 0)
(1.27824 -0.000545504 0)
(1.2439 -0.000233129 0)
(1.23988 0.00019478 0)
(1.24583 0.000776348 0)
(1.25042 0.00153472 0)
(1.25292 0.00246651 0)
(0.686928 0.125505 -3.37139e-21)
(0.781467 0.189188 0)
(0.877829 0.236566 0)
(0.953681 0.273829 0)
(1.01745 0.305168 9.48634e-17)
(1.07861 0.332467 0)
(1.1403 0.357022 0)
(1.20266 0.379971 0)
(1.26522 0.402705 0)
(1.36357 0.427794 -5.42367e-17)
(0.831424 0.145203 -4.25549e-17)
(0.893284 0.211993 4.35614e-17)
(0.962709 0.259009 0)
(1.02534 0.295015 0)
(1.08259 0.326025 4.51166e-21)
(1.13913 0.354069 0)
(1.19674 0.380101 0)
(1.2558 0.405259 0)
(1.31697 0.431028 0)
(1.41096 0.458605 0)
(0.927166 0.0925611 0)
(0.970914 0.136948 -4.28431e-17)
(1.02479 0.172093 0)
(1.07948 0.201646 0)
(1.13299 0.228477 -9.2434e-17)
(1.18702 0.253271 4.74627e-17)
(1.24285 0.276158 0)
(1.30102 0.297669 5.01768e-17)
(1.36225 0.318456 0)
(1.45563 0.338659 5.31622e-17)
(1.01415 0.0720347 0)
(1.04758 0.113639 0)
(1.09046 0.15227 0)
(1.13676 0.187483 0)
(1.18422 0.219905 4.57645e-17)
(1.23342 0.249807 -4.70436e-17)
(1.28525 0.277358 0)
(1.34012 0.302966 -9.95923e-17)
(1.39826 0.327186 0)
(1.48779 0.349816 -5.28029e-17)
(1.08706 0.0552997 2.03118e-17)
(1.11212 0.08821 2.0898e-17)
(1.14557 0.119128 0)
(1.1838 0.146855 2.20979e-17)
(1.22514 0.171523 2.27253e-17)
(1.26975 0.193475 0)
(1.31818 0.213046 0)
(1.37081 0.230662 4.95399e-17)
(1.42791 0.246841 0)
(1.51673 0.261898 0)
(1.14629 0.0430432 -2.01612e-17)
(1.16568 0.068841 -2.07514e-17)
(1.1928 0.0942086 0)
(1.22552 0.118151 -2.19684e-17)
(1.26266 0.140561 -2.26028e-17)
(1.30412 0.161566 0)
(1.35011 0.181299 0)
(1.40076 0.199919 0)
(1.45602 0.217594 0)
(1.54209 0.234281 0)
(1.19238 0.0327948 2.00769e-17)
(1.208 0.0520926 0)
(1.23074 0.0715352 0)
(1.25933 0.0901946 0)
(1.29295 0.107676 2.25244e-17)
(1.33143 0.123807 0)
(1.3749 0.138516 0)
(1.42345 0.151835 0)
(1.47714 0.163907 0)
(1.56201 0.174946 2.61145e-17)
(1.22607 0.0233562 -1.00229e-17)
(1.23931 0.036721 1.03161e-17)
(1.25917 0.050412 0)
(1.28496 0.0637489 1.09248e-17)
(1.31611 0.0763952 -1.1242e-17)
(1.35252 0.0881984 1.1572e-17)
(1.3943 0.099134 1.19147e-17)
(1.44151 0.109278 0)
(1.49417 0.118778 1.26462e-17)
(1.57775 0.127771 -1.3036e-17)
(1.24814 0.0140564 -1.50464e-17)
(1.26002 0.0218764 -1.54817e-17)
(1.27819 0.0299541 0)
(1.30228 0.0378913 -1.6387e-17)
(1.33188 0.0454717 -5.61989e-18)
(1.36694 0.0525766 -1.73514e-17)
(1.40755 0.0591639 -1.19083e-17)
(1.45377 0.0652455 0)
(1.50566 0.070871 -1.26369e-17)
(1.58845 0.0761326 -1.95418e-17)
(1.25898 0.0048263 5.02962e-18)
(1.27026 0.00750741 5.17304e-18)
(1.28766 0.0102784 0)
(1.31099 0.0129977 5.4711e-18)
(1.33989 0.0155836 -5.62696e-18)
(1.37431 0.0179913 5.78918e-18)
(1.41438 0.0202078 0)
(1.46014 0.0222426 0)
(1.51167 0.0241211 0)
(1.59404 0.0259023 6.51556e-18)
)
;

boundaryField
{
    inlet
    {
        type            fixedValue;
        value           uniform (3 0 0);
    }
    sym
    {
        type            slip;
    }
    wedge
    {
        type            slip;
    }
    top
    {
        type            slip;
    }
    back
    {
        type            empty;
    }
    front
    {
        type            empty;
    }
    outlet
    {
        type            inletOutlet;
        inletValue      uniform (3 0 0);
        value           nonuniform List<vector> 10((1.36357 0.427794 -5.42367e-17) (1.41096 0.458605 0) (1.45563 0.338659 5.31622e-17) (1.48779 0.349816 -5.28029e-17) (1.51673 0.261898 0) (1.54209 0.234281 0) (1.56201 0.174946 2.61145e-17) (1.57775 0.127771 -1.3036e-17) (1.58845 0.0761326 -1.95418e-17) (1.59404 0.0259023 6.51556e-18));
    }
}


// ************************************************************************* //
