/*--------------------------------*- C++ -*----------------------------------*\
| =========                 |                                                 |
| \\      /  F ield         | OpenFOAM: The Open Source CFD Toolbox           |
|  \\    /   O peration     | Version:  2412                                  |
|   \\  /    A nd           | Website:  www.openfoam.com                      |
|    \\/     M anipulation  |                                                 |
\*---------------------------------------------------------------------------*/
FoamFile
{
    version     2.0;
    format      ascii;
    arch        "LSB;label=32;scalar=64";
    class       volScalarField;
    location    "2.5";
    object      p;
}
// * * * * * * * * * * * * * * * * * * * * * * * * * * * * * * * * * * * * * //

dimensions      [1 -1 -2 0 0 0 0];

internalField   nonuniform List<scalar> 
5250
(
1
1.00003
1.00007
1.0002
1.00042
1.00119
1.00239
1.00705
1.0132
1.04465
1.07578
1.28952
1.58927
2.95216
6.37547
12.4576
11.5531
11.1178
11.2144
11.4798
11.7367
11.8886
12.0048
12.0994
12.1706
1
1.00003
1.00007
1.0002
1.00041
1.00118
1.00237
1.00695
1.01309
1.04386
1.07476
1.28431
1.5778
2.91292
6.257
12.4546
11.5605
11.1114
11.207
11.471
11.7272
11.8794
11.9975
12.0938
12.167
1
1.00003
1.00007
1.0002
1.00041
1.00115
1.00232
1.00675
1.01293
1.04227
1.07288
1.27432
1.55382
2.83472
6.01955
12.421
11.5546
11.0876
11.1788
11.4354
11.6875
11.8379
11.9553
12.051
12.1246
1
1.00003
1.00006
1.00019
1.00039
1.00111
1.00225
1.00651
1.01258
1.04048
1.07037
1.26225
1.52526
2.74597
5.76369
12.2987
11.515
11.0446
11.1286
11.3709
11.6149
11.7617
11.8764
11.9701
12.0449
1
1.00003
1.00006
1.00018
1.00038
1.00107
1.00217
1.00624
1.01213
1.03842
1.06777
1.2478
1.49482
2.6472
5.48902
12.0268
11.4305
10.9912
11.0634
11.2799
11.5133
11.6549
11.7641
11.854
11.9309
1
1.00002
1.00006
1.00017
1.00036
1.00102
1.00207
1.00593
1.01161
1.03625
1.06457
1.23409
1.45663
2.57225
5.15138
11.6477
11.3013
10.9368
10.9865
11.156
11.3756
11.51
11.6097
11.6922
11.7705
1
1.00002
1.00006
1.00016
1.00034
1.00097
1.00196
1.0056
1.01109
1.03382
1.0618
1.21748
1.42034
2.48339
4.78645
11.1577
11.1099
10.8979
10.8993
10.9986
11.1987
11.3207
11.402
11.466
11.5381
1
1.00002
1.00005
1.00015
1.00032
1.0009
1.00182
1.00519
1.01034
1.03118
1.05769
1.20013
1.38232
2.37158
4.41964
10.5191
10.979
10.8251
10.7625
10.8263
10.9781
11.0787
11.1276
11.1532
11.1966
1
1.00002
1.00005
1.00014
1.00029
1.00081
1.00165
1.00471
1.00941
1.02826
1.05259
1.18177
1.3413
2.24734
4.04429
9.73843
10.8706
10.7292
10.5912
10.626
10.7213
10.7775
10.77
10.7176
10.6565
1
1.00002
1.00004
1.00012
1.00025
1.0007
1.00142
1.00411
1.00802
1.0252
1.04468
1.16421
1.29471
2.12349
3.68476
8.83722
10.7723
10.6267
10.3952
10.3969
10.4253
10.4131
10.3259
10.1014
9.72914
1
1.00001
1.00004
1.00008
1.00023
1.00046
1.00142
1.00248
1.00895
1.01446
1.0564
1.09217
1.36818
1.75972
3.51788
7.73035
10.6929
10.5271
10.1937
10.1313
10.105
10.0121
9.7522
9.1358
7.56552
1
1.00001
1.00003
1.00009
1.00019
1.00053
1.00108
1.00313
1.0061
1.01913
1.0338
1.12343
1.21656
1.81961
2.89467
6.61384
10.6189
10.4183
10.0017
9.86542
9.78229
9.59285
9.17678
8.33252
6.69321
1
1.00001
1.00003
1.00008
1.00017
1.00047
1.00095
1.0027
1.00546
1.01582
1.03117
1.09705
1.18839
1.63533
2.49154
5.36664
10.4262
10.2507
9.83755
9.61195
9.46731
9.19714
8.67874
7.80371
6.46798
1
1.00001
1.00002
1.00007
1.00014
1.00039
1.0008
1.00226
1.00458
1.01318
1.02603
1.08041
1.15366
1.52044
2.19793
4.58719
9.81631
9.90341
9.68432
9.37367
9.15996
8.84311
8.31332
7.50566
6.42729
1
1.00001
1.00002
1.00005
1.00011
1.00031
1.00064
1.0018
1.00357
1.01075
1.01941
1.06839
1.11496
1.4407
1.93173
3.97493
8.5821
9.59076
9.46044
9.16587
8.88968
8.54676
8.04
7.32173
6.41795
1
1.00001
1.00001
1.00004
1.00009
1.00026
1.00052
1.00147
1.00293
1.00868
1.01599
1.05487
1.09222
1.35387
1.71998
3.36472
7.11182
9.36165
9.27565
9.0191
8.6761
8.3097
7.82925
7.18768
6.40978
1
1
1.00001
1.00004
1.00007
1.0002
1.00042
1.00117
1.00237
1.00681
1.01312
1.04217
1.07318
1.2705
1.54288
2.76918
5.55568
9.13434
9.12155
8.9257
8.52317
8.12082
7.66166
7.08695
6.40672
1
1
1.00001
1.00003
1.00006
1.00016
1.00033
1.00092
1.00186
1.00526
1.01051
1.03115
1.0585
1.19457
1.38544
2.26549
4.09917
8.58514
8.97454
8.80584
8.417
7.97233
7.52513
7.00397
6.39977
1
1
1.00001
1.00002
1.00004
1.00012
1.00024
1.00068
1.00138
1.00391
1.00765
1.0236
1.04201
1.15092
1.26866
1.99718
3.29102
7.29441
8.7044
8.60504
8.31596
7.86128
7.41874
6.93453
6.39046
1
1
1.00001
1.00001
1.00004
1.00007
1.00021
1.00042
1.00118
1.00229
1.00709
1.01234
1.04485
1.07339
1.28105
1.56208
2.80666
5.59021
8.41741
8.40891
8.2267
7.81669
7.3406
6.87391
6.37788
1
1
1
1.00001
1.00003
1.00006
1.00016
1.00032
1.0009
1.00183
1.00516
1.01034
1.03044
1.05772
1.18792
1.3751
2.20724
3.85342
7.84588
8.29046
8.14674
7.79046
7.28832
6.82935
6.36614
1
1
1
1.00001
1.00002
1.00005
1.00009
1.00026
1.00054
1.00151
1.00298
1.00895
1.01626
1.0558
1.09619
1.34654
1.73462
3.20529
6.45581
8.03837
7.97915
7.74269
7.26568
6.80181
6.36346
1
1
1
1.00001
1.00001
1.00003
1.00008
1.00017
1.00047
1.00095
1.00267
1.00538
1.01562
1.02992
1.09598
1.17976
1.6076
2.38184
4.79985
7.63643
7.78316
7.64216
7.27662
6.80328
6.36551
1
1
1
1
1.00001
1.00002
1.00005
1.00013
1.00027
1.00075
1.00152
1.00432
1.00844
1.02582
1.04623
1.1614
1.29559
2.0146
3.31538
6.77722
7.61716
7.52998
7.26982
6.81973
6.37565
1
1
1
1
1.00001
1.00001
1.00004
1.00008
1.00022
1.00044
1.00124
1.00245
1.00725
1.01321
1.0448
1.0752
1.2772
1.54146
2.7236
5.16649
7.29541
7.35082
7.22536
6.88293
6.40403
1
1
1
1
1
1.00001
1.00003
1.00006
1.00015
1.00031
1.00086
1.00174
1.00485
1.00974
1.02808
1.05412
1.16935
1.33963
2.04941
3.40681
6.65111
7.22953
7.14898
6.90979
6.46268
1
1
1
1
1
1.00001
1.00002
1.00004
1.00009
1.00024
1.00049
1.00135
1.00272
1.00768
1.01508
1.0457
1.08459
1.27927
1.58945
2.71842
5.15606
6.95142
6.99524
6.88324
6.58394
1
1
1
1
1
1
1.00001
1.00002
1.00007
1.00014
1.00037
1.00076
1.0021
1.00424
1.01198
1.02372
1.06969
1.14041
1.41855
1.94586
3.44691
6.33949
6.87448
6.81488
6.61207
1
1
1
1
1
1
1.00001
1.00002
1.00004
1.0001
1.00021
1.00057
1.00114
1.00319
1.00623
1.01873
1.03341
1.11517
1.20116
1.71452
2.53679
5.01887
6.60593
6.67294
6.58092
1
1
1
1
1
1
1
1.00001
1.00002
1.00007
1.00014
1.00037
1.00075
1.00208
1.00419
1.0117
1.02346
1.06711
1.13839
1.39997
1.90072
3.29372
5.9806
6.54467
6.5041
1
1
1
1
1
1
1
1.00001
1.00002
1.00004
1.0001
1.0002
1.00054
1.00109
1.00303
1.00595
1.01763
1.0318
1.10773
1.18918
1.6565
2.40792
4.64607
6.24624
6.38232
1
1
1
1
1
1
1
1
1.00001
1.00002
1.00006
1.00013
1.00035
1.0007
1.00193
1.0039
1.01082
1.0218
1.06145
1.12779
1.36224
1.81221
3.06823
5.53668
6.22619
1
1
1
1
1
1
1
1
1.00001
1.00002
1.00003
1.00009
1.00018
1.00049
1.001
1.00275
1.00551
1.01566
1.02976
1.09364
1.17219
1.56225
2.21337
4.11921
5.85188
1
1
1
1
1
1
1
1
1
1.00001
1.00002
1.00005
1.00013
1.00026
1.0007
1.00142
1.0039
1.00777
1.0223
1.04167
1.133
1.24766
1.77499
2.69631
5.01708
1
1
1
1
1
1
1
1
1
1.00001
1.00001
1.00003
1.00008
1.00016
1.00042
1.00086
1.00234
1.00472
1.01302
1.02574
1.07499
1.14545
1.43887
1.95249
3.3614
1
1
1
1
1
1
1
1
1
1
1.00001
1.00002
1.00005
1.00009
1.00025
1.00051
1.00137
1.00278
1.00761
1.01526
1.04274
1.08724
1.24656
1.54355
2.42113
1
1
1
1
1
1
1
1
1
1
1
1.00001
1.00002
1.00006
1.00012
1.00034
1.00068
1.00184
1.00371
1.0102
1.02041
1.05719
1.11726
1.32722
1.7232
1
1
1
1
1
1
1
1
1
1
1
1.00001
1.00001
1.00004
1.00007
1.00019
1.00039
1.00106
1.00214
1.00582
1.0117
1.03233
1.06561
1.18325
1.39943
1
1
1
1
1
1
1
1
1
1
1
1
1.00001
1.00002
1.00005
1.00009
1.00026
1.00052
1.0014
1.00283
1.00775
1.01562
1.04314
1.08939
1.24558
1
1
1
1
1
1
1
1
1
1
1
1
1
1.00001
1.00002
1.00006
1.00012
1.00033
1.00067
1.00181
1.00365
1.00997
1.01988
1.05543
1.11284
1
1
1
1
1
1
1
1
1
1
1
1
1
1.00001
1.00001
1.00003
1.00007
1.00018
1.00037
1.001
1.00201
1.00542
1.01086
1.02984
1.0602
1
1
1
1
1
1
1
1
1
1
1
1
1
1
1.00001
1.00002
1.00004
1.00009
1.00023
1.00047
1.00126
1.00255
1.00691
1.01391
1.03809
1
1
1
1
1
1
1
1
1
1
1
1
1
1
1
1.00001
1.00002
1.00005
1.00011
1.00029
1.00059
1.00158
1.00319
1.00863
1.0174
1
1
1
1
1
1
1
1
1
1
1
1
1
1
1
1
1.00001
1.00003
1.00007
1.00014
1.00036
1.00073
1.00194
1.0039
1.01051
1
1
1
1
1
1
1
1
1
1
1
1
1
1
1
1
1.00001
1.00001
1.00004
1.00007
1.00019
1.00039
1.00102
1.00207
1.00551
1
1
1
1
1
1
1
1
1
1
1
1
1
1
1
1
1
1.00001
1.00002
1.00004
1.00009
1.00023
1.00047
1.00124
1.0025
1
1
1
1
1
1
1
1
1
1
1
1
1
1
1
1
1
1
1.00001
1.00002
1.00005
1.00012
1.00025
1.00066
1.00134
1
1
1
1
1
1
1
1
1
1
1
1
1
1
1
1
1
1
1
1.00001
1.00003
1.00007
1.00014
1.00036
1.00073
1
1
1
1
1
1
1
1
1
1
1
1
1
1
1
1
1
1
1
1.00001
1.00002
1.00004
1.0001
1.0002
1.00054
1
1
1
1
1
1
1
1
1
1
1
1
1
1
1
1
1
1
1
1.00001
1.00001
1.00003
1.00007
1.00019
1.00038
3.06168
1.54447
1.03563
0.929529
0.955182
1.034
1.20025
1.33531
1.37902
1.37768
1.37306
1.37334
1.37554
1.38133
1.39302
1.4014
1.40437
1.40423
1.40371
1.40254
1.40089
1.39953
1.39827
1.39666
1.39455
1.39215
1.39036
1.39054
1.39161
1.39522
1.40541
1.43101
1.4923
1.63473
1.96344
2.71517
3.64461
3.6741
3.68531
3.72081
3.78837
3.89852
4.04532
4.19341
4.32066
4.42855
4.5162
4.57856
4.61507
4.63498
4.64148
4.64002
4.63312
4.61718
4.59073
4.55969
4.52436
4.48636
4.44559
4.40287
4.35768
4.31057
4.2612
4.21013
4.15736
4.10353
4.0487
3.99335
3.93745
3.88128
3.8248
3.7682
3.71149
3.65486
3.59838
3.54222
3.4865
3.43133
3.37683
3.32304
3.27007
3.21785
3.16646
3.11576
3.06592
3.01679
2.96854
2.92098
2.87426
2.82814
2.78307
2.73864
2.69519
2.65224
2.6104
2.56947
2.53027
2.49352
2.46158
2.44004
3.72348
2.30501
1.70324
1.45309
1.33874
1.26873
1.25446
1.26254
1.28509
1.33152
1.37825
1.39852
1.39841
1.39749
1.39608
1.39648
1.39777
1.40059
1.40363
1.40384
1.40355
1.40263
1.40061
1.39748
1.39447
1.39182
1.38927
1.38939
1.3903
1.39339
1.40219
1.42352
1.47422
1.59275
1.86444
2.48419
3.58473
3.73147
3.70601
3.72199
3.78053
3.89153
4.01821
4.15949
4.28727
4.39619
4.4856
4.55016
4.59006
4.61307
4.62189
4.62141
4.61739
4.606
4.58205
4.54905
4.51372
4.47684
4.43717
4.39501
4.3502
4.3033
4.25429
4.2036
4.15132
4.09791
4.04351
3.98847
3.9329
3.87697
3.82076
3.76435
3.70791
3.65144
3.59521
3.53919
3.48369
3.42864
3.37434
3.32063
3.26781
3.21561
3.16439
3.11382
3.06419
3.01512
2.96709
2.91965
2.87315
2.82725
2.78217
2.73757
2.694
2.65106
2.60924
2.56826
2.52891
2.49171
2.45922
2.43602
4.56382
3.24397
2.42036
1.90222
1.57207
1.36768
1.24991
1.23661
1.24406
1.26577
1.31103
1.35423
1.38245
1.39597
1.39914
1.3989
1.39821
1.39793
1.39804
1.39826
1.3982
1.39796
1.39733
1.39597
1.3933
1.39033
1.38742
1.38599
1.38638
1.38839
1.39351
1.40953
1.44266
1.53232
1.72513
2.19461
3.22497
3.72793
3.81764
3.86384
3.92461
3.9954
4.07712
4.1709
4.26198
4.35331
4.43954
4.50819
4.55413
4.58167
4.59338
4.59328
4.5907
4.58263
4.56449
4.53298
4.49828
4.46206
4.42337
4.38208
4.33804
4.29178
4.24345
4.19342
4.14189
4.08914
4.03543
3.98092
3.92588
3.87032
3.81453
3.75844
3.70237
3.6462
3.59033
3.53461
3.47944
3.42467
3.3707
3.31727
3.26476
3.21269
3.16171
3.11128
3.06188
3.01302
2.96506
2.9176
2.87116
2.8252
2.78024
2.73573
2.69231
2.64939
2.60764
2.56657
2.52707
2.48946
2.45555
2.43129
5.02557
3.83339
2.95516
2.34544
1.93755
1.66389
1.49228
1.38538
1.32334
1.30748
1.31093
1.32248
1.34706
1.37582
1.39594
1.40684
1.40701
1.40644
1.40494
1.40192
1.40007
1.39908
1.3985
1.39772
1.3961
1.3933
1.3901
1.38688
1.38652
1.3873
1.39088
1.39909
1.42438
1.47618
1.61123
1.89847
2.55565
3.63929
4.05431
4.198
4.23683
4.23847
4.23229
4.22842
4.2406
4.27627
4.34727
4.42051
4.48171
4.52405
4.54629
4.55148
4.55002
4.54477
4.53239
4.50725
4.47441
4.4389
4.40112
4.36099
4.31835
4.27344
4.22646
4.1776
4.12722
4.07544
4.02268
3.96893
3.91465
3.8597
3.80454
3.74896
3.69344
3.63773
3.58237
3.52707
3.47239
3.41801
3.36437
3.31131
3.25921
3.20765
3.15698
3.10677
3.05759
3.00884
2.9611
2.91378
2.86753
2.82168
2.77693
2.73255
2.68928
2.64642
2.60476
2.56368
2.5241
2.48617
2.45141
2.42583
5.3042
4.26115
3.4159
2.77735
2.31228
1.97455
1.73007
1.55536
1.4333
1.35623
1.3152
1.31478
1.31818
1.32804
1.34847
1.36924
1.38453
1.39417
1.39713
1.39682
1.39578
1.39357
1.39104
1.38895
1.38768
1.38667
1.38535
1.38325
1.38228
1.38272
1.38427
1.39112
1.40365
1.44419
1.52197
1.73367
2.18161
3.22931
4.27271
4.71419
4.69845
4.63185
4.48094
4.32547
4.24508
4.2448
4.25642
4.29178
4.3613
4.42449
4.46902
4.49217
4.4975
4.49575
4.48923
4.47411
4.44563
4.41204
4.37477
4.33516
4.29374
4.25045
4.20532
4.15819
4.10946
4.05907
4.00754
3.95477
3.90136
3.84713
3.79269
3.73773
3.68288
3.62775
3.57308
3.51838
3.46434
3.41057
3.35772
3.30507
3.25338
3.20206
3.15174
3.10177
3.05284
3.00427
2.95678
2.90963
2.86357
2.81787
2.77328
2.72904
2.68593
2.6432
2.60165
2.56063
2.52101
2.48289
2.44764
2.42072
5.49389
4.58896
3.80379
3.16891
2.67413
2.29446
2.00571
1.78798
1.62506
1.50733
1.42197
1.36731
1.33793
1.33501
1.3374
1.34465
1.35983
1.37699
1.39043
1.39911
1.40126
1.40085
1.39949
1.39655
1.39246
1.38897
1.38622
1.38384
1.38238
1.38266
1.38403
1.38815
1.39886
1.42502
1.48593
1.62976
1.95881
2.70977
4.27555
5.324
5.27773
5.11372
4.79221
4.51503
4.33022
4.23638
4.21323
4.21605
4.23299
4.27461
4.33555
4.38353
4.41508
4.42766
4.42668
4.42135
4.40772
4.38005
4.34489
4.30534
4.26442
4.22233
4.17899
4.13388
4.08723
4.03871
3.98878
3.93727
3.88493
3.83157
3.77792
3.72368
3.66957
3.61504
3.56114
3.50733
3.45417
3.4011
3.34881
3.29666
3.24539
3.19439
3.14439
3.09469
3.04605
2.99772
2.9505
2.90357
2.85776
2.81227
2.7679
2.72388
2.68098
2.63846
2.59707
2.55621
2.51665
2.47845
2.44299
2.41504
5.62808
4.84066
4.1233
3.51092
3.00805
2.60382
2.28261
2.02877
1.82878
1.67276
1.55152
1.46233
1.39651
1.35754
1.33682
1.33687
1.33889
1.34469
1.35671
1.36958
1.37952
1.38591
1.38767
1.38745
1.38664
1.38483
1.38187
1.37914
1.37748
1.37775
1.37936
1.38276
1.39368
1.41522
1.47179
1.58859
1.87255
2.49866
3.92125
5.80409
5.77504
5.60795
5.2699
4.87904
4.57234
4.3652
4.23926
4.18404
4.17409
4.17793
4.19536
4.23492
4.28747
4.32431
4.34722
4.34987
4.34668
4.33613
4.31312
4.27652
4.23597
4.19377
4.15077
4.10675
4.06184
4.01529
3.96724
3.91738
3.86641
3.81418
3.76148
3.70811
3.65483
3.60152
3.54856
3.49558
3.44322
3.39083
3.33913
3.28749
3.23671
3.1861
3.13649
3.08712
3.03882
2.99079
2.94386
2.89721
2.85168
2.80645
2.76233
2.71857
2.67588
2.63359
2.59238
2.55168
2.51223
2.47399
2.43846
2.40976
5.72366
5.03141
4.37896
3.79904
3.3032
2.88901
2.54811
2.26963
2.04336
1.86056
1.71351
1.59681
1.5056
1.43756
1.38744
1.35841
1.34227
1.34233
1.34405
1.34898
1.35925
1.37095
1.38091
1.3878
1.38807
1.3876
1.38625
1.38345
1.3806
1.38083
1.38235
1.38663
1.39931
1.42546
1.49024
1.62272
1.91678
2.5204
3.62025
5.12472
5.73379
5.6952
5.54067
5.22181
4.91784
4.6212
4.3962
4.2504
4.16364
4.13229
4.12733
4.13179
4.14836
4.18436
4.22618
4.25277
4.26535
4.26388
4.25701
4.24014
4.20624
4.16603
4.12257
4.07823
4.03377
3.98836
3.9419
3.8938
3.84451
3.79376
3.74229
3.69007
3.638
3.58572
3.53379
3.48166
3.43004
3.37831
3.32724
3.27619
3.22595
3.17584
3.12669
3.07774
3.02984
2.98216
2.93558
2.88926
2.84404
2.79912
2.75528
2.71179
2.66937
2.62733
2.58636
2.54586
2.50659
2.4684
2.43292
2.40369
5.7936
5.17737
4.58353
4.0398
3.55998
3.14663
2.79627
2.50224
2.25691
2.05323
1.88451
1.74554
1.6319
1.54011
1.46779
1.41331
1.37402
1.35196
1.34081
1.341
1.34262
1.34685
1.35552
1.36419
1.37113
1.37579
1.37819
1.37828
1.37845
1.37943
1.38203
1.39111
1.40862
1.45614
1.54826
1.76076
2.18228
2.91211
3.48756
4.11977
4.8166
5.31156
5.38186
5.32468
5.1685
4.88442
4.65726
4.43864
4.27323
4.16974
4.10828
4.08462
4.0773
4.08102
4.09428
4.12275
4.15385
4.1715
4.17408
4.17072
4.1595
4.1348
4.09544
4.05203
4.00693
3.9609
3.91465
3.86759
3.81981
3.77067
3.72095
3.67041
3.61979
3.56865
3.51772
3.46643
3.41558
3.36456
3.31417
3.26375
3.21414
3.16459
3.11598
3.06751
3.02007
2.97284
2.92667
2.88073
2.83588
2.7913
2.7478
2.70461
2.66248
2.62071
2.58001
2.53972
2.50067
2.46255
2.42718
2.39755
5.84288
5.29034
4.74866
4.24109
3.78166
3.37588
3.02343
2.72085
2.46281
2.24398
2.05883
1.90281
1.77174
1.66247
1.57236
1.49909
1.44175
1.39808
1.36667
1.34915
1.34046
1.34071
1.34227
1.34622
1.35427
1.36267
1.37012
1.37472
1.37764
1.38154
1.38959
1.40706
1.44432
1.52544
1.69453
2.0405
2.71067
3.20318
3.44162
3.68104
3.99834
4.41131
4.80686
5.04659
5.03285
4.97188
4.83565
4.6263
4.46489
4.31239
4.18151
4.09903
4.05191
4.03036
4.01769
4.02048
4.03036
4.05153
4.0725
4.08093
4.07945
4.07274
4.05642
4.02353
3.98159
3.93484
3.88747
3.8401
3.79285
3.74494
3.69686
3.64801
3.59897
3.5492
3.49942
3.44912
3.39914
3.34889
3.29923
3.24948
3.20052
3.1516
3.10358
3.05568
3.00877
2.96203
2.91632
2.87082
2.82637
2.78218
2.73904
2.6962
2.65441
2.61293
2.57254
2.53251
2.49373
2.45575
2.42057
2.39065
5.87926
5.37942
4.88335
4.41029
3.97351
3.57968
3.23055
2.92484
2.65923
2.42987
2.23239
2.06296
1.91782
1.794
1.68881
1.60012
1.52643
1.46615
1.419
1.38309
1.3578
1.34355
1.33737
1.33768
1.33925
1.34293
1.3504
1.35922
1.3687
1.37918
1.39606
1.4306
1.50221
1.65074
1.95359
2.56184
3.12662
3.34795
3.42924
3.50852
3.62352
3.79177
4.00924
4.32262
4.581
4.74907
4.73857
4.69572
4.60359
4.44093
4.31975
4.20685
4.09814
4.02674
3.98753
3.96371
3.94852
3.95067
3.95765
3.97212
3.98498
3.98478
3.9816
3.97158
3.94939
3.90832
3.86181
3.81376
3.76597
3.71809
3.67068
3.623
3.5754
3.52712
3.47876
3.42973
3.38087
3.33159
3.2828
3.23385
3.18562
3.13738
3.09001
3.04274
2.9964
2.95023
2.90502
2.86003
2.81602
2.77227
2.72953
2.68706
2.64564
2.60449
2.56444
2.52468
2.48621
2.44841
2.41347
2.38332
5.91329
5.45229
4.99365
4.55232
4.13877
3.75961
3.4175
3.11285
2.84368
2.60761
2.40119
2.22145
2.0651
1.92955
1.81221
1.71114
1.62459
1.55124
1.49011
1.44005
1.40112
1.37138
1.35101
1.3391
1.33601
1.33685
1.33978
1.34649
1.35998
1.37997
1.41233
1.47744
1.61033
1.87993
2.42396
3.06147
3.33635
3.41098
3.4288
3.4419
3.45867
3.49298
3.56417
3.70172
3.88812
4.13625
4.34613
4.49527
4.49997
4.47767
4.41649
4.29485
4.18981
4.09925
4.0183
3.95226
3.91349
3.89068
3.87329
3.87451
3.87871
3.88594
3.89046
3.88881
3.88238
3.86637
3.8336
3.78867
3.74058
3.69188
3.64409
3.59667
3.54989
3.50277
3.45576
3.40809
3.36053
3.31243
3.26469
3.21667
3.16926
3.12179
3.07511
3.02851
2.98277
2.93719
2.89252
2.84805
2.80452
2.76122
2.71891
2.67685
2.63583
2.59505
2.55538
2.51593
2.47783
2.44022
2.40561
2.37529
5.93793
5.50978
5.08509
4.67353
4.28298
3.91961
3.58687
3.28603
3.0164
2.7765
2.56399
2.37643
2.21131
2.06616
1.93892
1.82748
1.73041
1.64604
1.57355
1.51168
1.46013
1.41793
1.38487
1.36081
1.34384
1.34036
1.34188
1.34698
1.36061
1.38721
1.44496
1.5585
1.79438
2.26574
2.94256
3.31159
3.41897
3.4311
3.42707
3.413
3.38135
3.34849
3.35385
3.37753
3.43624
3.55572
3.72492
3.9348
4.12117
4.25585
4.29521
4.28222
4.24545
4.16705
4.06953
3.9952
3.9292
3.87399
3.83563
3.81016
3.79308
3.79125
3.7924
3.79501
3.79421
3.79004
3.77847
3.75317
3.71224
3.66578
3.61833
3.57069
3.52385
3.47706
3.43082
3.38424
3.33794
3.29116
3.24469
3.19783
3.15145
3.10489
3.059
3.01311
2.96802
2.92305
2.87894
2.83501
2.792
2.74918
2.70735
2.66573
2.62515
2.58476
2.54553
2.50638
2.46879
2.43126
2.39721
2.36675
5.96319
5.56295
5.16811
4.78167
4.41131
4.06306
3.74035
3.44491
3.17686
2.93538
2.71904
2.52588
2.35398
2.20123
2.06589
1.94591
1.84011
1.74665
1.66488
1.59338
1.53171
1.47918
1.4351
1.40014
1.37269
1.35905
1.36047
1.36796
1.38419
1.43025
1.51671
1.71191
2.09678
2.77374
3.24604
3.4117
3.43838
3.43454
3.41933
3.38335
3.31999
3.26352
3.22413
3.21541
3.22222
3.24579
3.3004
3.4095
3.55366
3.72479
3.89526
4.02204
4.10248
4.09996
4.08386
4.04667
3.97049
3.89569
3.83829
3.79073
3.7528
3.72507
3.70791
3.70193
3.70182
3.70097
3.69736
3.68771
3.66688
3.63028
3.5883
3.543
3.49698
3.45052
3.40465
3.35871
3.31335
3.26772
3.22251
3.17692
3.13175
3.08629
3.04137
2.99633
2.952
2.90768
2.8642
2.82081
2.77834
2.73603
2.6947
2.65355
2.61345
2.57351
2.53474
2.49598
2.45887
2.42154
2.38807
2.35749
5.99658
5.61597
5.24442
4.88027
4.52785
4.19342
3.88048
3.59101
3.32572
3.0843
2.86576
2.6689
2.4919
2.33328
2.19138
2.06442
1.95135
1.85035
1.76082
1.68134
1.61133
1.5503
1.49702
1.45358
1.41654
1.39825
1.40054
1.40996
1.44297
1.50732
1.66403
1.97014
2.59696
3.14415
3.3852
3.43828
3.43628
3.42336
3.39046
3.32537
3.26158
3.20572
3.15866
3.12154
3.09492
3.08945
3.09505
3.11395
3.15692
3.24393
3.36474
3.50985
3.66473
3.8008
3.89777
3.94271
3.93626
3.9146
3.87335
3.81082
3.75039
3.70309
3.66681
3.63747
3.61876
3.61126
3.60984
3.60627
3.59751
3.57871
3.54844
3.51038
3.46855
3.42403
3.37891
3.33327
3.28822
3.24311
3.19867
3.15408
3.11004
3.06574
3.02196
2.97794
2.93453
2.89101
2.84824
2.80549
2.76362
2.72185
2.68106
2.64042
2.60082
2.56139
2.5231
2.48479
2.44817
2.41124
2.37812
2.34759
6.04888
5.67371
5.31585
4.96915
4.63394
4.31233
4.00888
3.72581
3.46398
3.224
3.00448
2.80545
2.62479
2.4617
2.31463
2.18194
2.06286
1.95551
1.85945
1.77322
1.69624
1.62823
1.56737
1.51806
1.47302
1.46123
1.46601
1.48347
1.54123
1.65523
1.922
2.45028
3.04787
3.35681
3.44366
3.44157
3.42818
3.39361
3.32563
3.26186
3.20615
3.15612
3.10984
3.06668
3.02809
2.99469
2.97043
2.95878
2.96251
2.97585
3.00747
3.07237
3.1712
3.29616
3.43893
3.58204
3.69726
3.77766
3.80194
3.79429
3.77302
3.72592
3.6685
3.61652
3.57533
3.54552
3.52616
3.51779
3.51213
3.50245
3.48653
3.46129
3.42976
3.39191
3.35085
3.30733
3.26327
3.21862
3.17457
3.13045
3.08708
3.04362
3.00082
2.95781
2.91542
2.87283
2.83094
2.78896
2.7478
2.70668
2.66649
2.62641
2.58736
2.54844
2.51066
2.47287
2.43669
2.40032
2.36747
2.33698
6.12662
5.73814
5.38648
5.05102
4.72916
4.42063
4.1265
3.85054
3.59279
3.3551
3.13596
2.93553
2.75277
2.58602
2.43514
2.29764
2.17364
2.06093
1.95929
1.86738
1.78451
1.71059
1.64452
1.59008
1.54623
1.54727
1.55687
1.60128
1.68855
1.9151
2.36205
3.00334
3.35968
3.47122
3.46918
3.45437
3.4137
3.33262
3.26249
3.20376
3.15384
3.10741
3.06308
3.01983
2.97764
2.93747
2.90053
2.8677
2.84353
2.82525
2.82753
2.83637
2.85758
2.90085
2.98342
3.09215
3.22356
3.36607
3.5033
3.60638
3.67683
3.67896
3.66914
3.643
3.59037
3.53275
3.48735
3.45417
3.43199
3.41675
3.40455
3.38928
3.3705
3.34383
3.3122
3.27519
3.23528
3.19311
3.15035
3.10691
3.06396
3.02093
2.97866
2.93637
2.8948
2.85313
2.81215
2.77108
2.73075
2.69042
2.65093
2.61153
2.57308
2.53475
2.4975
2.4603
2.42454
2.38873
2.35623
2.32581
6.20218
5.80529
5.45546
5.12943
4.81611
4.51843
4.23409
3.9658
3.71339
3.47839
3.26097
3.06
2.87605
2.70687
2.55271
2.41167
2.28316
2.16619
2.05951
1.96286
1.87505
1.79615
1.72799
1.66912
1.64831
1.65486
1.68398
1.76006
1.94622
2.32847
3.00495
3.41388
3.54076
3.5373
3.51767
3.46413
3.37699
3.29684
3.22751
3.1664
3.11145
3.06209
3.01736
2.97366
2.93099
2.88912
2.84822
2.80933
2.7728
2.74075
2.71462
2.69451
2.69074
2.69503
2.7091
2.7403
2.80423
2.89727
3.01604
3.15905
3.30681
3.4411
3.53548
3.58563
3.57803
3.55459
3.50729
3.45256
3.40582
3.36672
3.33774
3.31625
3.29812
3.27814
3.25604
3.22841
3.19664
3.16068
3.12221
3.08153
3.0402
2.99807
2.95632
2.91446
2.87339
2.83235
2.79211
2.75187
2.71239
2.67292
2.63425
2.59563
2.5579
2.52023
2.48362
2.44693
2.41177
2.37642
2.3444
2.31408
6.32778
5.89714
5.52806
5.20365
4.90096
4.6116
4.33547
4.07342
3.82641
3.59471
3.37922
3.17905
2.9942
2.82385
2.66699
2.52324
2.3911
2.27036
2.15961
2.05884
1.96695
1.88583
1.8154
1.77061
1.77395
1.79265
1.86525
2.01348
2.3588
3.03287
3.50534
3.65751
3.65283
3.62733
3.56071
3.45688
3.36322
3.28298
3.21278
3.14946
3.09052
3.03468
2.98209
2.93345
2.88851
2.84483
2.80227
2.76082
2.72076
2.68254
2.64664
2.61484
2.58692
2.56692
2.55463
2.55722
2.56664
2.58909
2.63489
2.71364
2.82175
2.95992
3.11438
3.27318
3.39901
3.48446
3.47845
3.45983
3.42876
3.37127
3.32183
3.27909
3.24436
3.21702
3.19328
3.16943
3.1444
3.11583
3.08422
3.04922
3.0121
2.97283
2.93292
2.89214
2.85173
2.8112
2.77148
2.73184
2.69307
2.65435
2.61648
2.57866
2.54172
2.50478
2.46889
2.43282
2.39828
2.36338
2.33195
2.30177
6.33966
5.99311
5.60982
5.27944
4.98076
4.6994
4.43084
4.17529
3.93372
3.70576
3.49233
3.29332
3.10829
2.93693
2.77839
2.63205
2.49723
2.37308
2.25906
2.15504
2.06037
1.98053
1.91232
1.91001
1.9241
1.97868
2.11955
2.43661
3.08252
3.6334
3.82231
3.81702
3.78667
3.70782
3.57485
3.45673
3.3612
3.28031
3.20915
3.14447
3.08259
3.02248
2.96457
2.90884
2.85666
2.80826
2.76249
2.71862
2.67624
2.63526
2.59597
2.55842
2.52344
2.49143
2.46335
2.44213
2.4248
2.42567
2.43106
2.44579
2.47779
2.54371
2.64172
2.77234
2.93201
3.10885
3.26197
3.37566
3.37847
3.36757
3.33982
3.28308
3.23321
3.18856
3.15007
3.11841
3.09056
3.06354
3.03627
3.00687
2.97536
2.94106
2.90517
2.86722
2.82878
2.78947
2.75056
2.71152
2.67331
2.63519
2.59797
2.56082
2.52461
2.4884
2.4532
2.41789
2.38395
2.34965
2.31874
2.2888
6.3077
6.10103
5.71233
5.36594
5.0625
4.78468
4.52208
4.27225
4.03595
3.81228
3.60143
3.40364
3.21892
3.04683
2.88698
2.73863
2.60138
2.47458
2.35795
2.25161
2.15854
2.07996
2.05485
2.06621
2.11288
2.24474
2.54084
3.1623
3.80303
4.03421
4.02855
3.99341
3.90043
3.74207
3.60074
3.48354
3.38501
3.29845
3.22045
3.14811
3.08116
3.01881
2.95738
2.89742
2.83936
2.78382
2.73216
2.68437
2.63869
2.59511
2.55333
2.51326
2.47485
2.43826
2.40409
2.37225
2.34466
2.3213
2.30382
2.29802
2.30112
2.31207
2.33691
2.38966
2.47727
2.59931
2.76321
2.95224
3.13752
3.26506
3.28082
3.27113
3.24466
3.19111
3.14138
3.09631
3.05584
3.02099
2.99004
2.96048
2.93156
2.90144
2.8701
2.83638
2.80173
2.76505
2.72818
2.69045
2.65314
2.6157
2.57907
2.5425
2.50686
2.47128
2.43671
2.40206
2.36877
2.33508
2.30476
2.27513
6.21277
6.09826
5.83466
5.46814
5.15056
4.8705
4.61228
4.36808
4.13536
3.91504
3.70693
3.51062
3.32623
3.15383
2.99282
2.84295
2.70371
2.57498
2.4566
2.35162
2.26123
2.21607
2.22411
2.26444
2.38063
2.66122
3.25198
3.99845
4.28451
4.27898
4.23997
4.13289
3.95001
3.7857
3.64907
3.53214
3.42892
3.33503
3.24868
3.16804
3.09285
3.02186
2.95564
2.89363
2.83166
2.77188
2.7145
2.66021
2.60967
2.56257
2.51787
2.47517
2.43431
2.39527
2.35794
2.32255
2.28919
2.25816
2.23081
2.20642
2.18925
2.17795
2.18001
2.18817
2.20782
2.25004
2.32709
2.44233
2.60957
2.81164
3.01936
3.1537
3.18161
3.17256
3.14702
3.09625
3.04782
3.00315
2.96162
2.92449
2.8914
2.86014
2.8302
2.79961
2.76851
2.73545
2.70191
2.66665
2.63131
2.5952
2.55952
2.52369
2.48865
2.45363
2.41961
2.38553
2.35283
2.31971
2.28998
2.26072
6.11101
6.05981
5.89991
5.57338
5.24515
4.95937
4.70179
4.46103
4.23231
4.01468
3.80886
3.61442
3.43063
3.25797
3.09622
2.94505
2.80459
2.67461
2.55776
2.45647
2.39148
2.3966
2.43107
2.53601
2.80542
3.37228
4.22508
4.56961
4.56456
4.52137
4.39945
4.19137
4.00473
3.84827
3.7142
3.59438
3.48509
3.38348
3.28881
3.1998
3.11643
3.03769
2.96403
2.89408
2.82938
2.76729
2.70635
2.6476
2.59158
2.53924
2.49063
2.4445
2.40082
2.35927
2.31968
2.28191
2.24585
2.21171
2.17935
2.14943
2.12232
2.09808
2.08065
2.06596
2.06738
2.07378
2.08918
2.12391
2.19226
2.30378
2.4734
2.68595
2.91359
3.04538
3.08226
3.07368
3.04887
3.00023
2.95364
2.90901
2.86689
2.82866
2.79451
2.76237
2.73195
2.70124
2.67055
2.63833
2.60589
2.57211
2.53824
2.50374
2.46969
2.43543
2.40205
2.36852
2.33639
2.30375
2.27459
2.2457
5.90732
5.95833
5.88636
5.69806
5.36003
5.05817
4.79456
4.55372
4.32754
4.11292
3.90837
3.71491
3.53208
3.35941
3.19711
3.04527
2.90439
2.77555
2.66499
2.57981
2.58202
2.60979
2.70664
2.95247
3.48237
4.45835
4.8803
4.87602
4.82955
4.69349
4.46096
4.25071
4.07507
3.92361
3.78842
3.66386
3.54809
3.43911
3.33681
3.24011
3.14919
3.06321
2.98243
2.90599
2.83438
2.76661
2.70372
2.64219
2.58298
2.52601
2.472
2.42168
2.37471
2.33028
2.2881
2.24798
2.20982
2.17345
2.13883
2.10602
2.07486
2.04606
2.0194
1.99582
1.97774
1.96194
1.96235
1.96667
1.97953
2.00995
2.07301
2.18258
2.35098
2.5705
2.81564
2.94083
2.98208
2.97367
2.94981
2.90318
2.85816
2.81417
2.77229
2.73396
2.69958
2.66722
2.63677
2.6063
2.57619
2.54495
2.51366
2.48129
2.44893
2.41601
2.38367
2.35092
2.31954
2.28735
2.25886
2.23035
5.41409
5.84701
5.82989
5.72821
5.49637
5.17597
4.89552
4.64776
4.42051
4.20741
4.00485
3.81237
3.63021
3.45827
3.29602
3.14447
3.00462
2.88414
2.78338
2.77837
2.80264
2.89361
3.13513
3.65536
4.69575
5.20082
5.20684
5.16136
5.01566
4.7551
4.52091
4.32499
4.1568
4.00577
3.8669
3.73671
3.6144
3.49855
3.38933
3.28574
3.18813
3.0956
3.00849
2.92592
2.84831
2.77483
2.7058
2.64081
2.57996
2.51995
2.4626
2.4078
2.35654
2.30865
2.26339
2.22056
2.17997
2.14144
2.10482
2.06997
2.03682
2.00537
1.97548
1.9478
1.92187
1.89911
1.88066
1.86508
1.8637
1.86694
1.87884
1.90648
1.96559
2.07669
2.24692
2.46324
2.72039
2.83773
2.88
2.87212
2.84986
2.80613
2.76276
2.72004
2.67906
2.64125
2.60712
2.57501
2.54483
2.51492
2.48554
2.4554
2.42529
2.39432
2.36364
2.33219
2.30196
2.27047
2.24288
2.21484
4.2879
5.55955
5.74787
5.70556
5.57488
5.30242
5.00512
4.74681
4.5161
4.30157
4.0992
3.90735
3.72588
3.55437
3.39352
3.24384
3.11254
3.00231
2.9825
3.00567
3.09606
3.33966
3.87753
4.96704
5.55323
5.57619
5.52547
5.36233
5.07346
4.8134
4.59701
4.41091
4.24443
4.09049
3.94655
3.81035
3.68175
3.55955
3.4441
3.33443
3.23091
3.1326
3.03988
2.95182
2.86888
2.79013
2.71606
2.64595
2.57985
2.51803
2.45868
2.40121
2.3463
2.29419
2.24559
2.19982
2.15656
2.11559
2.07676
2.03989
2.00487
1.97152
1.93983
1.90973
1.88113
1.8546
1.8296
1.80766
1.78939
1.77426
1.77177
1.77485
1.78646
1.81275
1.87084
1.98463
2.15773
2.37634
2.62916
2.73894
2.77972
2.77228
2.75135
2.71012
2.66887
2.62761
2.58789
2.55099
2.51751
2.48604
2.45648
2.42739
2.39893
2.36991
2.3413
2.31164
2.28307
2.25277
2.22646
2.19914
2.78214
4.872
5.57318
5.63319
5.57056
5.41408
5.12286
4.85162
4.61276
4.39594
4.19399
4.00288
3.82021
3.64966
3.49072
3.34967
3.23091
3.19845
3.22054
3.31135
3.55958
4.12086
5.26409
5.93773
5.98027
5.92291
5.73763
5.41664
5.12924
4.89028
4.686
4.50283
4.33403
4.17533
4.02564
3.88339
3.74878
3.62075
3.49969
3.3846
3.27584
3.17243
3.07474
2.98182
2.89412
2.81071
2.73211
2.65739
2.58709
2.52043
2.45782
2.39895
2.34158
2.28658
2.23432
2.18533
2.13925
2.09567
2.05442
2.01534
1.97828
1.94309
1.90969
1.87789
1.84768
1.81901
1.79173
1.76643
1.74252
1.72143
1.70385
1.6892
1.68675
1.68983
1.70149
1.7283
1.78736
1.90134
2.07513
2.30388
2.54428
2.64353
2.68192
2.67486