/*--------------------------------*- C++ -*----------------------------------*\
| =========                 |                                                 |
| \\      /  F ield         | OpenFOAM: The Open Source CFD Toolbox           |
|  \\    /   O peration     | Version:  2412                                  |
|   \\  /    A nd           | Website:  www.openfoam.com                      |
|    \\/     M anipulation  |                                                 |
\*---------------------------------------------------------------------------*/
FoamFile
{
    version     2.0;
    format      ascii;
    arch        "LSB;label=32;scalar=64";
    class       surfaceScalarField;
    location    "2.5";
    object      phi;
}
// * * * * * * * * * * * * * * * * * * * * * * * * * * * * * * * * * * * * * //

dimensions      [1 0 -1 0 0 0 0];

oriented        oriented;

internalField   nonuniform List<scalar> 
10325
(
0.00840003
3.99746e-11
0.00840003
3.14149e-10
0.00840003
9.64336e-10
0.00840002
2.95753e-09
0.00840001
6.93023e-09
0.00839998
1.98101e-08
0.00839992
3.99479e-08
0.00839967
1.38409e-07
0.0083994
2.27285e-07
0.00839761
1.01274e-06
0.00839524
1.93215e-06
0.00838345
7.74435e-06
0.00835714
2.11136e-05
0.00825051
8.65582e-05
0.00777931
0.000399317
0.00714392
0.00066983
0.00655907
0.000600557
0.00593843
0.000626216
0.00527517
0.000668321
0.00455167
0.000730424
0.00375692
0.000798628
0.00289773
0.000861278
0.00198819
0.000913025
0.00102643
0.000966117
0.00102728
0.00840003
8.22438e-11
0.00840003
6.35643e-10
0.00840003
1.9439e-09
0.00840002
5.89329e-09
0.00840001
1.3748e-08
0.00839998
3.86989e-08
0.00839993
7.77348e-08
0.00839969
2.6845e-07
0.00839949
4.09175e-07
0.00839781
1.96865e-06
0.00839581
3.58619e-06
0.00838555
1.43641e-05
0.00836114
4.0533e-05
0.00827391
0.000157517
0.0079248
0.000686783
0.00729102
0.00133013
0.00664982
0.00125164
0.00600154
0.00127829
0.00532215
0.00135237
0.00458145
0.00147741
0.00377148
0.00161184
0.00290108
0.00173346
0.00197572
0.00184171
0.00100119
0.00194497
0.00202926
0.00840003
1.16274e-10
0.00840003
9.06977e-10
0.00840003
2.78364e-09
0.00840002
8.45005e-09
0.00840001
1.99758e-08
0.00839999
5.42213e-08
0.00839993
1.19967e-07
0.00839977
3.44707e-07
0.00839947
6.64498e-07
0.00839846
2.41832e-06
0.00839685
4.69674e-06
0.00839051
1.80569e-05
0.00837468
4.98908e-05
0.00834982
0.000190731
0.00818279
0.000781658
0.00747845
0.00204946
0.00676082
0.0019743
0.00608689
0.00195489
0.00539966
0.00204395
0.00465643
0.00222608
0.00383839
0.00243276
0.00295674
0.00261662
0.00201535
0.00278623
0.00102006
0.00294427
0.00304979
0.00840003
1.4784e-10
0.00840003
1.14535e-09
0.00840003
3.50459e-09
0.00840002
1.05919e-08
0.00840002
2.49802e-08
0.0084
6.72975e-08
0.00839996
1.48815e-07
0.00839983
4.15395e-07
0.00839959
8.38388e-07
0.00839874
2.84689e-06
0.00839797
5.39646e-06
0.0083928
2.10391e-05
0.00838362
5.61819e-05
0.00836175
0.000212319
0.00827168
0.000834591
0.00758603
0.00272103
0.00686306
0.00269669
0.00618871
0.00263291
0.00551911
0.00271756
0.00478239
0.0029685
0.00396491
0.00325181
0.00306872
0.00351297
0.00210302
0.00375438
0.00107075
0.00398028
0.00412095
0.00840003
1.63283e-10
0.00840003
1.26997e-09
0.00840003
3.91635e-09
0.00840003
1.18191e-08
0.00840002
2.79535e-08
0.0084
7.49247e-08
0.00839998
1.6643e-07
0.00839987
4.59933e-07
0.00839971
9.40454e-07
0.00839917
3.0976e-06
0.00839765
6.03324e-06
0.00839599
2.15597e-05
0.00838261
6.43807e-05
0.00839832
0.000195365
0.00829211
0.00090597
0.00770339
0.00328836
0.00697139
0.00342725
0.00631795
0.00328944
0.00567736
0.00336016
0.00494844
0.00369898
0.00413147
0.00406947
0.0032335
0.00441054
0.00224078
0.00474931
0.00115507
0.00507014
0.00527657
0.00840003
1.8923e-10
0.00840003
1.46601e-09
0.00840003
4.5315e-09
0.00840003
1.36116e-08
0.00840002
3.20891e-08
0.0084
8.52542e-08
0.00839997
1.88661e-07
0.00839988
5.15504e-07
0.00839975
1.02906e-06
0.00839908
3.49403e-06
0.00839885
6.16357e-06
0.00839429
2.48612e-05
0.0083908
6.54402e-05
0.00836715
0.000215353
0.00832467
0.000923052
0.00778403
0.00380106
0.00703838
0.00416648
0.00647571
0.00385607
0.00587194
0.00396838
0.00516513
0.00440813
0.00435352
0.00488047
0.00344161
0.00532228
0.00242549
0.00576653
0.00127189
0.0062261
0.00654891
0.00840003
2.38879e-10
0.00840003
1.84922e-09
0.00840003
5.69573e-09
0.00840002
1.71225e-08
0.00840001
4.04218e-08
0.00839999
1.07179e-07
0.00839993
2.39258e-07
0.00839978
6.32813e-07
0.00839942
1.34925e-06
0.00839872
3.95745e-06
0.00839682
7.95348e-06
0.00839353
2.70319e-05
0.00838713
6.96322e-05
0.00834899
0.000250393
0.00833976
0.00091086
0.0078071
0.00430732
0.00738953
0.00457455
0.00674621
0.00450534
0.00603647
0.00467967
0.0053903
0.00505659
0.00461948
0.00564799
0.00372015
0.00622021
0.00267608
0.00681383
0.00145701
0.00745008
0.00800672
0.00840003
2.95047e-10
0.00840003
2.28574e-09
0.00840003
7.07878e-09
0.00840002
2.12122e-08
0.00840001
5.0287e-08
0.00839998
1.32341e-07
0.00839992
2.97028e-07
0.00839974
7.69727e-07
0.00839938
1.67904e-06
0.00839849
4.62333e-06
0.00839665
9.64428e-06
0.00839255
3.00042e-05
0.00838534
7.54458e-05
0.00836132
0.000270388
0.00835989
0.000897127
0.00796967
0.00466532
0.00747939
0.00506447
0.0069391
0.00504744
0.00631535
0.00530309
0.00565353
0.0057182
0.00493461
0.00636624
0.00407244
0.00708044
0.00303317
0.00785393
0.00173596
0.00875022
0.00974342
0.00840003
3.21282e-10
0.00840003
3.01769e-09
0.00840003
9.10213e-09
0.00840002
2.77207e-08
0.0084
6.52293e-08
0.00839995
1.74796e-07
0.00839986
3.85392e-07
0.00839957
1.01643e-06
0.00839906
2.15811e-06
0.00839777
5.7e-06
0.0083958
1.14036e-05
0.00838889
3.57837e-05
0.00838839
7.46233e-05
0.00835589
0.000298174
0.00835808
0.000882908
0.0081251
0.00486465
0.00762486
0.00556548
0.00712542
0.00554772
0.00658486
0.00584236
0.0059962
0.00630616
0.00532749
0.00703459
0.00453663
0.00787017
0.00358381
0.00880796
0.00225256
0.0100844
0.0119971
0.00840003
1.3555e-10
0.00840003
4.28502e-09
0.00840003
6.46638e-09
0.00840002
3.70784e-08
0.00840004
4.65638e-08
0.00839997
2.38631e-07
0.0084001
2.49412e-07
0.00839959
1.49093e-06
0.0084006
1.1131e-06
0.00839688
9.20146e-06
0.00840346
4.66263e-06
0.0083774
6.0625e-05
0.00841671
3.42813e-05
0.00828279
0.000427324
0.00838213
0.000772738
0.00825652
0.00495396
0.00779962
0.00602493
0.00734165
0.00600781
0.00689264
0.00629013
0.00635979
0.00683815
0.00582752
0.00756704
0.00522295
0.00847582
0.00436337
0.00967008
0.00308405
0.011368
0.0150824
0.00840003
4.94822e-10
0.00840003
7.58605e-10
0.00840003
7.36764e-09
0.00840006
8.29501e-09
0.00840005
5.24061e-08
0.00840024
4.96242e-08
0.00840013
3.49267e-07
0.00840136
2.54788e-07
0.0083999
2.47679e-06
0.00840753
1.54459e-06
0.00839398
1.76811e-05
0.00844282
1.13783e-05
0.00834208
0.000132504
0.00860034
0.000166017
0.00829211
0.00106969
0.00853652
0.00466847
0.0080836
0.0064842
0.00760661
0.00648879
0.00721326
0.00668457
0.00682599
0.00722584
0.00643392
0.00795827
0.00601515
0.00889322
0.00564841
0.0100354
0.00570599
0.011311
0.0120528
0.00873719
0.00840003
2.73531e-10
0.00840003
1.49276e-09
0.00840003
5.09691e-09
0.00840002
1.41924e-08
0.00840004
3.59389e-08
0.0084
8.84105e-08
0.00840012
2.19994e-07
0.00839981
5.2491e-07
0.00840093
1.33004e-06
0.00839858
3.67344e-06
0.00840771
8.40324e-06
0.00838951
2.83626e-05
0.00845316
6.75754e-05
0.00833356
0.000280824
0.00862524
0.000769843
0.00912294
0.00412665
0.00857631
0.00703889
0.00799031
0.00708066
0.0075957
0.00707973
0.00728465
0.0075379
0.00701184
0.00823296
0.00680148
0.00910634
0.00677523
0.0100638
0.00727732
0.0108102
0.0108895
0.00844144
0.00840003
2.47e-10
0.00840003
1.92456e-09
0.00840003
5.90266e-09
0.00840002
1.78999e-08
0.00840002
4.24225e-08
0.00839999
1.13899e-07
0.00839994
2.57065e-07
0.00839976
6.79004e-07
0.00839954
1.51406e-06
0.00839894
4.08743e-06
0.00839803
9.08576e-06
0.00839904
2.62071e-05
0.00840243
6.31078e-05
0.00846589
0.000212527
0.00862444
0.00060368
0.00998786
0.0027162
0.00935399
0.00768131
0.00859293
0.00784988
0.00811291
0.00756471
0.00779755
0.00785497
0.00759322
0.0084386
0.00754235
0.00915802
0.00774206
0.00986665
0.00830654
0.010248
0.0101184
0.00907836
0.00840003
2.58274e-10
0.00840003
2.00849e-09
0.00840003
6.10661e-09
0.00840003
1.85416e-08
0.00840003
4.38865e-08
0.00840002
1.17987e-07
0.0084
2.66887e-07
0.00839996
6.94252e-07
0.00839983
1.60758e-06
0.00839989
3.86408e-06
0.00839886
9.93361e-06
0.00840263
2.15756e-05
0.00840351
6.09566e-05
0.00845011
0.000161317
0.00854683
0.000512437
0.0092599
0.00198021
0.00947902
0.00745134
0.00920973
0.00812139
0.00861597
0.0081613
0.00829717
0.00817575
0.00816632
0.00857047
0.00823153
0.00909273
0.008493
0.00960457
0.00895027
0.00979119
0.00953284
0.0095382
0.00840003
1.99773e-10
0.00840003
1.55571e-09
0.00840003
4.82559e-09
0.00840003
1.45203e-08
0.00840004
3.44937e-08
0.00840006
9.1288e-08
0.00840012
2.05643e-07
0.00840024
5.36889e-07
0.00840066
1.16725e-06
0.00840116
3.23748e-06
0.00840417
6.64198e-06
0.00840444
2.07348e-05
0.00842047
4.32048e-05
0.00842953
0.000149455
0.00852157
0.000415289
0.00882172
0.00166797
0.00942102
0.00681768
0.00924506
0.00829388
0.00895103
0.00845421
0.00871912
0.008409
0.00864286
0.00864733
0.00873583
0.0089998
0.00900845
0.00932986
0.00940501
0.00939249
0.00907731
0.00986001
0.00840003
1.75405e-10
0.00840003
1.35856e-09
0.00840003
4.18205e-09
0.00840003
1.25762e-08
0.00840004
2.97555e-08
0.00840005
7.87881e-08
0.00840007
1.76586e-07
0.00840013
4.62289e-07
0.00840029
9.93165e-07
0.00840062
2.80799e-06
0.00840171
5.50017e-06
0.0084036
1.8281e-05
0.00840986
3.66401e-05
0.00842464
0.00013227
0.00848903
0.000347844
0.0087449
0.00140221
0.00966207
0.00586339
0.00952907
0.00842796
0.00928455
0.00869903
0.00909917
0.00859455
0.00907041
0.00867791
0.0091737
0.00889859
0.00940524
0.00910318
0.0097223
0.00907549
0.0087333
0.0100656
0.00840003
1.5293e-10
0.00840003
1.18611e-09
0.00840003
3.66492e-09
0.00840003
1.1016e-08
0.00840004
2.61242e-08
0.00840004
6.90935e-08
0.00840006
1.55132e-07
0.00840011
4.03039e-07
0.0084002
8.86004e-07
0.00840053
2.40204e-06
0.00840105
4.9038e-06
0.00840292
1.59409e-05
0.00840936
2.98341e-05
0.00842493
0.000114415
0.00848153
0.000288375
0.00875134
0.00112324
0.0105217
0.0040565
0.0101029
0.0088475
0.00987113
0.00893307
0.00955965
0.00890812
0.00947293
0.0087649
0.00955834
0.00881262
0.00976503
0.00889779
0.0100172
0.00882635
0.00848643
0.0102651
0.00840003
1.32376e-10
0.00840003
1.07754e-09
0.00840003
3.32273e-09
0.00840003
9.94591e-09
0.00840003
2.37449e-08
0.00840004
6.25331e-08
0.00840005
1.42288e-07
0.00840008
3.6529e-07
0.00840013
8.21546e-07
0.00840039
2.10008e-06
0.0084005
4.72936e-06
0.0084038
1.23274e-05
0.0084059
2.75349e-05
0.00843958
7.93693e-05
0.00851566
0.000208943
0.00893389
0.000702124
0.0106472
0.00231486
0.0109314
0.00854777
0.01058
0.00928596
0.0101806
0.00930946
0.00992727
0.00902183
0.00989999
0.00883975
0.0100389
0.00875934
0.0102381
0.00862855
0.00829913
0.0104269
0.00840003
5.24562e-11
0.00840003
1.07758e-09
0.00840003
2.07426e-09
0.00840003
9.45477e-09
0.00840004
1.52691e-08
0.00840004
5.8862e-08
0.00840009
9.16594e-08
0.0084001
3.44107e-07
0.0084004
5.17294e-07
0.00840041
2.04943e-06
0.00840243
2.66896e-06
0.00840144
1.30577e-05
0.00841582
1.29211e-05
0.00840663
8.72801e-05
0.00851759
9.61596e-05
0.00856318
0.000651826
0.00931007
0.00155285
0.0108607
0.00695858
0.0108532
0.00929012
0.010632
0.00952997
0.0103698
0.00928601
0.010288
0.00892479
0.0103373
0.00871175
0.0104648
0.00850201
0.00817218
0.0105927
0.00840003
9.13747e-11
0.00840003
5.37208e-10
0.00840003
1.9514e-09
0.00840003
5.12287e-09
0.00840004
1.3761e-08
0.00840006
3.19475e-08
0.00840007
8.08388e-08
0.00840023
1.82356e-07
0.00840026
4.69509e-07
0.0084013
1.00273e-06
0.00840093
2.95011e-06
0.00840833
5.60323e-06
0.00840138
1.93646e-05
0.00845106
3.72059e-05
0.00840858
0.00013622
0.00871656
0.00034072
0.00889201
0.00136988
0.0110889
0.00472445
0.0111474
0.00922601
0.0110834
0.00959232
0.0108602
0.00951077
0.0106626
0.00912762
0.0106121
0.00876594
0.010662
0.00845424
0.00809377
0.0107413
0.00840003
1.14363e-10
0.00840003
3.44758e-10
0.00840003
1.96227e-09
0.00840003
3.50488e-09
0.00840003
1.3586e-08
0.00840004
2.23335e-08
0.00840004
8.04691e-08
0.00840009
1.29523e-07
0.00840008
4.64325e-07
0.00840035
7.25268e-07
0.0084005
2.74064e-06
0.00840216
3.87944e-06
0.00840399
1.72481e-05
0.00841952
2.10798e-05
0.00844056
0.000113845
0.00859896
0.000179515
0.00910811
0.000854447
0.0112034
0.00260849
0.0118167
0.00859752
0.0116684
0.00974013
0.0113766
0.00980413
0.0111071
0.00940143
0.0109666
0.00890973
0.0109139
0.00850945
0.00809805
0.0109107
0.00840003
3.76681e-11
0.00840003
4.12569e-10
0.00840003
9.44127e-10
0.00840003
3.72569e-09
0.00840004
6.81492e-09
0.00840004
2.32153e-08
0.00840008
4.0599e-08
0.00840007
1.34314e-07
0.0084003
2.31791e-07
0.00840023
7.73196e-07
0.00840165
1.29772e-06
0.00840079
4.6312e-06
0.00841069
7.20957e-06
0.00840151
2.97118e-05
0.00846944
4.49225e-05
0.00843977
0.000206747
0.00885687
0.000432899
0.00964992
0.00180526
0.0115903
0.00662071
0.011813
0.00951646
0.0117354
0.00988217
0.0114447
0.00969658
0.0113043
0.0090568
0.0112143
0.00860379
0.00816056
0.0111535
0.00840003
5.47688e-11
0.00840003
2.10799e-10
0.00840003
1.04946e-09
0.00840003
2.07811e-09
0.00840003
7.3472e-09
0.00840004
1.32259e-08
0.00840004
4.37285e-08
0.00840009
7.72541e-08
0.00840007
2.52202e-07
0.00840039
4.44168e-07
0.0084002
1.44994e-06
0.00840224
2.56008e-06
0.00840066
8.59121e-06
0.00841556
1.46762e-05
0.00840323
5.60861e-05
0.00851438
9.46948e-05
0.00851306
0.000429465
0.00928057
0.0010312
0.0118381
0.00402169
0.0120925
0.00925334
0.0121077
0.00986916
0.0119402
0.00986671
0.0115885
0.00941373
0.0114576
0.00873863
0.00825379
0.0113672
0.00840003
1.97916e-11
0.00840003
2.2958e-10
0.00840003
5.24224e-10
0.00840003
2.06826e-09
0.00840003
3.8105e-09
0.00840003
1.29145e-08
0.00840005
2.28797e-08
0.00840006
7.4992e-08
0.00840017
1.31727e-07
0.00840018
4.30255e-07
0.00840087
7.48168e-07
0.00840086
2.51633e-06
0.00840526
4.14293e-06
0.00840401
1.56062e-05
0.00843682
2.30406e-05
0.00842614
0.000103773
0.00868605
0.000167958
0.00889807
0.000814141
0.0106942
0.00221123
0.0123212
0.00760245
0.0124275
0.00976215
0.0122793
0.0100155
0.0119075
0.00978914
0.0117465
0.00890319
0.00840037
0.0116025
0.00840003
2.16589e-11
0.00840003
1.24233e-10
0.00840003
4.61242e-10
0.00840003
1.18458e-09
0.00840003
3.25451e-09
0.00840004
7.43101e-09
0.00840004
1.922e-08
0.00840007
4.27524e-08
0.00840009
1.09223e-07
0.00840028
2.40963e-07
0.00840039
6.22026e-07
0.00840155
1.34165e-06
0.0084019
3.70143e-06
0.00840997
7.48488e-06
0.00840903
2.34426e-05
0.00846592
4.65698e-05
0.00846815
0.0001633
0.00888582
0.000394059
0.00944968
0.0016371
0.0120602
0.00496163
0.012489
0.0093276
0.0125977
0.00990816
0.0125163
0.0098721
0.0120644
0.00935747
0.00864151
0.011825
0.00840003
2.23664e-11
0.00840003
7.49006e-11
0.00840003
3.93077e-10
0.00840003
7.5418e-10
0.00840003
2.72346e-09
0.00840003
4.78867e-09
0.00840004
1.60371e-08
0.00840005
2.77037e-08
0.00840007
9.12643e-08
0.00840015
1.56665e-07
0.00840025
5.16982e-07
0.0084007
8.76765e-07
0.00840139
2.96222e-06
0.00840395
4.84738e-06
0.00840936
1.77844e-05
0.00842825
2.70374e-05
0.00847418
0.000116158
0.00865749
0.000207804
0.00941253
0.000876627
0.0117105
0.0026465
0.0129238
0.00809823
0.0129572
0.00987479
0.0128299
0.0100006
0.0124221
0.00976664
0.00890799
0.0121559
0.00840003
7.86862e-12
0.00840003
7.9664e-11
0.00840003
1.93477e-10
0.00840003
7.21311e-10
0.00840003
1.39238e-09
0.00840003
4.48672e-09
0.00840004
8.29021e-09
0.00840004
2.58521e-08
0.00840008
4.73256e-08
0.00840009
1.46615e-07
0.00840034
2.67399e-07
0.00840037
8.30804e-07
0.00840181
1.50674e-06
0.00840179
4.77102e-06
0.00841096
8.51954e-06
0.00840878
2.87426e-05
0.00847344
5.08177e-05
0.00848773
0.000191216
0.00892494
0.000435725
0.00991455
0.00164823
0.0124738
0.00550183
0.0129779
0.00936392
0.0131277
0.00985068
0.0130102
0.00988566
0.00934251
0.0125786
0.00840003
9.46943e-12
0.00840003
3.6935e-11
0.00840003
1.78632e-10
0.00840003
3.65435e-10
0.00840003
1.24606e-09
0.00840003
2.31562e-09
0.00840003
7.34933e-09
0.00840005
1.34083e-08
0.00840005
4.18349e-08
0.00840012
7.60416e-08
0.00840015
2.3666e-07
0.00840054
4.29236e-07
0.00840068
1.3434e-06
0.00840302
2.41629e-06
0.0084036
7.80077e-06
0.00841861
1.36436e-05
0.00842106
4.76234e-05
0.00852744
8.42418e-05
0.00862912
0.000331261
0.00950203
0.000770353
0.0122627
0.0027294
0.0132909
0.00831342
0.01333
0.00980717
0.0132906
0.00992271
0.00973707
0.0128967
0.00840003
4.39527e-12
0.00840003
3.12054e-11
0.00840003
9.72039e-11
0.00840003
2.90942e-10
0.00840003
6.90831e-10
0.00840003
1.81315e-09
0.00840003
4.07955e-09
0.00840004
1.03851e-08
0.00840006
2.30973e-08
0.00840007
5.8311e-08
0.00840018
1.29312e-07
0.00840028
3.25981e-07
0.00840089
7.21761e-07
0.00840142
1.84765e-06
0.0084052
3.98741e-06
0.00840752
1.10937e-05
0.00843278
2.21783e-05
0.00844352
7.2327e-05
0.00862878
0.000144429
0.00882045
0.000574889
0.0100233
0.00151713
0.0128205
0.0054789
0.0133565
0.00926211
0.0135029
0.00977195
0.00982823
0.013409
0.00840003
1.82345e-12
0.00840003
2.50813e-11
0.00840003
5.7322e-11
0.00840003
2.22761e-10
0.00840003
4.15448e-10
0.00840003
1.37319e-09
0.00840003
2.46661e-09
0.00840004
7.85123e-09
0.00840004
1.40028e-08
0.00840006
4.41563e-08
0.00840011
7.85822e-08
0.00840018
2.47762e-07
0.00840046
4.39125e-07
0.00840088
1.39734e-06
0.00840241
2.43295e-06
0.00840529
8.0801e-06
0.00841397
1.33749e-05
0.00843651
4.90321e-05
0.0084981
8.21235e-05
0.00874567
0.000324424
0.00948594
0.00077185
0.012308
0.0026465
0.013572
0.00797611
0.0136623
0.00967784
0.00979541
0.01369
0.00840003
2.14353e-12
0.00840003
1.23748e-11
0.00840003
4.56529e-11
0.00840003
1.17972e-10
0.00840003
3.21424e-10
0.00840003
7.36528e-10
0.00840003
1.88516e-09
0.00840004
4.2114e-09
0.00840004
1.061e-08
0.00840006
2.35797e-08
0.00840008
5.91045e-08
0.00840019
1.31196e-07
0.0084003
3.28442e-07
0.00840096
7.28548e-07
0.0084015
1.84671e-06
0.00840553
4.01062e-06
0.00840773
1.09473e-05
0.00843443
2.21359e-05
0.00844471
7.05747e-05
0.00862544
0.000142424
0.00884904
0.000543322
0.0100602
0.00142765
0.0129629
0.00503358
0.0136895
0.00894107
0.00960156
0.0138808
0.00840003
1.89853e-12
0.00840003
6.97131e-12
0.00840003
3.40649e-11
0.00840003
6.94439e-11
0.00840003
2.35488e-10
0.00840003
4.37571e-10
0.00840003
1.37531e-09
0.00840003
2.50817e-09
0.00840004
7.73808e-09
0.00840004
1.40559e-08
0.00840006
4.31662e-08
0.00840011
7.82523e-08
0.0084002
2.40492e-07
0.00840048
4.34342e-07
0.00840096
1.34561e-06
0.00840254
2.40268e-06
0.0084057
7.654e-06
0.00841425
1.33848e-05
0.00843864
4.55143e-05
0.00849736
8.23051e-05
0.00873919
0.000298504
0.00942904
0.000732458
0.0120314
0.00241922
0.013693
0.00725582
0.00945374
0.0138356
0.00840003
6.35021e-13
0.00840003
6.34171e-12
0.00840003
1.58992e-11
0.00840003
5.73918e-11
0.00840003
1.14085e-10
0.00840003
3.54562e-10
0.00840003
6.73894e-10
0.00840003
2.02127e-09
0.00840004
3.80806e-09
0.00840004
1.13127e-08
0.00840006
2.12925e-08
0.00840007
6.30543e-08
0.00840019
1.18704e-07
0.00840027
3.51453e-07
0.00840095
6.61118e-07
0.00840134
1.96874e-06
0.00840528
3.67357e-06
0.00840702
1.13753e-05
0.00843227
2.02345e-05
0.00844174
7.12252e-05
0.00861328
0.000126438
0.00883329
0.00050685
0.00993452
0.00130895
0.0130517
0.00409353
0.00851304
0.0139773
0.00840003
5.36717e-13
0.00840003
3.18344e-12
0.00840003
1.16887e-11
0.00840003
3.02185e-11
0.00840003
8.22842e-11
0.00840003
1.88348e-10
0.00840003
4.823e-10
0.00840003
1.07487e-09
0.00840003
2.71176e-09
0.00840004
6.00604e-09
0.00840004
1.50915e-08
0.00840007
3.33693e-08
0.00840011
8.37457e-08
0.00840027
1.8498e-07
0.00840045
4.64498e-07
0.00840138
1.02539e-06
0.0084024
2.59365e-06
0.008408
5.69911e-06
0.0084129
1.49628e-05
0.00845132
3.2336e-05
0.00848214
9.38304e-05
0.00877123
0.000214678
0.00934258
0.000731277
0.0113816
0.00203654
0.00608776
0.0137717
0.00840003
3.6686e-13
0.00840003
1.99075e-12
0.00840003
7.35643e-12
0.00840003
1.89955e-11
0.00840003
5.15006e-11
0.00840003
1.18323e-10
0.00840003
3.0086e-10
0.00840003
6.73382e-10
0.00840003
1.68608e-09
0.00840003
3.7501e-09
0.00840004
9.3514e-09
0.00840005
2.0762e-08
0.00840008
5.17016e-08
0.00840015
1.14659e-07
0.00840032
2.85488e-07
0.00840071
6.32021e-07
0.00840167
1.57898e-06
0.00840384
3.48235e-06
0.00840967
8.86812e-06
0.00842238
1.9321e-05
0.00846197
5.27663e-05
0.00855927
0.000115896
0.0089164
0.000367963
0.00992521
0.00101878
0.00321957
0.0127456
0.00840003
2.78833e-13
0.00840003
1.05554e-12
0.00840003
4.99891e-12
0.00840003
1.05144e-11
0.00840003
3.45206e-11
0.00840003
6.60413e-11
0.00840003
2.00598e-10
0.00840003
3.76484e-10
0.00840003
1.12102e-09
0.00840003
2.09687e-09
0.00840004
6.20621e-09
0.00840004
1.16073e-08
0.00840006
3.42789e-08
0.00840011
6.40853e-08
0.0084002
1.89292e-07
0.00840047
3.52967e-07
0.00840098
1.04703e-06
0.00840248
1.94089e-06
0.00840536
5.84712e-06
0.00841367
1.07184e-05
0.00843226
3.34395e-05
0.00848264
6.38444e-05
0.00864028
0.000206193
0.00914846
0.000509843
0.00166354
0.0106911
0.00840003
1.11674e-13
0.00840003
7.90684e-13
0.00840003
2.47604e-12
0.00840003
7.36202e-12
0.00840003
1.74977e-11
0.00840003
4.55295e-11
0.00840003
1.02233e-10
0.00840003
2.57824e-10
0.00840003
5.71296e-10
0.00840003
1.42919e-09
0.00840003
3.15669e-09
0.00840004
7.87868e-09
0.00840005
1.73844e-08
0.00840007
4.33637e-08
0.00840017
9.56019e-08
0.00840027
2.38608e-07
0.00840079
5.25536e-07
0.00840137
1.31622e-06
0.00840428
2.89319e-06
0.00840747
7.32909e-06
0.00842447
1.62103e-05
0.00844529
4.20219e-05
0.00855251
9.78681e-05
0.0087839
0.000274723
0.00076611
0.00967266
0.00840003
4.74147e-14
0.00840003
5.36973e-13
0.00840003
1.3355e-12
0.00840003
4.79989e-12
0.00840003
9.57114e-12
0.00840003
2.93498e-11
0.00840003
5.60461e-11
0.00840003
1.65374e-10
0.00840003
3.12886e-10
0.00840003
9.13346e-10
0.00840003
1.72507e-09
0.00840004
5.01613e-09
0.00840004
9.47146e-09
0.00840006
2.74938e-08
0.0084001
5.18721e-08
0.00840018
1.50617e-07
0.00840042
2.83487e-07
0.00840088
8.26182e-07
0.00840218
1.54803e-06
0.0084048
4.56505e-06
0.00841235
8.4901e-06
0.00842866
2.56971e-05
0.00847151
4.92687e-05
0.00859689
0.000153068
0.000361689
0.00896572
0.00840003
5.10586e-14
0.00840003
2.25272e-13
0.00840003
9.92676e-13
0.00840003
2.19639e-12
0.00840003
6.88435e-12
0.00840003
1.36997e-11
0.00840003
3.99214e-11
0.00840003
7.76706e-11
0.00840003
2.2213e-10
0.00840003
4.30095e-10
0.00840003
1.22335e-09
0.00840003
2.36686e-09
0.00840004
6.71906e-09
0.00840005
1.29979e-08
0.00840006
3.68777e-08
0.00840014
7.12953e-08
0.00840022
2.02496e-07
0.00840064
3.90932e-07
0.00840104
1.11523e-06
0.00840341
2.14826e-06
0.00840549
6.19324e-06
0.00841899
1.20031e-05
0.0084318
3.52092e-05
0.00851263
7.15103e-05
0.000218795
0.00864975
0.00840003
2.20775e-14
0.00840003
1.55974e-13
0.00840003
4.87762e-13
0.00840003
1.45042e-12
0.00840003
3.44245e-12
0.00840003
8.94774e-12
0.00840003
2.00532e-11
0.00840003
5.04767e-11
0.00840003
1.11591e-10
0.00840003
2.78529e-10
0.00840003
6.13723e-10
0.00840003
1.52789e-09
0.00840004
3.36399e-09
0.00840004
8.36572e-09
0.00840006
1.84136e-08
0.00840008
4.57721e-08
0.00840018
1.00706e-07
0.00840031
2.50464e-07
0.00840087
5.50965e-07
0.0084016
1.37474e-06
0.00840472
3.02041e-06
0.00840886
7.62585e-06
0.00842703
1.68238e-05
0.00845379
4.35185e-05
0.000100315
0.00857123
0.00840003
9.26735e-15
0.00840003
1.01322e-13
0.00840003
2.5702e-13
0.00840003
9.06441e-13
0.00840003
1.83901e-12
0.00840003
5.52977e-12
0.00840003
1.07306e-11
0.00840003
3.10195e-11
0.00840003
5.96191e-11
0.00840003
1.70412e-10
0.00840003
3.26991e-10
0.00840003
9.30726e-10
0.00840003
1.78631e-09
0.00840004
5.07227e-09
0.00840004
9.7396e-09
0.00840006
2.76095e-08
0.00840011
5.30049e-08
0.0084002
1.50175e-07
0.00840046
2.87807e-07
0.00840099
8.17008e-07
0.00840242
1.55974e-06
0.00840543
4.46879e-06
0.00841356
8.47711e-06
0.00843157
2.47932e-05
4.86265e-05
0.00848167
0.00840003
9.04059e-15
0.00840003
4.22246e-14
0.00840003
1.81335e-13
0.00840003
4.09474e-13
0.00840003
1.25546e-12
0.00840003
2.54146e-12
0.00840003
7.24685e-12
0.00840003
1.43235e-11
0.00840003
4.00672e-11
0.00840003
7.87666e-11
0.00840003
2.19057e-10
0.00840003
4.30198e-10
0.00840003
1.1937e-09
0.00840003
2.3442e-09
0.00840004
6.49683e-09
0.00840005
1.27576e-08
0.00840007
3.53412e-08
0.00840015
6.93496e-08
0.00840024
1.9227e-07
0.00840067
3.76683e-07
0.00840114
1.04814e-06
0.00840352
2.04786e-06
0.00840605
5.75266e-06
0.0084193
1.12823e-05
3.21684e-05
0.0084347
0.00840003
3.28985e-15
0.00840003
3.04077e-14
0.00840003
8.03674e-14
0.00840003
2.74755e-13
0.00840003
5.72824e-13
0.00840003
1.67966e-12
0.00840003
3.33305e-12
0.00840003
9.41008e-12
0.00840003
1.84682e-11
0.00840003
5.15787e-11
0.00840003
1.01009e-10
0.00840003
2.81023e-10
0.00840003
5.5039e-10
0.00840003
1.52821e-09
0.00840004
2.99501e-09
0.00840004
8.30397e-09
0.00840006
1.62851e-08
0.00840008
4.51102e-08
0.00840018
8.84941e-08
0.00840031
2.45198e-07
0.00840086
4.81085e-07
0.00840153
1.33715e-06
0.00840461
2.62139e-06
0.00840831
7.36431e-06
1.45227e-05
0.00842562
0.00840003
2.5176e-15
0.00840003
1.36071e-14
0.00840003
5.10668e-14
0.00840003
1.31746e-13
0.00840003
3.55263e-13
0.00840003
8.13277e-13
0.00840003
2.05241e-12
0.00840003
4.56609e-12
0.00840003
1.13234e-11
0.00840003
2.5007e-11
0.00840003
6.17049e-11
0.00840003
1.36013e-10
0.00840003
3.34975e-10
0.00840003
7.38039e-10
0.00840003
1.81563e-09
0.00840004
4.00014e-09
0.00840004
9.83119e-09
0.00840007
2.16603e-08
0.0084001
5.31883e-08
0.00840023
1.1718e-07
0.00840041
2.87593e-07
0.0084011
6.33734e-07
0.00840211
1.55754e-06
0.00840598
3.4299e-06
8.53229e-06
0.00841171
0.00840003
1.53558e-15
0.00840003
6.96394e-15
0.00840003
3.00721e-14
0.00840003
6.69786e-14
0.00840003
2.08362e-13
0.00840003
4.16166e-13
0.00840003
1.19568e-12
0.00840003
2.33707e-12
0.00840003
6.56828e-12
0.00840003
1.27796e-11
0.00840003
3.56519e-11
0.00840003
6.93386e-11
0.00840003
1.92773e-10
0.00840003
3.75172e-10
0.00840003
1.04051e-09
0.00840003
2.02687e-09
0.00840004
5.60942e-09
0.00840005
1.0935e-08
0.00840007
3.02102e-08
0.00840013
5.8891e-08
0.00840025
1.62596e-07
0.00840056
3.16466e-07
0.00840121
8.75377e-07
0.0084029
1.6973e-06
4.73548e-06
0.00840656
0.00840003
6.04443e-16
0.00840003
4.35494e-15
0.00840003
1.39992e-14
0.00840003
4.09302e-14
0.00840003
9.73999e-14
0.00840003
2.49907e-13
0.00840003
5.63423e-13
0.00840003
1.39358e-12
0.00840003
3.09555e-12
0.00840003
7.58653e-12
0.00840003
1.67858e-11
0.00840003
4.10156e-11
0.00840003
9.06397e-11
0.00840003
2.21187e-10
0.00840003
4.88546e-10
0.00840003
1.19125e-09
0.00840003
2.63003e-09
0.00840004
6.40974e-09
0.00840005
1.41418e-08
0.00840008
3.44664e-08
0.00840016
7.5951e-08
0.00840029
1.85325e-07
0.00840075
4.07694e-07
0.0084014
9.98826e-07
2.19213e-06
0.0084039
0.00840003
4.67508e-16
0.00840003
2.26701e-15
0.00840003
7.23702e-15
0.00840003
2.1432e-14
0.00840003
5.13245e-14
0.00840003
1.32098e-13
0.00840003
2.95851e-13
0.00840003
7.35571e-13
0.00840003
1.62499e-12
0.00840003
3.99365e-12
0.00840003
8.78498e-12
0.00840003
2.15181e-11
0.00840003
4.72676e-11
0.00840003
1.15617e-10
0.00840003
2.5382e-10
0.00840003
6.2026e-10
0.00840003
1.36119e-09
0.00840004
3.32338e-09
0.00840004
7.29082e-09
0.00840006
1.77846e-08
0.00840009
3.89975e-08
0.00840018
9.50568e-08
0.00840037
2.08264e-07
0.00840084
5.07787e-07
1.11093e-06
0.0084019
0.00840003
5.20417e-18
0.00840003
1.17528e-15
0.00840003
3.13893e-15
0.00840003
1.16247e-14
0.00840003
2.35091e-14
0.00840003
7.11129e-14
0.00840003
1.36642e-13
0.00840003
3.94469e-13
0.00840003
7.4666e-13
0.00840003
2.13073e-12
0.00840003
4.01485e-12
0.00840003
1.14173e-11
0.00840003
2.14588e-11
0.00840003
6.09832e-11
0.00840003
1.14324e-10
0.00840003
3.24979e-10
0.00840003
6.0736e-10
0.00840003
1.72782e-09
0.00840004
3.21655e-09
0.00840005
9.16198e-09
0.00840007
1.69685e-08
0.00840011
4.84334e-08
0.00840023
8.90595e-08
0.00840046
2.55201e-07
4.6451e-07
0.00840109
0.00840003
1.34062e-16
0.00840003
3.90963e-16
0.00840003
2.0946e-15
0.00840003
3.54634e-15
0.00840003
1.27791e-14
0.00840003
2.20628e-14
0.00840003
7.03005e-14
0.00840003
1.21337e-13
0.00840003
3.78403e-13
0.00840003
6.49476e-13
0.00840003
2.02169e-12
0.00840003
3.44239e-12
0.00840003
1.07426e-11
0.00840003
1.81204e-11
0.00840003
5.68643e-11
0.00840003
9.48463e-11
0.00840003
2.99937e-10
0.00840003
4.9339e-10
0.00840003
1.57593e-09
0.00840004
2.5482e-09
0.00840005
8.24452e-09
0.00840008
1.30473e-08
0.00840012
4.29378e-08
0.0084003
6.60962e-08
2.22831e-07
0.0084005
0.00840003
0.00840003
0.00840003
0.00840003
0.00840003
0.00840003
0.00840003
0.00840003
0.00840003
0.00840003
0.00840003
0.00840003
0.00840003
0.00840003
0.00840003
0.00840003
0.00840003
0.00840003
0.00840003
0.00840003
0.00840004
0.00840005
0.00840009
0.00840014
0.00840035
0.00460566
0.00413155
0.00298601
0.00161932
0.00230131
0.000684266
0.00202726
0.000273489
0.00200229
2.43265e-05
0.00215555
-0.000154015
0.00235138
-0.000196722
0.0024644
-0.00011401
0.00250295
-3.9578e-05
0.00249713
4.78885e-06
0.00247431
2.17799e-05
0.00246307
1.01979e-05
0.0024633
-1.21552e-06
0.00247326
-1.10057e-05
0.00248469
-1.24958e-05
0.00249299
-9.34472e-06
0.00249747
-5.60348e-06
0.00249922
-2.68328e-06
0.00249973
-1.38653e-06
0.00249978
-8.7254e-07
0.00250049
-1.55326e-06
0.0025021
-2.3532e-06
0.00250443
-3.10872e-06
0.00250693
-3.24369e-06
0.00250916
-3.02045e-06
0.00251108
-2.65888e-06
0.00251159
-1.97076e-06
0.0025104
-4.83671e-07
0.0025066
1.25724e-06
0.00249845
4.40543e-06
0.0024827
9.32246e-06
0.0024514
1.85136e-05
0.00238433
3.9596e-05
0.00223524
8.95349e-05
0.00187586
0.000225529
0.000899816
0.000657978
-0.000250118
0.00105682
-0.000948388
0.000700125
-0.00134204
0.000405495
-0.00154183
0.000205131
-0.00151232
-2.61059e-05
-0.00132288
-0.000210741
-0.00101737
-0.000337723
-0.000647228
-0.000401883
-0.000240907
-0.000429995
0.000172924
-0.000430881
0.000549883
-0.000388878
0.000894091
-0.000353169
0.00121222
-0.000326768
0.00150834
-0.000304114
0.00178373
-0.000282806
0.00203774
-0.000259918
0.00227462
-0.000240867
0.00250224
-0.000227775
0.00272351
-0.000221074
0.00293201
-0.000208354
0.00312913