/*--------------------------------*- C++ -*----------------------------------*\
| =========                 |                                                 |
| \\      /  F ield         | OpenFOAM: The Open Source CFD Toolbox           |
|  \\    /   O peration     | Version:  2412                                  |
|   \\  /    A nd           | Website:  www.openfoam.com                      |
|    \\/     M anipulation  |                                                 |
\*---------------------------------------------------------------------------*/
FoamFile
{
    version     2.0;
    format      ascii;
    arch        "LSB;label=32;scalar=64";
    class       volScalarField;
    location    "2.5";
    object      T;
}
// * * * * * * * * * * * * * * * * * * * * * * * * * * * * * * * * * * * * * //

dimensions      [0 0 0 1 0 0 0];

internalField   nonuniform List<scalar> 
5250
(
1.00001
1.00001
1.00005
1.00009
1.00029
1.00052
1.00161
1.00314
1.00857
1.02058
1.04867
1.14393
1.33111
1.95644
2.62944
2.75581
2.74937
2.73968
2.75711
2.76821
2.78204
2.79113
2.79983
2.79944
2.80441
1.00001
1.00001
1.00005
1.00009
1.00028
1.00051
1.0016
1.00309
1.00849
1.02018
1.04797
1.14122
1.32476
1.94105
2.61806
2.75339
2.74796
2.73785
2.75534
2.76645
2.78026
2.7895
2.79768
2.79672
2.80123
1.00001
1.00001
1.00005
1.00009
1.00028
1.0005
1.00157
1.003
1.00837
1.01935
1.04674
1.13588
1.31286
1.88972
2.6045
2.75085
2.74441
2.73367
2.75097
2.76272
2.77653
2.78626
2.79482
2.79371
2.79763
1.00001
1.00001
1.00005
1.00008
1.00027
1.00049
1.00153
1.00289
1.00816
1.01848
1.0452
1.12949
1.299
1.82727
2.6072
2.7443
2.73745
2.72635
2.74429
2.75471
2.76938
2.77819
2.78848
2.78875
2.793
1.00001
1.00001
1.00004
1.00008
1.00026
1.00047
1.00147
1.00276
1.00792
1.01745
1.0436
1.12169
1.28408
1.76075
2.59935
2.73695
2.72716
2.71653
2.73402
2.74471
2.76151
2.77222
2.77941
2.77885
2.78229
1.00001
1.00001
1.00004
1.00008
1.00025
1.00045
1.00141
1.00262
1.00763
1.01642
1.04168
1.11434
1.26569
1.7293
2.58877
2.72695
2.71824
2.71026
2.7248
2.73324
2.74506
2.75755
2.76934
2.76737
2.77196
1.00001
1.00001
1.00004
1.00007
1.00023
1.00042
1.00134
1.00247
1.00737
1.01524
1.03994
1.10509
1.24853
1.69092
2.56457
2.716
2.70024
2.70074
2.71457
2.72385
2.73581
2.74209
2.75125
2.75189
2.75045
1
1.00001
1.00004
1.00007
1.00022
1.00039
1.00125
1.00228
1.0069
1.01401
1.03734
1.09617
1.2281
1.64372
2.51462
2.69542
2.69455
2.69249
2.69545
2.7051
2.71938
2.72481
2.72935
2.72489
2.72566
1
1.00001
1.00003
1.00006
1.0002
1.00036
1.00113
1.00207
1.00632
1.01267
1.03416
1.08714
1.20516
1.59222
2.4458
2.66152
2.68861
2.68544
2.68534
2.6917
2.69499
2.70197
2.70291
2.69479
2.66947
1
1.00001
1.00003
1.00005
1.00017
1.00031
1.00096
1.00183
1.00521
1.01145
1.02885
1.08013
1.17684
1.54655
2.36902
2.62284
2.67721
2.6682
2.66647
2.67533
2.67508
2.67218
2.6625
2.64074
2.5888
1
1.00001
1.00002
1.00005
1.0001
1.00029
1.00064
1.00159
1.00418
1.00939
1.02732
1.05736
1.18678
1.42313
2.15558
2.58885
2.67628
2.66415
2.64548
2.64671
2.64919
2.64245
2.61984
2.56454
2.37031
1
1.00001
1.00002
1.00004
1.00013
1.00024
1.00072
1.0014
1.00392
1.00871
1.0217
1.05967
1.13185
1.40247
2.06185
2.49963
2.65995
2.65175
2.63459
2.62382
2.6169
2.60351
2.57142
2.50449
2.30236
1
1.00001
1.00002
1.00004
1.00011
1.0002
1.00065
1.00118
1.0037
1.00703
1.02024
1.04507
1.11424
1.30284
1.88574
2.42246
2.62264
2.61814
2.6145
2.60475
2.59294
2.56262
2.52365
2.46287
2.30364
1
1
1.00002
1.00003
1.0001
1.00017
1.00055
1.00099
1.0031
1.00584
1.01696
1.03717
1.09365
1.24961
1.69942
2.36935
2.59593
2.58118
2.58268
2.57841
2.56674
2.53965
2.47881
2.42594
2.30889
1
1
1.00001
1.00002
1.00008
1.00014
1.00043
1.00079
1.00235
1.00479
1.01253
1.03194
1.07287
1.21923
1.52199
2.26028
2.55276
2.56713
2.55868
2.54813
2.53751
2.51569
2.4644
2.40058
2.3103
1
1
1.00001
1.00002
1.00006
1.00011
1.00035
1.00064
1.00195
1.00386
1.01034
1.02541
1.05892
1.17626
1.40417
2.06546
2.47746
2.55488
2.54049
2.52989
2.50575
2.48484
2.44088
2.38842
2.3095
1
1
1.00001
1.00002
1.00005
1.00009
1.00028
1.00051
1.00159
1.00302
1.00844
1.01926
1.04655
1.13377
1.30473
1.88378
2.34365
2.52274
2.52128
2.5127
2.48984
2.46122
2.41701
2.36322
2.30078
1
1
1.00001
1.00001
1.00004
1.00007
1.00022
1.0004
1.00127
1.0023
1.00701
1.01398
1.03732
1.09297
1.22442
1.59006
2.26973
2.45754
2.47786
2.47647
2.46568
2.44501
2.40769
2.35464
2.29611
1
1
1
1.00001
1.00003
1.00005
1.00016
1.0003
1.00092
1.00173
1.00494
1.01067
1.02682
1.07311
1.15999
1.48746
2.1665
2.40795
2.45012
2.44344
2.42982
2.40854
2.38421
2.34079
2.2864
1
1
1
1.00001
1.00002
1.00005
1.00009
1.00027
1.00052
1.00145
1.00321
1.00787
1.02112
1.04686
1.1406
1.3154
1.89281
2.30771
2.42939
2.42651
2.41517
2.39107
2.36524
2.33044
2.28211
1
1
1
1.00001
1.00001
1.00004
1.00007
1.00022
1.00039
1.00123
1.00227
1.00683
1.01371
1.03645
1.08951
1.22086
1.55956
2.20318
2.37593
2.38779
2.38273
2.36381
2.33366
2.30689
2.27321
1
1
1
1
1.00001
1.00002
1.00006
1.00012
1.00035
1.00067
1.00192
1.00403
1.01032
1.02623
1.06006
1.17068
1.41747
1.97312
2.31631
2.37169
2.36686
2.3504
2.31748
2.28231
2.24975
1
1
1
1
1.00001
1.00002
1.00004
1.00011
1.00021
1.00063
1.00118
1.0035
1.00704
1.01888
1.04537
1.10815
1.29254
1.81043
2.16668
2.32437
2.33569
2.32897
2.31051
2.2753
2.241
1
1
1
1
1.00001
1.00001
1.00003
1.00006
1.00018
1.00033
1.00099
1.00192
1.00533
1.01175
1.02909
1.07857
1.1728
1.49517
2.0865
2.26708
2.29683
2.29239
2.28251
2.25955
2.22651
1
1
1
1
1
1.00001
1.00002
1.00005
1.0001
1.00029
1.00055
1.00158
1.00325
1.00834
1.02078
1.04769
1.13716
1.30564
1.82732
2.17771
2.2752
2.27421
2.26588
2.24852
2.21832
1
1
1
1
1
1.00001
1.00001
1.00004
1.00007
1.00021
1.00037
1.00116
1.00213
1.00639
1.0126
1.03373
1.0801
1.19744
1.4916
2.04831
2.22051
2.23721
2.23445
2.22155
2.19966
1
1
1
1
1
1
1.00001
1.00002
1.00006
1.00011
1.00032
1.00059
1.00176
1.00343
1.00946
1.02107
1.05138
1.13516
1.33432
1.7862
2.13551
2.21826
2.21634
2.20672
2.1872
1
1
1
1
1
1
1.00001
1.00002
1.00003
1.00009
1.00016
1.00049
1.00093
1.00271
1.00538
1.01465
1.03229
1.08267
1.19624
1.58016
1.94655
2.16197
2.1876
2.18594
2.17238
1
1
1
1
1
1
1
1.00001
1.00002
1.00004
1.00013
1.00025
1.00074
1.00141
1.00392
1.00846
1.02077
1.0552
1.11817
1.35514
1.82781
2.07798
2.15559
2.16176
2.15521
1
1
1
1
1
1
1
1.00001
1.00002
1.00003
1.00009
1.00016
1.0005
1.00091
1.00273
1.00519
1.01471
1.03064
1.08123
1.18586
1.56083
1.90863
2.10603
2.12836
2.13054
1
1
1
1
1
1
1
1
1.00001
1.00002
1.00004
1.00013
1.00024
1.00071
1.00134
1.00376
1.00793
1.01978
1.05131
1.11168
1.3249
1.7724
2.02293
2.10379
2.10484
1
1
1
1
1
1
1
1
1
1.00001
1.00003
1.00008
1.00015
1.00046
1.00085
1.00253
1.00479
1.01366
1.02789
1.07531
1.16703
1.5117
1.8406
2.05112
2.08469
1
1
1
1
1
1
1
1
1
1.00001
1.00002
1.00004
1.00012
1.00022
1.00065
1.00121
1.00352
1.00702
1.01839
1.0441
1.10093
1.27381
1.69643
1.94016
2.04006
1
1
1
1
1
1
1
1
1
1.00001
1.00001
1.00003
1.00006
1.00017
1.00031
1.00092
1.00172
1.0049
1.01001
1.02558
1.06342
1.14181
1.38127
1.81909
1.98611
1
1
1
1
1
1
1
1
1
1
1.00001
1.00002
1.00003
1.0001
1.00018
1.00056
1.00102
1.00305
1.00574
1.01601
1.03446
1.08364
1.21048
1.55021
1.86944
1
1
1
1
1
1
1
1
1
1
1
1.00001
1.00002
1.00006
1.00011
1.00033
1.0006
1.00179
1.00335
1.00952
1.01933
1.05086
1.11458
1.31508
1.64832
1
1
1
1
1
1
1
1
1
1
1
1
1.00001
1.00003
1.00008
1.00015
1.00043
1.00081
1.00233
1.00455
1.01233
1.02619
1.06678
1.15292
1.43098
1
1
1
1
1
1
1
1
1
1
1
1
1.00001
1.00002
1.00005
1.00008
1.00025
1.00046
1.00137
1.00255
1.00733
1.01446
1.03868
1.08524
1.22327
1
1
1
1
1
1
1
1
1
1
1
1
1
1.00001
1.00002
1.00006
1.00011
1.00033
1.00062
1.00177
1.00345
1.00947
1.01953
1.05211
1.11215
1
1
1
1
1
1
1
1
1
1
1
1
1
1
1.00001
1.00003
1.00008
1.00015
1.00042
1.0008
1.00227
1.00444
1.0119
1.02539
1.06351
1
1
1
1
1
1
1
1
1
1
1
1
1
1
1.00001
1.00001
1.00004
1.00008
1.00024
1.00043
1.00128
1.00238
1.00671
1.01338
1.03491
1
1
1
1
1
1
1
1
1
1
1
1
1
1
1
1.00001
1.00002
1.00005
1.0001
1.00029
1.00056
1.00158
1.00307
1.00836
1.01724
1
1
1
1
1
1
1
1
1
1
1
1
1
1
1
1
1.00001
1.00002
1.00007
1.00013
1.00037
1.0007
1.00196
1.00384
1.01031
1
1
1
1
1
1
1
1
1
1
1
1
1
1
1
1
1.00001
1.00002
1.00003
1.00008
1.00016
1.00045
1.00085
1.0024
1.00466
1
1
1
1
1
1
1
1
1
1
1
1
1
1
1
1
1
1.00001
1.00002
1.00005
1.00008
1.00024
1.00045
1.00129
1.00241
1
1
1
1
1
1
1
1
1
1
1
1
1
1
1
1
1
1
1.00001
1.00002
1.00005
1.0001
1.00029
1.00054
1.00154
1
1
1
1
1
1
1
1
1
1
1
1
1
1
1
1
1
1
1.00001
1.00001
1.00003
1.00005
1.00016
1.00029
1.00084
1
1
1
1
1
1
1
1
1
1
1
1
1
1
1
1
1
1
1
1.00001
1.00002
1.00003
1.00009
1.00016
1.00046
1
1
1
1
1
1
1
1
1
1
1
1
1
1
1
1
1
1
1
1
1.00001
1.00002
1.00004
1.00012
1.00023
1
1
1
1
1
1
1
1
1
1
1
1
1
1
1
1
1
1
1
1
1.00001
1.00001
1.00004
1.00008
1.00025
2.34253
2.25005
2.25176
2.30011
2.3901
2.45554
2.50821
2.53553
2.53829
2.53574
2.53579
2.53692
2.54038
2.54307
2.54691
2.54843
2.54894
2.54841
2.54808
2.54771
2.54702
2.54645
2.54552
2.54433
2.54286
2.54153
2.54055
2.54091
2.54202
2.54499
2.55282
2.5717
2.61555
2.71218
2.9121
3.16548
3.39093
3.41229
3.46004
3.47521
3.47477
3.47853
3.47191
3.45505
3.43431
3.41756
3.39749
3.38187
3.3612
3.34255
3.31883
3.30178
3.27901
3.26183
3.23544
3.21676
3.19184
3.17153
3.14655
3.12696
3.10315
3.08346
3.05912
3.03827
3.01319
2.99186
2.96711
2.94626
2.92275
2.90317
2.88148
2.86363
2.84386
2.82793
2.80976
2.79577
2.77898
2.76693
2.75149
2.74134
2.72724
2.71873
2.70586
2.69867
2.68684
2.68069
2.66961
2.6641
2.65343
2.64819
2.63763
2.63225
2.62132
2.61575
2.60448
2.59899
2.58798
2.58363
2.57549
2.57709
2.19814
2.12696
2.08747
2.06913
2.04121
2.0145
2.00155
2.00321
2.01364
2.03111
2.04718
2.05402
2.05349
2.05301
2.05272
2.0528
2.05348
2.05407
2.05532
2.05505
2.05488
2.05451
2.05373
2.05265
2.05165
2.05085
2.05022
2.05071
2.05178
2.05452
2.06123
2.07633
2.1115
2.19022
2.37255
2.6618
3.06925
3.19558
3.32023
3.39613
3.41384
3.38922
3.32861
3.2571
3.18666
3.13093
3.07638
3.03865
2.99629
2.9641
2.9296
2.9015
2.87191
2.84633
2.81759
2.79231
2.76419
2.74003
2.71413
2.69227
2.66914
2.64974
2.62865
2.61048
2.58975
2.572
2.55148
2.53481
2.51484
2.49946
2.47998
2.46583
2.44703
2.43418
2.4164
2.40464
2.38792
2.37691
2.36112
2.35085
2.3359
2.32647
2.31243
2.30377
2.29055
2.28259
2.27002
2.2626
2.25069
2.24388
2.23265
2.22654
2.21612
2.21061
2.20095
2.19598
2.18723
2.18359
2.17753
2.18041
2.19746
2.11749
2.0458
1.97376
1.90652
1.8561
1.82976
1.82833
1.83188
1.8423
1.85762
1.86953
1.87711
1.87952
1.88027
1.87977
1.87953
1.87949
1.8795
1.87951
1.87952
1.87948
1.87929
1.87884
1.87809
1.8772
1.87641
1.87673
1.87732
1.87892
1.88262
1.89218
1.91394
1.96624
2.07818
2.33366
2.66251
2.8109
2.93072
3.00221
3.02899
3.00837
2.9515
2.89115
2.83786
2.80485
2.77358
2.74788
2.71762
2.69457
2.66974
2.65184
2.63136
2.61479
2.5938
2.57575
2.55396
2.53708
2.51745
2.5028
2.48461
2.47118
2.45373
2.4411
2.42342
2.41038
2.39208
2.37939
2.36221
2.35127
2.33596
2.32626
2.31185
2.30236
2.28833
2.27902
2.26559
2.25664
2.24364
2.23478
2.22149
2.21258
2.19888
2.18999
2.17643
2.16789
2.15488
2.14696
2.1344
2.12696
2.1148
2.10779
2.09603
2.0896
2.07827
2.0726
2.0619
2.05756
2.04908
2.04964
2.19882
2.10977
2.031
1.95894
1.89499
1.84248
1.80058
1.77243
1.75603
1.75303
1.75416
1.75987
1.76764
1.77605
1.78069
1.78276
1.78227
1.78182
1.78116
1.78027
1.77982
1.77956
1.77939
1.77907
1.7784
1.77731
1.77661
1.77565
1.77603
1.77666
1.779
1.78493
1.79778
1.83112
1.89742
2.09466
2.28102
2.59506
2.73868
2.78352
2.79176
2.76953
2.72466
2.6805
2.64552
2.62027
2.59958
2.5848
2.56669
2.55186
2.53091
2.51482
2.49571
2.4826
2.46529
2.45205
2.43394
2.42079
2.40395
2.39219
2.3759
2.36454
2.34911
2.33944
2.32553
2.31698
2.30359
2.29516
2.2818
2.27312
2.25972
2.25071
2.2374
2.22824
2.21526
2.20623
2.19365
2.18508
2.17284
2.16478
2.15251
2.14466
2.13226
2.12455
2.11207
2.10449
2.09212
2.08481
2.07267
2.06574
2.05379
2.04725
2.03553
2.02941
2.01794
2.01239
2.00143
1.99692
1.98785
1.98751
2.20561
2.11413
2.03569
1.96594
1.90226
1.84728
1.79804
1.75786
1.72614
1.70614
1.69757
1.69776
1.6992
1.70373
1.7104
1.71598
1.72024
1.72201
1.72266
1.72219
1.7218
1.72108
1.72031
1.71985
1.71945
1.71915
1.71879
1.71805
1.7182
1.71883
1.71993
1.72359
1.73219
1.75182
1.7979
1.90103
2.12476
2.43044
2.60816
2.6854
2.68813
2.65963
2.59848
2.54613
2.5099
2.48556
2.45983
2.43799
2.42687
2.4196
2.40844
2.39766
2.38238
2.37194
2.35885
2.35143
2.33936
2.33095
2.31781
2.30925
2.29635
2.28813
2.27566
2.26799
2.25558
2.24749
2.23443
2.2259
2.21292
2.20477
2.19255
2.18506
2.17354
2.16638
2.15513
2.14789
2.1366
2.12928
2.11784
2.11077
2.09934
2.09254
2.08105
2.0744
2.06289
2.0564
2.04496
2.03868
2.02733
2.02128
2.01004
2.00418
1.99312
1.98744
1.9767
1.97118
1.96101
1.95612
1.94753
1.9465
2.22232
2.13466
2.05336
1.98204
1.91795
1.86079
1.81044
1.76709
1.73061
1.70126
1.67819
1.66398
1.65734
1.65715
1.65809
1.66128
1.66641
1.67105
1.67487
1.67641
1.67692
1.6765
1.67573
1.67493
1.6734
1.67252
1.67187
1.67099
1.67113
1.67146
1.67235
1.67501
1.68055
1.69544
1.72661
1.8017
1.95364
2.2776
2.53308
2.64222
2.63959
2.60596
2.52149
2.45223
2.4047
2.37143
2.35137
2.33552
2.32433
2.31593
2.31278
2.3101
2.30555
2.30175
2.29486
2.28922
2.27876
2.27144
2.26044
2.25355
2.24233
2.23535
2.22469
2.21835
2.20769
2.20076
2.18919
2.18145
2.1693
2.16139
2.14939
2.14187
2.13039
2.12343
2.11232
2.10555
2.09453
2.08795
2.07708
2.0709
2.06028
2.05444
2.0438
2.03797
2.02711
2.02124
2.01028
2.00449
1.9936
1.98785
1.97715
1.97127
1.96079
1.9547
1.94445
1.93833
1.92839
1.92282
1.9143
1.91245
2.22631
2.15004
2.07596
2.00693
1.94376
1.88636
1.83464
1.78854
1.74755
1.71219
1.68239
1.65864
1.64154
1.63109
1.62743
1.62763
1.62865
1.63138
1.63562
1.63907
1.64204
1.64315
1.64373
1.64355
1.64321
1.64252
1.64193
1.64104
1.64121
1.64145
1.64241
1.64518
1.64983
1.66358
1.68804
1.75519
1.86924
2.17044
2.39681
2.59006
2.56656
2.5282
2.45995
2.39454
2.33852
2.29922
2.27327
2.25963
2.25053
2.24563
2.24207
2.24269
2.24419
2.2435
2.24146
2.23867
2.23322
2.22911
2.22061
2.21451
2.20387
2.19723
2.18719
2.18073
2.16998
2.16278
2.15176
2.14473
2.13389
2.12703
2.11627
2.1096
2.09888
2.09224
2.08143
2.07481
2.06397
2.05751
2.04679
2.04068
2.03013
2.02428
2.01369
2.00789
1.99715
1.99142
1.98075
1.9752
1.96485
1.95939
1.94941
1.9438
1.93407
1.92828
1.91873
1.91299
1.90367
1.89844
1.89024
1.88857
2.22876
2.16033
2.09287
2.02869
1.96802
1.91218
1.86038
1.81376
1.77124
1.73388
1.70095
1.673
1.64946
1.63112
1.61815
1.61041
1.60768
1.60788
1.60876
1.61126
1.61442
1.61804
1.62055
1.62187
1.62177
1.62141
1.62091
1.61975
1.61963
1.61982
1.62078
1.62355
1.62935
1.64449
1.67355
1.74433
1.86511
2.0574
2.25754
2.42231
2.46944
2.44866
2.41893
2.3736
2.33056
2.28623
2.25043
2.22723
2.21193
2.20342
2.19839
2.19518
2.19345
2.19438
2.19644
2.19532
2.19285
2.19058
2.1859
2.18191
2.17322
2.16724
2.15772
2.15148
2.14135
2.1346
2.12428
2.11754
2.10713
2.10027
2.08959
2.08252
2.07158
2.06455
2.05362
2.04683
2.03609
2.02975
2.01939
2.01364
2.0036
1.99824
1.98819
1.98287
1.97259
1.96713
1.95668
1.95111
1.94082
1.93521
1.9253
1.91954
1.90994
1.90399
1.89448
1.88854
1.87918
1.87384
1.86557
1.86389
2.22798
2.16586
2.10412
2.04492
1.98832
1.93523
1.88558
1.83954
1.79744
1.75888
1.72443
1.69347
1.6667
1.64362
1.62451
1.60953
1.59957
1.59366
1.59183
1.59195
1.59278
1.59467
1.59756
1.59984
1.6018
1.60281
1.60316
1.6031
1.60315
1.6037
1.60544
1.60962
1.6203
1.64208
1.68983
1.79055
1.93513
2.06584
2.15216
2.25334
2.33643
2.37991
2.37207
2.35432
2.32711
2.28418
2.25029
2.2198
2.19443
2.178
2.16616
2.15933
2.15519
2.15254
2.15187
2.15275
2.15485
2.15402
2.15155
2.14938
2.14492
2.14065
2.1319
2.12586
2.11628
2.11034
2.10076
2.09454
2.08456
2.07795
2.06754
2.06077
2.05029
2.04364
2.03312
2.02655
2.01596
2.00956
1.99907
1.99305
1.98273
1.97701
1.9667
1.96108
1.95079
1.94529
1.93519
1.92978
1.9199
1.91438
1.90469
1.899
1.8895
1.88383
1.87444
1.86895
1.8597
1.85474
1.84645
1.84498
2.22729
2.17009
2.11214
2.05596
2.00236
1.95153
1.90406
1.85939
1.81817
1.77975
1.74476
1.71262
1.68389
1.65812
1.636
1.61701
1.60153
1.58935
1.5812
1.57651
1.57494
1.57506
1.57578
1.57755
1.58002
1.58258
1.58443
1.58568
1.58666
1.58852
1.59237
1.60114
1.61922
1.65874
1.74366
1.87512
2.00446
2.06616
2.09641
2.13207
2.18622
2.2384
2.27875
2.30006
2.28532
2.27085
2.24828
2.21667
2.19152
2.16932
2.14788
2.13448
2.12469
2.11989
2.11565
2.11369
2.11357
2.11432
2.11541
2.11461
2.11278
2.11086
2.10648
2.102
2.09324
2.08759
2.07792
2.07156
2.0614
2.05484
2.04473
2.03834
2.02825
2.02189
2.01158
2.0051
1.99445
1.98788
1.97713
1.97088
1.96051
1.95489
1.94495
1.93957
1.92958
1.924
1.91394
1.9084
1.89878
1.89356
1.88445
1.87944
1.87044
1.86542
1.85635
1.85136
1.8423
1.83775
1.82957
1.82829
2.22523
2.17453
2.12173
2.06895
2.01761
1.96878
1.92248
1.87913
1.83852
1.80071
1.76562
1.73313
1.7034
1.67615
1.6518
1.62994
1.61122
1.59521
1.58248
1.57256
1.56625
1.56264
1.56182
1.56202
1.56279
1.56444
1.56694
1.56993
1.57293
1.57735
1.58511
1.60178
1.63539
1.71115
1.83614
1.96999
2.0436
2.06016
2.06428
2.07259
2.08866
2.11606
2.1464
2.18626
2.21108
2.22581
2.21312
2.20251
2.1856
2.16076
2.14162
2.12473
2.10727
2.09667
2.08904
2.08493
2.08133
2.08043
2.08048
2.08124
2.08097
2.08004
2.07831
2.07584
2.06994
2.06454
2.0547
2.04826
2.03812
2.03214
2.02267
2.01712
2.00757
2.00164
1.99138
1.98488
1.97417
1.96776
1.95737
1.95155
1.94161
1.93616
1.92646
1.92113
1.91157
1.90625
1.89687
1.89155
1.88244
1.8773
1.86842
1.86347
1.85461
1.84961
1.84059
1.83567
1.82665
1.82232
1.81422
1.81335
2.21403
2.17182
2.12513
2.07745
2.03001
1.98333
1.93906
1.89639
1.85682
1.81899
1.78434
1.75138
1.72145
1.69324
1.66794
1.6444
1.62382
1.6051
1.5896
1.57602
1.56584
1.55749
1.55266
1.54983
1.54986
1.55045
1.552
1.55531
1.56091
1.56911
1.58438
1.61504
1.67819
1.79863
1.93689
2.02459
2.04719
2.04601
2.04047
2.0358
2.0333
2.03515
2.04587
2.06775
2.09507
2.12594
2.14735
2.16301
2.15407
2.14829
2.13613
2.11699
2.09941
2.08503
2.07134
2.0611
2.05397
2.0499
2.04636
2.04584
2.04509
2.04474
2.04359
2.04225
2.0395
2.03641
2.02938
2.02376
2.01469
2.00926
2.00033
1.99481
1.98543
1.97976
1.97018
1.9645
1.9546
1.94865
1.9386
1.93289
1.9234
1.91828
1.90929
1.90418
1.89515
1.88959
1.88044
1.87472
1.86572
1.86036
1.85168
1.84683
1.83838
1.8338
1.8252
1.82069
1.81182
1.80775
1.79959
1.7988
2.20335
2.1661
2.125
2.08228
2.03949
1.99677
1.95483
1.91428
1.87547
1.83864
1.80382
1.77132
1.74064
1.7124
1.68587
1.66182
1.63931
1.61947
1.60099
1.58549
1.5713
1.56044
1.55088
1.54486
1.54093
1.54099
1.54208
1.54502
1.55142
1.56507
1.5918
1.6459
1.75553
1.8958
2.00113
2.0346
2.03889
2.03056
2.02072
2.00973
1.99903
1.98977
1.98954
1.99176
2.0015
2.0219
2.04609
2.07328
2.09309
2.10504
2.10131
2.09593
2.08599
2.073
2.05673
2.04581
2.03448
2.02586
2.01842
2.01347
2.00939
2.00815
2.00725
2.007
2.00644
2.00533
2.00244
1.99884
1.99102
1.98565
1.97667
1.97124
1.96202
1.95643
1.9469
1.94143
1.93216
1.92694
1.91775
1.91237
1.90307
1.89755
1.88845
1.88291
1.87398
1.86838
1.85947
1.8541
1.84534
1.84052
1.83208
1.82772
1.81949
1.81536
1.80714
1.80305
1.79477
1.79104
1.7833
1.78297
2.19268
2.15454
2.11937
2.0816
2.04247
2.00369
1.96541
1.92767
1.89116
1.85595
1.82215
1.79026
1.75993
1.7316
1.70474
1.68028
1.65677
1.63611
1.616
1.59891
1.58245
1.56911
1.55664
1.54758
1.54027
1.53863
1.53967
1.54362
1.55337
1.57452
1.61896
1.7096
1.85083
1.97127
2.01988
2.03114
2.0225
2.01286
2.00102
1.98759
1.97282
1.96046
1.95126
1.94657
1.94393
1.94492
1.95198
1.96762
1.98744
2.0099
2.02987
2.04198
2.04961
2.04288
2.03719
2.03004
2.01543
2.00418
1.99402
1.98684
1.98032
1.97605
1.97299
1.97176
1.97099
1.9703
1.96894
1.96698
1.96217
1.95813
1.94992
1.9448
1.93601
1.9308
1.92163
1.91601
1.90655
1.90095
1.89172
1.88632
1.87724
1.8719
1.86294
1.8577
1.84889
1.84367
1.8348
1.8296
1.8208
1.81601
1.80768
1.80344
1.79555
1.79163
1.78383
1.77996
1.77214
1.76867
1.76133
1.76143
2.18736
2.15297
2.11478
2.08049
2.04404
2.00709
1.97121
1.93599
1.90146
1.86847
1.83622
1.80544
1.77606
1.74818
1.72145
1.69684
1.67284
1.6515
1.63058
1.61226
1.59462
1.57951
1.56528
1.55405
1.54506
1.54269
1.54474
1.55078
1.56582
1.60358
1.67218
1.80848
1.9341
2.00206
2.02004
2.01432
2.00412
1.99245
1.97999
1.96452
1.94915
1.93468
1.92098
1.90923
1.89981
1.89457
1.89236
1.89388
1.89977
1.91419
1.93151
1.95157
1.97059
1.98584
1.99555
1.99805
1.99462
1.98973
1.9817
1.97293
1.96179
1.95523
1.94847
1.94414
1.94149
1.94042
1.93976
1.939
1.93719
1.93482
1.92884
1.92432
1.91544
1.90973
1.90025
1.89435
1.88491
1.87928
1.87025
1.86505
1.85625
1.85106
1.84207
1.83669
1.8276
1.82226
1.81327
1.80805
1.79917
1.79423
1.78574
1.78136
1.77344
1.76953
1.76184
1.75801
1.75025
1.74673
1.73934
1.73915
2.17442
2.14755
2.11433
2.07763
2.04498
2.01047
1.9755
1.94212
1.90919
1.87682
1.84715
1.81632
1.78906
1.76099
1.73559
1.71072
1.68706
1.66531
1.64385
1.6251
1.60618
1.59049
1.57472
1.56267
1.55351
1.55336
1.5574
1.56828
1.5942
1.66308
1.76789
1.9024
1.98159
2.00739
2.00472
1.99566
1.98308
1.97142
1.9543
1.93841
1.92307
1.90828
1.89419
1.88079
1.86967
1.86008
1.85347
1.84894
1.84674
1.84778
1.85131
1.86249
1.87837
1.89734
1.91862
1.93686
1.95003
1.95834
1.95752
1.95491
1.95017
1.94264
1.93296
1.92635
1.91921
1.91589
1.91223
1.9108
1.90872
1.90704
1.90329
1.90027
1.89383
1.88975
1.88152
1.8765
1.86728
1.86171
1.85237
1.8471
1.83828
1.83351
1.82488
1.82
1.81107
1.80594
1.79689
1.79179
1.7829
1.77795
1.7693
1.76462
1.75632
1.75208
1.74414
1.74018
1.73221
1.72851
1.72096
1.72
2.15942
2.13362
2.10936
2.07749
2.04363
2.01275
1.98049
1.94697
1.91703
1.88408
1.8555
1.82604
1.79784
1.77234
1.74511
1.72277
1.69771
1.67727
1.65515
1.63633
1.61734
1.60048
1.58521
1.57217
1.56669
1.57016
1.57665
1.59687
1.64703
1.74208
1.87662
1.96864
1.99925
2.00096
1.99074
1.97786
1.96191
1.94285
1.92489
1.90978
1.8961
1.88316
1.87105
1.85985
1.84826
1.83761
1.82671
1.81763
1.81044
1.8049
1.80358
1.80426
1.80628
1.81322
1.82612
1.84347
1.86262
1.88311
1.90127
1.9139
1.92211
1.91893
1.91588
1.91137
1.90154
1.89298
1.88438
1.88043
1.87694
1.87609
1.87421
1.8726
1.86867
1.86542
1.85852
1.85429
1.84603
1.84116
1.8327
1.82784
1.81954
1.81502
1.80713
1.80275
1.79466
1.7898
1.78124
1.776
1.7674
1.76231
1.75408
1.74931
1.74137
1.73692
1.72907
1.72504
1.71717
1.71352
1.7062
1.7049
2.14747
2.12031
2.09494
2.07198
2.04288
2.01153
1.98402
1.95233
1.92335
1.89426
1.864
1.83783
1.80856
1.78405
1.75757
1.73382
1.71089
1.68806
1.66824
1.64695
1.62975
1.611
1.59717
1.58564
1.58574
1.59145
1.60673
1.64391
1.72685
1.85656
1.95967
1.99793
2.00023
1.98902
1.97181
1.95621
1.93593
1.9196
1.90276
1.88954
1.87591
1.86398
1.85156
1.83894
1.82657
1.81458
1.8037
1.79337
1.78379
1.77494
1.76713
1.76033
1.75687
1.75523
1.75648
1.76113
1.77381
1.78949
1.80912
1.83141
1.85105
1.86854
1.8787
1.88282
1.88065
1.87662
1.86806
1.86219
1.85471
1.85067
1.84589
1.84414
1.8405
1.83823
1.83325
1.82989
1.82308
1.81922
1.81173
1.80762
1.80002
1.79572
1.78803
1.78374
1.77603
1.77143
1.7633
1.75819
1.74984
1.74469
1.73667
1.73208
1.72452
1.72055
1.71303
1.70929
1.70174
1.69823
1.69121
1.69015
2.14022
2.11233
2.08498
2.05895
2.03556
2.00774
1.98079
1.95417
1.92556
1.89919
1.8714
1.84494
1.81943
1.79317
1.77013
1.74509
1.72369
1.7009
1.6806
1.66058
1.64182
1.62517
1.61151
1.60701
1.61223
1.624
1.65254
1.73264
1.84507
1.95805
2.00421
2.00756
1.99213
1.9758
1.95722
1.93804
1.91847
1.90238
1.88599
1.87194
1.85703
1.84271
1.82898
1.81626
1.80483
1.79351
1.78262
1.77125
1.76026
1.7492
1.73859
1.72918
1.7209
1.71583
1.71195
1.71179
1.71294
1.71562
1.72451
1.73796
1.75656
1.77919
1.80386
1.82684
1.84363
1.85497
1.85323
1.84874
1.84374
1.83686
1.8281
1.82328
1.81724
1.8146
1.80986
1.8073
1.80198
1.79884
1.79256
1.78907
1.78208
1.77824
1.77076
1.76641
1.75857
1.75405
1.74609
1.74132
1.73313
1.7282
1.72005
1.71548
1.70779
1.70393
1.69671
1.69314
1.68593
1.68254
1.67568
1.67467
2.12219
2.10485
2.08034
2.05442
2.03127
2.00517
1.97919
1.95257
1.9272
1.90096
1.87579
1.85014
1.82586
1.80155
1.77796
1.75576
1.73293
1.71269
1.69146
1.67284
1.65443
1.63949
1.63152
1.63474
1.64487
1.66983
1.73063
1.84526
1.96237
2.01869
2.02219
2.00673
1.98708
1.96881
1.94509
1.9241
1.90381
1.88707
1.87006
1.85534
1.83922
1.82526
1.81103
1.79832
1.78571
1.77383
1.76163
1.74992
1.73783
1.72651
1.71564
1.70609
1.69742
1.68955
1.68274
1.6768
1.67156
1.66996
1.67038
1.67184
1.67802
1.69193
1.71068
1.73495
1.76231
1.7899
1.81252
1.8275
1.82593
1.82225
1.81798
1.81031
1.80143
1.79648
1.78996
1.78688
1.78164
1.77879
1.77314
1.77009
1.76401
1.76071
1.75405
1.7504
1.74307
1.73882
1.73099
1.72645
1.71845
1.71376
1.70567
1.70104
1.69315
1.68901
1.68169
1.67812
1.67107
1.66775
1.6611
1.6598
2.09692
2.0858
2.06631
2.04346
2.02271
2.00033
1.97682
1.95222
1.92687
1.90322
1.87841
1.85479
1.8307
1.80802
1.78489
1.76332
1.74182
1.72104
1.70185
1.68278
1.66709
1.65647
1.65694
1.66598
1.68871
1.737
1.8501
1.97157
2.03666
2.04296
2.02536
2.0059
1.98458
1.95961
1.93413
1.91247
1.89143
1.87398
1.85578
1.8406
1.82474
1.81166
1.79715
1.78378
1.76941
1.75594
1.7427
1.73036
1.71872
1.70781
1.69773
1.68776
1.67826
1.6687
1.65953
1.65077
1.64323
1.63666
1.63184
1.6297
1.62977
1.63108
1.63572
1.64798
1.6658
1.68938
1.7204
1.75188
1.7812
1.79857
1.79844
1.79562
1.79106
1.78342
1.77444
1.76926
1.76224
1.75855
1.75281
1.74971
1.7443
1.74153
1.73603
1.73303
1.72684
1.7233
1.7161
1.71178
1.70399
1.69947
1.69166
1.68719
1.67948
1.67525
1.66784
1.66408
1.65722
1.65385
1.64767
1.64628
2.08427
2.07212
2.05888
2.03514
2.0133
1.99217
1.97047
1.94924
1.92618
1.90264
1.88026
1.85705
1.83489
1.81213
1.79094
1.7692
1.74888
1.72895
1.70996
1.69333
1.68089
1.67978
1.68757
1.70744
1.75057
1.85213
1.97833
2.05527
2.06536
2.04805
2.0277
2.00639
1.9775
1.95114
1.92571
1.90379
1.88267
1.86402
1.84572
1.82977
1.81356
1.79903
1.78356
1.76923
1.75439
1.74028
1.72662
1.71383
1.7019
1.69072
1.67989
1.66942
1.65913
1.64906
1.63936
1.63003
1.6212
1.6129
1.6055
1.59871
1.59413
1.59059
1.59061
1.59192
1.59562
1.60657
1.62363
1.64772
1.68197
1.71823
1.75218
1.7701
1.77094
1.7682
1.76307
1.75524
1.74669
1.74159
1.73427
1.73031
1.72441
1.72137
1.71606
1.71339
1.70805
1.70512
1.69902
1.69545
1.68822
1.68382
1.6762
1.67189
1.66445
1.6605
1.65336
1.64958
1.64289
1.63945
1.63346
1.6325
2.05655
2.05358
2.0446
2.02713
2.00657
1.98673
1.96622
1.94552
1.92463
1.90257
1.88034
1.85897
1.83753
1.81624
1.79505
1.77513
1.75462
1.73604
1.71885
1.70491
1.70171
1.7089
1.7265
1.76646
1.85183
1.98499
2.0745
2.08972
2.07211
2.05279
2.02857
1.99889
1.96915
1.94345
1.9186
1.89726
1.87606
1.85757
1.83883
1.82217
1.80451
1.78896
1.77211
1.75771
1.74203
1.7281
1.71361
1.70048
1.68771
1.67574
1.66417
1.65285
1.64188
1.63132
1.62116
1.61145
1.6021
1.59321
1.58472
1.57685
1.56955
1.56319
1.5585
1.5544
1.55443
1.55577
1.55862
1.5676
1.58427
1.60863
1.6444
1.68586
1.72406
1.74049
1.7424
1.73983
1.73472
1.72654
1.71871
1.71384
1.70652
1.70272
1.69702
1.69419
1.68896
1.68633
1.68103
1.67809
1.67202
1.66841
1.66117
1.65703
1.64973
1.64579
1.63902
1.6353
1.62889
1.62563
1.61954
1.61878
2.02352
2.02737
2.02269
2.0135
1.99601
1.97852
1.96036
1.94099
1.92085
1.90105
1.88015
1.85893
1.83902
1.81834
1.79869
1.7786
1.76054
1.74216
1.72837
1.7232
1.73004
1.74526
1.78111
1.85811
1.99065
2.09455
2.11661
2.10032
2.07806
2.05353
2.02046
1.99076
1.96229
1.93786
1.91383
1.8932
1.87187
1.85287
1.83292
1.81486
1.79635
1.7795
1.762
1.7462
1.72982
1.71565
1.70117
1.6878
1.67413
1.66109
1.64843
1.63658
1.62534
1.61468
1.60431
1.59446
1.58471
1.57543
1.5662
1.55738
1.5488
1.54078
1.53329
1.52691
1.52183
1.51748
1.51753
1.51863
1.5209
1.52895
1.54527
1.57138
1.60701
1.65229
1.69583
1.71013
1.7128
1.71033
1.70596
1.69831
1.69085
1.68629
1.67943
1.67591
1.67033
1.66757
1.6623
1.65964
1.65429
1.65133
1.64527
1.64168
1.63481
1.63099
1.62439
1.62097
1.61473
1.61186
1.60603
1.60561
1.99829
2.00643
2.00599
1.99495
1.98333
1.96646
1.95108
1.93511
1.91721
1.89858
1.87927
1.85902
1.83903
1.81981
1.80014
1.78208
1.76409
1.75004
1.74273
1.74879
1.76384
1.79699
1.87163
1.99666
2.10803
2.13792
2.1233
2.10257
2.07717
2.04404
2.01239
1.98445
1.9577
1.93423
1.91109
1.88987
1.8678
1.84762
1.82685
1.80826
1.78883
1.77124
1.75271
1.73639
1.71923
1.70447
1.68871
1.6751
1.6608
1.64776
1.63451
1.6222
1.61016
1.5988
1.58779
1.5771
1.56681
1.55667
1.54706
1.53763
1.52893
1.52054
1.51277
1.5056
1.49869
1.49303
1.4878
1.48368
1.48325
1.48395
1.48604
1.49383
1.50935
1.53884
1.57748
1.62219
1.66969
1.68342
1.68582
1.68319
1.67888
1.67224
1.66506
1.66047
1.65381
1.65027
1.64459
1.64165
1.6363
1.63361
1.62817
1.62521
1.61926
1.61584
1.60954
1.60624
1.6002
1.59751
1.59189
1.59195
1.92133
1.98867
1.98859
1.9843
1.97078
1.95273
1.93577
1.92114
1.90747
1.89289
1.87636
1.85834
1.83913
1.82059
1.8022
1.78458
1.77008
1.76215
1.76695
1.78156
1.81362
1.88606
2.00809
2.12598
2.16209
2.15071
2.12735
2.10257
2.0676
2.03618
2.00603
1.97926
1.95354
1.93063
1.90705
1.8852
1.86242
1.84178
1.82047
1.80119
1.78105
1.76279
1.74363
1.72661
1.7086
1.69325
1.67681
1.66301
1.64819
1.63527
1.62164
1.60902
1.59639
1.58449
1.57295
1.56182
1.55106
1.54069
1.53081
1.52139
1.51237
1.5038
1.49544
1.48753
1.47973
1.4725
1.46552
1.45961
1.45465
1.45054
1.4509
1.45202
1.45456
1.4635
1.47958
1.51008
1.55412
1.59958
1.64492
1.65833
1.66051
1.65773
1.65289
1.64665
1.63978
1.63522
1.62863
1.6251
1.6195
1.61647
1.61113
1.6084
1.60314
1.60039
1.59483
1.59184
1.58597
1.58335
1.57786
1.57808
1.74698
1.93871
1.9701
1.96955
1.9629
1.94866
1.92785
1.91019
1.89451
1.87989
1.86674
1.85316
1.83749
1.82006
1.80455
1.78928
1.78108
1.78497
1.79939
1.83066
1.90207
2.01879
2.14739
2.18896
2.17925
2.15523
2.12787
2.09229
2.05844
2.02812
1.99918
1.97376
1.94879
1.9255
1.90117
1.87842
1.85521
1.83424
1.81275
1.79316
1.77255
1.75362
1.73402
1.71647
1.6985
1.68282
1.66616
1.6519
1.63634
1.62313
1.60896
1.59639
1.58315
1.57076
1.55852
1.54704
1.53606
1.52569
1.51578
1.5064
1.49732
1.48865
1.48016
1.47198
1.46402
1.45637
1.44909
1.44229
1.43591
1.43056
1.42612
1.4224
1.42304
1.42441
1.42733
1.4369
1.45379
1.48564
1.53167
1.58045
1.62298
1.63443
1.63636
1.63349
1.6288
1.62265
1.61588
1.61137
1.60473
1.60109
1.59544
1.59238
1.58704
1.58428
1.5791
1.57649
1.57122
1.56883
1.56369
1.56399
1.49886
1.81914