/*--------------------------------*- C++ -*----------------------------------*\
| =========                 |                                                 |
| \\      /  F ield         | OpenFOAM: The Open Source CFD Toolbox           |
|  \\    /   O peration     | Version:  2412                                  |
|   \\  /    A nd           | Website:  www.openfoam.com                      |
|    \\/     M anipulation  |                                                 |
\*---------------------------------------------------------------------------*/
FoamFile
{
    version     2.0;
    format      ascii;
    arch        "LSB;label=32;scalar=64";
    class       volVectorField;
    location    "2.5";
    object      U;
}
// * * * * * * * * * * * * * * * * * * * * * * * * * * * * * * * * * * * * * //

dimensions      [0 1 -1 0 0 0 0];

internalField   nonuniform List<vector> 
5250
(
(3 5.93602e-09 0)
(2.99999 4.65519e-08 0)
(2.99997 1.42447e-07 0)
(2.99993 4.36824e-07 0)
(2.99981 1.02308e-06 0)
(2.99958 2.92846e-06 0)
(2.99888 5.9141e-06 0)
(2.99761 2.04531e-05 0)
(2.99311 3.37944e-05 0)
(2.98582 0.000148296 0)
(2.95659 0.000279381 0)
(2.89469 0.00104421 0)
(2.7048 0.0025465 0)
(2.09391 0.0084293 0)
(1.00051 0.0238913 0)
(0.335303 0.0234889 0)
(0.527137 0.022683 0)
(0.583866 0.0246562 0)
(0.52714 0.0269796 0)
(0.431469 0.029644 0)
(0.343927 0.0326347 0)
(0.273845 0.0358304 0)
(0.202081 0.0389527 0)
(0.120196 0.0424248 0)
(0.0542968 0.0475208 0)
(3 1.82155e-08 0)
(2.99999 1.41741e-07 0)
(2.99997 4.34893e-07 0)
(2.99993 1.3236e-06 0)
(2.99981 3.09542e-06 0)
(2.99958 8.74945e-06 0)
(2.99889 1.76473e-05 0)
(2.99763 6.07396e-05 0)
(2.99322 9.5841e-05 0)
(2.98603 0.000439329 0)
(2.95731 0.000813799 0)
(2.8967 0.00303015 0)
(2.7105 0.00767721 0)
(2.11322 0.0247916 0)
(1.01849 0.0679394 0)
(0.348877 0.0672097 0)
(0.534965 0.0648024 0)
(0.589869 0.0681451 0)
(0.531116 0.0721323 0)
(0.43444 0.077016 0)
(0.346201 0.0822411 0)
(0.275148 0.0872236 0)
(0.202082 0.091424 0)
(0.118396 0.0952192 0)
(0.0513509 0.0989951 0)
(3 2.95805e-08 0)
(2.99999 2.3014e-07 0)
(2.99997 7.06656e-07 0)
(2.99993 2.14392e-06 0)
(2.99981 5.04444e-06 0)
(2.99959 1.38877e-05 0)
(2.99892 2.9572e-05 0)
(2.99767 9.15235e-05 0)
(2.99342 0.000160172 0)
(2.98642 0.00064482 0)
(2.95868 0.0012088 0)
(2.90079 0.00443504 0)
(2.72183 0.0112618 0)
(2.1505 0.0356258 0)
(1.05771 0.0954705 0)
(0.369352 0.110314 0)
(0.544168 0.112516 0)
(0.597196 0.117547 0)
(0.537873 0.123458 0)
(0.441828 0.131948 0)
(0.353621 0.141271 0)
(0.281592 0.150121 0)
(0.207029 0.157998 0)
(0.121263 0.164831 0)
(0.0515212 0.169815 0)
(3 3.93762e-08 0)
(2.99999 3.06592e-07 0)
(2.99997 9.42227e-07 0)
(2.99993 2.85382e-06 0)
(2.99982 6.74818e-06 0)
(2.9996 1.82243e-05 0)
(2.99896 4.03498e-05 0)
(2.99774 0.000113738 0)
(2.99367 0.000224495 0)
(2.98691 0.000775764 0)
(2.96037 0.00146436 0)
(2.9056 0.00534705 0)
(2.73484 0.0131627 0)
(2.19188 0.0408106 0)
(1.10636 0.10846 0)
(0.390369 0.155753 0)
(0.552119 0.164249 0)
(0.604336 0.168178 0)
(0.547467 0.174549 0)
(0.454402 0.186881 0)
(0.366684 0.200759 0)
(0.293426 0.214136 0)
(0.216943 0.226735 0)
(0.128072 0.237692 0)
(0.0538906 0.244596 0)
(3 4.63394e-08 0)
(2.99999 3.59955e-07 0)
(2.99997 1.10693e-06 0)
(2.99993 3.34334e-06 0)
(2.99983 7.90185e-06 0)
(2.99962 2.12248e-05 0)
(2.999 4.70749e-05 0)
(2.99783 0.000130353 0)
(2.99397 0.000264839 0)
(2.98746 0.000873833 0)
(2.96238 0.00165834 0)
(2.91108 0.00582806 0)
(2.7494 0.0150599 0)
(2.23745 0.0410873 0)
(1.17621 0.12172 0)
(0.43291 0.201644 0)
(0.563025 0.21704 0)
(0.611243 0.217332 0)
(0.559557 0.223465 0)
(0.471534 0.240895 0)
(0.384533 0.260149 0)
(0.310024 0.278608 0)
(0.231602 0.296638 0)
(0.138721 0.312752 0)
(0.0583367 0.322582 0)
(3 5.23347e-08 0)
(2.99999 4.04942e-07 0)
(2.99997 1.2449e-06 0)
(2.99994 3.74533e-06 0)
(2.99984 8.82172e-06 0)
(2.99963 2.35402e-05 0)
(2.99905 5.20591e-05 0)
(2.99792 0.000142987 0)
(2.99429 0.000287068 0)
(2.98808 0.00095439 0)
(2.96438 0.00174327 0)
(2.91735 0.00629258 0)
(2.76232 0.0162779 0)
(2.2863 0.0415078 0)
(1.27035 0.134068 0)
(0.489469 0.244373 0)
(0.575644 0.270788 0)
(0.616291 0.264419 0)
(0.574165 0.270239 0)
(0.49392 0.294072 0)
(0.407519 0.320124 0)
(0.331729 0.345069 0)
(0.251373 0.37015 0)
(0.153765 0.393672 0)
(0.0652245 0.408981 0)
(3 6.36138e-08 0)
(2.99999 4.91605e-07 0)
(2.99997 1.51237e-06 0)
(2.99994 4.54274e-06 0)
(2.99984 1.07028e-05 0)
(2.99965 2.84012e-05 0)
(2.9991 6.30709e-05 0)
(2.99802 0.000169109 0)
(2.99465 0.000348767 0)
(2.98868 0.00108413 0)
(2.9667 0.00202856 0)
(2.92379 0.00709206 0)
(2.7767 0.0171419 0)
(2.34168 0.0482734 0)
(1.38262 0.143338 0)
(0.562849 0.290261 0)
(0.589349 0.315652 0)
(0.615847 0.309809 0)
(0.590613 0.320147 0)
(0.521322 0.346908 0)
(0.435982 0.380582 0)
(0.359552 0.413628 0)
(0.278327 0.448245 0)
(0.175879 0.4829 0)
(0.0765629 0.508973 0)
(3 7.93026e-08 0)
(2.99999 6.12898e-07 0)
(2.99998 1.88803e-06 0)
(2.99994 5.66421e-06 0)
(2.99986 1.33833e-05 0)
(2.99968 3.53372e-05 0)
(2.99916 7.89947e-05 0)
(2.99816 0.000206387 0)
(2.99505 0.000444075 0)
(2.98948 0.00124737 0)
(2.96926 0.00253631 0)
(2.93049 0.00782254 0)
(2.79399 0.0186096 0)
(2.40099 0.0553388 0)
(1.50829 0.150644 0)
(0.646338 0.338417 0)
(0.601411 0.35239 0)
(0.624056 0.353148 0)
(0.610138 0.371742 0)
(0.551642 0.400001 0)
(0.471496 0.440806 0)
(0.395501 0.484014 0)
(0.315122 0.531304 0)
(0.209496 0.582691 0)
(0.0959353 0.631092 0)
(3 1.01435e-07 0)
(2.99999 7.80107e-07 0)
(2.99998 2.4056e-06 0)
(2.99995 7.20094e-06 0)
(2.99987 1.71101e-05 0)
(2.99971 4.4957e-05 0)
(2.99924 0.000101688 0)
(2.99833 0.00025774 0)
(2.99551 0.000586379 0)
(2.99044 0.00144612 0)
(2.97206 0.00329306 0)
(2.93767 0.0085436 0)
(2.81305 0.0206509 0)
(2.46318 0.0591871 0)
(1.64455 0.153672 0)
(0.736774 0.382544 0)
(0.609473 0.389544 0)
(0.636553 0.39359 0)
(0.633235 0.419616 0)
(0.58454 0.452282 0)
(0.513936 0.499866 0)
(0.442263 0.555116 0)
(0.366316 0.617672 0)
(0.264147 0.695278 0)
(0.132686 0.790239 0)
(3 4.63861e-08 0)
(2.99999 1.22263e-06 0)
(2.99998 2.47686e-06 0)
(2.99996 1.08665e-05 0)
(2.99989 1.80157e-05 0)
(2.99975 6.98937e-05 0)
(2.99934 0.000100067 0)
(2.99857 0.000428053 0)
(2.99604 0.000464336 0)
(2.99175 0.00251556 0)
(2.97507 0.00175605 0)
(2.9454 0.015358 0)
(2.83265 0.0101191 0)
(2.52312 0.0885543 0)
(1.77881 0.152466 0)
(0.831483 0.431977 0)
(0.611976 0.429916 0)
(0.649558 0.432666 0)
(0.659366 0.462807 0)
(0.621054 0.502546 0)
(0.563379 0.556178 0)
(0.500856 0.622521 0)
(0.43842 0.706498 0)
(0.35796 0.830083 0)
(0.203463 1.04452 0)
(3 8.46525e-08 0)
(2.99999 6.59943e-07 0)
(2.99999 2.03063e-06 0)
(2.99996 6.13081e-06 0)
(2.99992 1.45245e-05 0)
(2.99978 3.86638e-05 0)
(2.99954 8.69274e-05 0)
(2.99863 0.000228069 0)
(2.99724 0.000500662 0)
(2.99153 0.00137384 0)
(2.98245 0.00291266 0)
(2.94516 0.00878926 0)
(2.86363 0.0201605 0)
(2.61474 0.062967 0)
(1.85277 0.180455 0)
(0.961529 0.467516 0)
(0.623509 0.464687 0)
(0.669674 0.468518 0)
(0.693291 0.499579 0)
(0.664251 0.546137 0)
(0.619309 0.604816 0)
(0.575451 0.680764 0)
(0.546664 0.784499 0)
(0.548994 0.939718 0)
(0.590485 1.1911 0)
(3 1.28833e-07 0)
(2.99999 1.37091e-07 0)
(2.99999 1.70873e-06 0)
(2.99997 1.75201e-06 0)
(2.99991 1.18907e-05 0)
(2.99981 9.61319e-06 0)
(2.9995 7.88177e-05 0)
(2.99891 4.00878e-05 0)
(2.99699 0.000562648 0)
(2.99376 0.000307126 0)
(2.98124 0.00406617 0)
(2.95969 0.0029635 0)
(2.8774 0.0291736 0)
(2.66501 0.0462429 0)
(2.10934 0.185165 0)
(1.09031 0.506994 0)
(0.652896 0.510671 0)
(0.700867 0.514622 0)
(0.735221 0.536719 0)
(0.715479 0.583128 0)
(0.683095 0.644434 0)
(0.660867 0.726076 0)
(0.667535 0.837335 0)
(0.730637 0.98976 0)
(0.881669 1.18352 0)
(3 6.96634e-08 0)
(3 5.44444e-07 0)
(2.99999 1.67196e-06 0)
(2.99997 5.07767e-06 0)
(2.99992 1.19791e-05 0)
(2.99983 3.22823e-05 0)
(2.99957 7.20266e-05 0)
(2.99904 0.000195847 0)
(2.99747 0.000409152 0)
(2.99444 0.00127021 0)
(2.98475 0.00233737 0)
(2.96615 0.0086484 0)
(2.90252 0.0172331 0)
(2.7394 0.0622043 0)
(2.31299 0.15479 0)
(1.26822 0.467453 0)
(0.728099 0.541545 0)
(0.752622 0.567461 0)
(0.785977 0.577897 0)
(0.775979 0.618047 0)
(0.754264 0.678059 0)
(0.750552 0.758007 0)
(0.782191 0.862143 0)
(0.871273 0.98999 0)
(1.04594 1.11646 0)
(3 7.5797e-08 0)
(3 5.92923e-07 0)
(2.99999 1.82222e-06 0)
(2.99998 5.53417e-06 0)
(2.99994 1.31554e-05 0)
(2.99986 3.5324e-05 0)
(2.99964 8.00833e-05 0)
(2.99919 0.000209312 0)
(2.99789 0.000477892 0)
(2.99537 0.00120513 0)
(2.98733 0.00287851 0)
(2.97229 0.00698218 0)
(2.92008 0.0173318 0)
(2.79056 0.046385 0)
(2.44139 0.122709 0)
(1.44813 0.359399 0)
(0.81596 0.570353 0)
(0.794589 0.614799 0)
(0.822423 0.625407 0)
(0.832228 0.654523 0)
(0.824695 0.707834 0)
(0.834395 0.779391 0)
(0.879826 0.86685 0)
(0.975775 0.965069 0)
(1.14306 1.0486 0)
(3 6.85091e-08 0)
(3 5.3413e-07 0)
(2.99999 1.64255e-06 0)
(2.99998 4.96916e-06 0)
(2.99995 1.17968e-05 0)
(2.99989 3.14804e-05 0)
(2.99971 7.11604e-05 0)
(2.99937 0.000185024 0)
(2.9983 0.000417774 0)
(2.99645 0.00106153 0)
(2.98953 0.00247796 0)
(2.97837 0.00614627 0)
(2.93391 0.0147572 0)
(2.83281 0.0397443 0)
(2.54249 0.104727 0)
(1.65165 0.303313 0)
(0.940982 0.619039 0)
(0.822343 0.654351 0)
(0.846541 0.66918 0)
(0.872846 0.687157 0)
(0.884725 0.73105 0)
(0.906815 0.791959 0)
(0.959478 0.862881 0)
(1.05426 0.936442 0)
(1.20552 0.994074 0)
(3 5.55865e-08 0)
(3 4.30257e-07 0)
(2.99999 1.32399e-06 0)
(2.99998 3.97871e-06 0)
(2.99996 9.40582e-06 0)
(2.99991 2.4887e-05 0)
(2.99976 5.57434e-05 0)
(2.99948 0.000145797 0)
(2.99862 0.000313091 0)
(2.99709 0.000878527 0)
(2.99154 0.00174571 0)
(2.98263 0.00556675 0)
(2.94686 0.0112828 0)
(2.8698 0.0369993 0)
(2.63726 0.0896167 0)
(1.89862 0.280316 0)
(1.11754 0.651675 0)
(0.860239 0.683578 0)
(0.872732 0.69958 0)
(0.906499 0.710069 0)
(0.935784 0.745089 0)
(0.968196 0.796741 0)
(1.02443 0.854662 0)
(1.11487 0.910558 0)
(1.24877 0.95166 0)
(3 4.88313e-08 0)
(3 3.7808e-07 0)
(2.99999 1.16438e-06 0)
(2.99999 3.5005e-06 0)
(2.99997 8.28668e-06 0)
(2.99993 2.1934e-05 0)
(2.99981 4.91765e-05 0)
(2.99958 0.000128249 0)
(2.99891 0.000278344 0)
(2.99765 0.000770314 0)
(2.99341 0.00153478 0)
(2.98638 0.00498464 0)
(2.95904 0.00958704 0)
(2.90201 0.0334664 0)
(2.72681 0.0788212 0)
(2.17251 0.251771 0)
(1.34135 0.646241 0)
(0.940075 0.711428 0)
(0.920504 0.725434 0)
(0.946474 0.732364 0)
(0.985575 0.755596 0)
(1.02414 0.797648 0)
(1.07974 0.845095 0)
(1.16331 0.888399 0)
(1.28095 0.918559 0)
(3 4.37542e-08 0)
(3 3.38643e-07 0)
(3 1.043e-06 0)
(2.99999 3.13652e-06 0)
(2.99997 7.43951e-06 0)
(2.99994 1.96981e-05 0)
(2.99985 4.43783e-05 0)
(2.99967 0.000114921 0)
(2.99915 0.000254887 0)
(2.99813 0.00067094 0)
(2.99504 0.00144057 0)
(2.98939 0.00411983 0)
(2.96984 0.00845008 0)
(2.93049 0.02614 0)
(2.80385 0.0639685 0)
(2.43009 0.188553 0)
(1.6457 0.522023 0)
(1.06509 0.724465 0)
(0.989555 0.750535 0)
(0.998478 0.762335 0)
(1.03656 0.772661 0)
(1.07841 0.801228 0)
(1.13064 0.837627 0)
(1.20564 0.871173 0)
(1.3082 0.89377 0)
(3 2.48263e-08 0)
(3 3.26753e-07 0)
(3 8.08015e-07 0)
(2.99999 2.94163e-06 0)
(2.99998 5.87679e-06 0)
(2.99996 1.84331e-05 0)
(2.99989 3.5353e-05 0)
(2.99976 0.000107985 0)
(2.99937 0.000202306 0)
(2.99863 0.000633869 0)
(2.99628 0.00109977 0)
(2.99226 0.00384622 0)
(2.97698 0.00561669 0)
(2.95004 0.0237139 0)
(2.84969 0.0375086 0)
(2.58146 0.151125 0)
(1.93966 0.354894 0)
(1.19838 0.746262 0)
(1.03746 0.781618 0)
(1.03858 0.796791 0)
(1.07544 0.797761 0)
(1.12353 0.809281 0)
(1.17553 0.834059 0)
(1.24352 0.859263 0)
(1.33301 0.876014 0)
(3 1.75915e-08 0)
(3 2.38386e-07 0)
(3 5.8224e-07 0)
(2.99999 2.13764e-06 0)
(2.99999 4.2081e-06 0)
(2.99997 1.32711e-05 0)
(2.99993 2.49683e-05 0)
(2.99981 7.67025e-05 0)
(2.99959 0.000141765 0)
(2.99888 0.00044349 0)
(2.99771 0.000782464 0)
(2.99317 0.00271117 0)
(2.98606 0.00424605 0)
(2.95771 0.0178359 0)
(2.89822 0.0287924 0)
(2.71427 0.118285 0)
(2.1706 0.288832 0)
(1.4158 0.738035 0)
(1.10543 0.807394 0)
(1.08422 0.821136 0)
(1.10925 0.820781 0)
(1.16041 0.820101 0)
(1.21594 0.834582 0)
(1.27869 0.852258 0)
(1.3571 0.864202 0)
(3 3.35568e-08 0)
(3 1.25395e-07 0)
(3 5.8482e-07 0)
(3 1.24615e-06 0)
(2.99999 4.06077e-06 0)
(2.99997 7.84617e-06 0)
(2.99994 2.393e-05 0)
(2.99985 4.48842e-05 0)
(2.99968 0.000138343 0)
(2.99917 0.000244353 0)
(2.99817 0.000843256 0)
(2.99515 0.00128769 0)
(2.98958 0.00548856 0)
(2.97072 0.0076851 0)
(2.93241 0.0352789 0)
(2.81048 0.065024 0)
(2.45771 0.236818 0)
(1.73208 0.592354 0)
(1.22091 0.810623 0)
(1.14611 0.83606 0)
(1.15294 0.84341 0)
(1.198 0.837633 0)
(1.25428 0.840956 0)
(1.31247 0.850433 0)
(1.38156 0.857297 0)
(3 2.08212e-08 0)
(3 1.13392e-07 0)
(3 4.21845e-07 0)
(3 1.08252e-06 0)
(2.99999 2.97769e-06 0)
(2.99998 6.82905e-06 0)
(2.99996 1.77152e-05 0)
(2.99991 3.96641e-05 0)
(2.99976 0.000101769 0)
(2.99947 0.000226239 0)
(2.99858 0.000583001 0)
(2.99703 0.00128353 0)
(2.9914 0.00341087 0)
(2.98205 0.00734045 0)
(2.94717 0.0206307 0)
(2.86865 0.0494312 0)
(2.64113 0.139815 0)
(1.99151 0.410064 0)
(1.37768 0.791599 0)
(1.20039 0.848751 0)
(1.19264 0.866625 0)
(1.2286 0.862364 0)
(1.28595 0.853851 0)
(1.3429 0.854083 0)
(1.40521 0.855573 0)
(3 1.17136e-08 0)
(3 9.10028e-08 0)
(3 2.80202e-07 0)
(3 8.4336e-07 0)
(2.99999 1.99872e-06 0)
(2.99999 5.28386e-06 0)
(2.99997 1.18832e-05 0)
(2.99992 3.06315e-05 0)
(2.99983 6.79444e-05 0)
(2.99957 0.000176305 0)
(2.99905 0.000381639 0)
(2.9975 0.00104725 0)
(2.99462 0.00214026 0)
(2.98501 0.0064657 0)
(2.96726 0.0134929 0)
(2.90603 0.0400773 0)
(2.7531 0.106174 0)
(2.33565 0.287156 0)
(1.58733 0.745892 0)
(1.27617 0.862051 0)
(1.2384 0.884006 0)
(1.25728 0.886187 0)
(1.30954 0.872152 0)
(1.3689 0.863526 0)
(1.42819 0.859592 0)
(3 1.18288e-08 0)
(3 6.34168e-08 0)
(3 2.3724e-07 0)
(3 6.08036e-07 0)
(3 1.68125e-06 0)
(2.99999 3.85488e-06 0)
(2.99998 1.00633e-05 0)
(2.99995 2.25401e-05 0)
(2.99988 5.82315e-05 0)
(2.99973 0.000129707 0)
(2.99931 0.000335133 0)
(2.99849 0.000747735 0)
(2.99592 0.00194525 0)
(2.99149 0.00430983 0)
(2.97521 0.0116264 0)
(2.94529 0.0267058 0)
(2.84149 0.0742341 0)
(2.56256 0.208867 0)
(1.92427 0.549679 0)
(1.39535 0.85102 0)
(1.29205 0.8919 0)
(1.29211 0.905059 0)
(1.33238 0.893727 0)
(1.39117 0.876442 0)
(1.44935 0.867301 0)
(3 4.5321e-09 0)
(3 5.28508e-08 0)
(3 1.36779e-07 0)
(3 4.781e-07 0)
(3 9.88923e-07 0)
(2.99999 2.97584e-06 0)
(2.99999 5.89458e-06 0)
(2.99996 1.718e-05 0)
(2.99992 3.36469e-05 0)
(2.9998 9.77393e-05 0)
(2.99956 0.00018993 0)
(2.99884 0.000561922 0)
(2.99759 0.00105657 0)
(2.99308 0.00338574 0)
(2.98582 0.00586922 0)
(2.9579 0.021452 0)
(2.9007 0.0396499 0)
(2.72162 0.139655 0)
(2.20342 0.370755 0)
(1.59775 0.8082 0)
(1.36092 0.897592 0)
(1.33366 0.917041 0)
(1.35406 0.913419 0)
(1.40787 0.89313 0)
(1.46829 0.877569 0)
(3 7.01919e-09 0)
(3 2.87714e-08 0)
(3 1.2627e-07 0)
(3 2.83057e-07 0)
(3 8.79216e-07 0)
(3 1.78619e-06 0)
(2.99999 5.17726e-06 0)
(2.99998 1.02843e-05 0)
(2.99995 2.94014e-05 0)
(2.99986 5.78682e-05 0)
(2.99969 0.000166817 0)
(2.99922 0.000320078 0)
(2.99827 0.000977034 0)
(2.9955 0.00173314 0)
(2.99027 0.00606818 0)
(2.97334 0.0100359 0)
(2.93872 0.0386148 0)
(2.8317 0.0759316 0)
(2.51973 0.265716 0)
(1.9052 0.639259 0)
(1.47365 0.881872 0)
(1.39144 0.918173 0)
(1.38914 0.92837 0)
(1.42798 0.913693 0)
(1.48545 0.888816 0)
(3 4.19954e-09 0)
(3 2.28716e-08 0)
(3 8.49683e-08 0)
(3 2.18008e-07 0)
(3 5.97953e-07 0)
(3 1.37015e-06 0)
(2.99999 3.53862e-06 0)
(2.99998 7.91745e-06 0)
(2.99996 2.01794e-05 0)
(2.99991 4.48927e-05 0)
(2.99978 0.000114179 0)
(2.99952 0.000253215 0)
(2.99876 0.000646774 0)
(2.99731 0.00142502 0)
(2.99276 0.00373575 0)
(2.98458 0.00803021 0)
(2.95652 0.0224519 0)
(2.89452 0.0516826 0)
(2.71239 0.149021 0)
(2.19826 0.424165 0)
(1.65051 0.834395 0)
(1.45385 0.919041 0)
(1.42888 0.937531 0)
(1.4465 0.932556 0)
(1.49689 0.906843 0)
(3 2.20215e-09 0)
(3 1.71134e-08 0)
(3 5.27065e-08 0)
(3 1.58507e-07 0)
(3 3.75708e-07 0)
(3 9.90718e-07 0)
(3 2.2303e-06 0)
(2.99999 5.71839e-06 0)
(2.99998 1.27216e-05 0)
(2.99994 3.24484e-05 0)
(2.99987 7.19174e-05 0)
(2.99966 0.000183817 0)
(2.99925 0.000405964 0)
(2.99807 0.00104989 0)
(2.99578 0.00229949 0)
(2.98887 0.00616864 0)
(2.97499 0.0134381 0)
(2.93299 0.037087 0)
(2.83037 0.095505 0)
(2.5436 0.258613 0)
(1.91018 0.688073 0)
(1.55643 0.893965 0)
(1.48176 0.932993 0)
(1.47821 0.943901 0)
(1.51304 0.929031 0)
(3 2.24452e-09 0)
(3 9.49352e-09 0)
(3 4.08036e-08 0)
(3 9.32627e-08 0)
(3 2.84692e-07 0)
(3 5.89042e-07 0)
(3 1.67743e-06 0)
(2.99999 3.39825e-06 0)
(2.99998 9.52477e-06 0)
(2.99996 1.91893e-05 0)
(2.99991 5.36689e-05 0)
(2.9998 0.000107749 0)
(2.99948 0.000302862 0)
(2.99889 0.000603981 0)
(2.99703 0.00172912 0)
(2.99384 0.00340667 0)
(2.98225 0.0100883 0)
(2.96226 0.0205467 0)
(2.88964 0.0613736 0)
(2.71013 0.151592 0)
(2.2566 0.426928 0)
(1.70213 0.849197 0)
(1.53433 0.933259 0)
(1.51158 0.951828 0)
(1.52716 0.948089 0)
(3 7.97638e-10 0)
(3 8.25813e-09 0)
(3 2.24031e-08 0)
(3 7.48117e-08 0)
(3 1.60598e-07 0)
(3 4.62788e-07 0)
(3 9.49522e-07 0)
(3 2.64572e-06 0)
(2.99999 5.37422e-06 0)
(2.99998 1.48532e-05 0)
(2.99994 3.00521e-05 0)
(2.99987 8.30825e-05 0)
(2.99966 0.000167207 0)
(2.99926 0.000469155 0)
(2.99811 0.000914402 0)
(2.99584 0.00276535 0)
(2.98922 0.00493354 0)
(2.97553 0.0171476 0)
(2.93557 0.0300892 0)
(2.83625 0.110414 0)
(2.57364 0.252599 0)
(1.9729 0.68971 0)
(1.63591 0.901478 0)
(1.56177 0.944741 0)
(1.55632 0.956507 0)
(3 5.40569e-10 0)
(3 5.48656e-09 0)
(3 1.49747e-08 0)
(3 4.9709e-08 0)
(3 1.07173e-07 0)
(3 3.07396e-07 0)
(3 6.33182e-07 0)
(3 1.7574e-06 0)
(2.99999 3.58424e-06 0)
(2.99998 9.87163e-06 0)
(2.99997 2.00752e-05 0)
(2.99991 5.52582e-05 0)
(2.99981 0.000112062 0)
(2.99951 0.000309817 0)
(2.99894 0.000624924 0)
(2.99719 0.00175064 0)
(2.99416 0.00351753 0)
(2.98334 0.0100678 0)
(2.9646 0.0210075 0)
(2.89788 0.0610494 0)
(2.73418 0.149735 0)
(2.3175 0.417443 0)
(1.78982 0.835736 0)
(1.61662 0.936132 0)
(1.5891 0.95885 0)
(3 6.28687e-10 0)
(3 2.7648e-09 0)
(3 1.15891e-08 0)
(3 2.69364e-08 0)
(3 8.05101e-08 0)
(3 1.68842e-07 0)
(3 4.70627e-07 0)
(3 9.65382e-07 0)
(3 2.64561e-06 0)
(2.99999 5.39767e-06 0)
(2.99998 1.47292e-05 0)
(2.99994 2.99602e-05 0)
(2.99988 8.18141e-05 0)
(2.99969 0.000165665 0)
(2.99931 0.000457959 0)
(2.99825 0.000904461 0)
(2.99614 0.00265696 0)
(2.99009 0.00488901 0)
(2.97748 0.0162853 0)
(2.94135 0.0296365 0)
(2.85257 0.103638 0)
(2.61601 0.240931 0)
(2.06261 0.658648 0)
(1.72568 0.895637 0)
(1.6408 0.949298 0)
(3 3.57188e-10 0)
(3 1.94375e-09 0)
(3 7.2069e-09 0)
(3 1.8488e-08 0)
(3 5.04659e-08 0)
(3 1.15412e-07 0)
(3 2.96014e-07 0)
(3 6.60144e-07 0)
(3 1.66912e-06 0)
(2.99999 3.70015e-06 0)
(2.99999 9.32732e-06 0)
(2.99997 2.06339e-05 0)
(2.99992 5.20367e-05 0)
(2.99982 0.000114904 0)
(2.99955 0.000290745 0)
(2.99902 0.000640403 0)
(2.99748 0.00163193 0)
(2.99463 0.00361801 0)
(2.98529 0.00924443 0)
(2.96833 0.0215976 0)
(2.9113 0.0552212 0)
(2.7722 0.146207 0)
(2.40781 0.383817 0)
(1.89694 0.808698 0)
(1.70194 0.932118 0)
(3 1.41199e-10 0)
(3 1.39186e-09 0)
(3 3.85041e-09 0)
(3 1.26423e-08 0)
(3 2.75477e-08 0)
(3 7.8101e-08 0)
(3 1.62427e-07 0)
(3 4.45101e-07 0)
(3 9.16514e-07 0)
(3 2.48932e-06 0)
(2.99999 5.11635e-06 0)
(2.99998 1.3859e-05 0)
(2.99995 2.84667e-05 0)
(2.99989 7.7101e-05 0)
(2.99975 0.000158089 0)
(2.99937 0.000430297 0)
(2.99862 0.000875284 0)
(2.99643 0.00245153 0)
(2.99245 0.00479728 0)
(2.97916 0.0146161 0)
(2.95433 0.028548 0)
(2.87395 0.0903176 0)
(2.66038 0.225482 0)
(2.20285 0.585443 0)
(1.82013 0.88952 0)
(3 1.38287e-10 0)
(3 7.45585e-10 0)
(3 2.76772e-09 0)
(3 7.09355e-09 0)
(3 1.93444e-08 0)
(3 4.41848e-08 0)
(3 1.13081e-07 0)
(3 2.51751e-07 0)
(3 6.34502e-07 0)
(3 1.40393e-06 0)
(2.99999 3.52378e-06 0)
(2.99999 7.78215e-06 0)
(2.99997 1.95087e-05 0)
(2.99993 4.30154e-05 0)
(2.99985 0.000107889 0)
(2.99962 0.000237328 0)
(2.99917 0.000599218 0)
(2.9979 0.00130287 0)
(2.99543 0.00341052 0)
(2.98804 0.00712895 0)
(2.97378 0.0202712 0)
(2.92975 0.0433863 0)
(2.82028 0.128894 0)
(2.53836 0.333046 0)
(2.0415 0.746528 0)
(3 9.59164e-11 0)
(3 4.4213e-10 0)
(3 1.80363e-09 0)
(3 4.27426e-09 0)
(3 1.2508e-08 0)
(3 2.66737e-08 0)
(3 7.28239e-08 0)
(3 1.51814e-07 0)
(3 4.07421e-07 0)
(3 8.45228e-07 0)
(3 2.25714e-06 0)
(2.99999 4.67821e-06 0)
(2.99998 1.24701e-05 0)
(2.99996 2.58272e-05 0)
(2.99991 6.88329e-05 0)
(2.99978 0.000142251 0)
(2.99951 0.000380254 0)
(2.99877 0.00078164 0)
(2.99731 0.00212026 0)
(2.99312 0.00428756 0)
(2.98461 0.0121904 0)
(2.96019 0.024585 0)
(2.90274 0.0734214 0)
(2.74675 0.174471 0)
(2.33511 0.487654 0)
(3 5.72297e-11 0)
(3 2.64423e-10 0)
(3 1.07638e-09 0)
(3 2.5564e-09 0)
(3 7.46351e-09 0)
(3 1.59448e-08 0)
(3 4.34137e-08 0)
(3 9.06365e-08 0)
(3 2.42538e-07 0)
(3 5.03832e-07 0)
(3 1.34162e-06 0)
(3 2.78449e-06 0)
(2.99999 7.40203e-06 0)
(2.99998 1.53557e-05 0)
(2.99995 4.08155e-05 0)
(2.99988 8.45426e-05 0)
(2.9997 0.000225264 0)
(2.99935 0.000465193 0)
(2.99835 0.0012502 0)
(2.99639 0.00256742 0)
(2.99078 0.00704259 0)
(2.97925 0.0147563 0)
(2.94651 0.0412152 0)
(2.86772 0.0963705 0)
(2.65031 0.27146 0)
(3 2.04462e-11 0)
(3 1.92573e-10 0)
(3 5.43447e-10 0)
(3 1.74579e-09 0)
(3 3.86096e-09 0)
(3 1.07139e-08 0)
(3 2.25636e-08 0)
(3 6.04888e-08 0)
(3 1.25962e-07 0)
(3 3.34599e-07 0)
(3 6.94873e-07 0)
(3 1.84056e-06 0)
(2.99999 3.81848e-06 0)
(2.99999 1.01057e-05 0)
(2.99997 2.0938e-05 0)
(2.99993 5.54551e-05 0)
(2.99983 0.000114634 0)
(2.99962 0.000304809 0)
(2.99906 0.000626834 0)
(2.99794 0.0016864 0)
(2.99477 0.00345719 0)
(2.98848 0.00946605 0)
(2.97027 0.0199893 0)
(2.92929 0.0556444 0)
(2.81638 0.132034 0)
(3 1.40812e-11 0)
(3 1.08348e-10 0)
(3 3.34292e-10 0)
(3 9.95077e-10 0)
(3 2.35513e-09 0)
(3 6.11956e-09 0)
(3 1.37199e-08 0)
(3 3.45407e-08 0)
(3 7.64475e-08 0)
(3 1.90899e-07 0)
(3 4.21139e-07 0)
(3 1.04901e-06 0)
(3 2.31178e-06 0)
(2.99999 5.75284e-06 0)
(2.99998 1.26666e-05 0)
(2.99996 3.15223e-05 0)
(2.99991 6.93052e-05 0)
(2.99977 0.000172776 0)
(2.9995 0.000379207 0)
(2.99875 0.000950923 0)
(2.99725 0.00207801 0)
(2.99304 0.0052953 0)
(2.98431 0.0116802 0)
(2.95998 0.0303609 0)
(2.90317 0.0728 0)
(3 1.13178e-11 0)
(3 5.23474e-11 0)
(3 2.12061e-10 0)
(3 5.06742e-10 0)
(3 1.46927e-09 0)
(3 3.15579e-09 0)
(3 8.52317e-09 0)
(3 1.78772e-08 0)
(3 4.74205e-08 0)
(3 9.89327e-08 0)
(3 2.61085e-07 0)
(3 5.44182e-07 0)
(3 1.43352e-06 0)
(3 2.98772e-06 0)
(2.99999 7.86577e-06 0)
(2.99998 1.63885e-05 0)
(2.99995 4.31773e-05 0)
(2.99988 8.98776e-05 0)
(2.99971 0.000237617 0)
(2.99936 0.000493483 0)
(2.99839 0.0013153 0)
(2.99648 0.00274096 0)
(2.99106 0.00737207 0)
(2.97998 0.0158146 0)
(2.94882 0.0427382 0)
(3 4.06822e-12 0)
(3 3.72772e-11 0)
(3 1.06258e-10 0)
(3 3.38064e-10 0)
(3 7.53406e-10 0)
(3 2.06985e-09 0)
(3 4.38786e-09 0)
(3 1.16384e-08 0)
(3 2.43859e-08 0)
(3 6.40694e-08 0)
(3 1.33881e-07 0)
(3 3.50646e-07 0)
(3 7.32281e-07 0)
(3 1.91512e-06 0)
(2.99999 3.99802e-06 0)
(2.99999 1.04487e-05 0)
(2.99997 2.1792e-05 0)
(2.99993 5.69782e-05 0)
(2.99984 0.000118605 0)
(2.99965 0.000311115 0)
(2.99912 0.000644584 0)
(2.99808 0.00170923 0)
(2.99518 0.00352673 0)
(2.98937 0.00951953 0)
(2.97292 0.0201554 0)
(3 2.63374e-12 0)
(3 2.02978e-11 0)
(3 6.26257e-11 0)
(3 1.86042e-10 0)
(3 4.4016e-10 0)
(3 1.14009e-09 0)
(3 2.55333e-09 0)
(3 6.40197e-09 0)
(3 1.41469e-08 0)
(3 3.51672e-08 0)
(3 7.74382e-08 0)
(3 1.91989e-07 0)
(3 4.22313e-07 0)
(3 1.04579e-06 0)
(3 2.2992e-06 0)
(2.99999 5.68924e-06 0)
(2.99998 1.24995e-05 0)
(2.99996 3.0919e-05 0)
(2.99992 6.78382e-05 0)
(2.9998 0.000167937 0)
(2.99955 0.000367714 0)
(2.99888 0.000914409 0)
(2.99755 0.00199314 0)
(2.99385 0.00502175 0)
(2.9862 0.0110724 0)
(3 1.83511e-12 0)
(3 9.98855e-12 0)
(3 3.69685e-11 0)
(3 9.47754e-11 0)
(3 2.56966e-10 0)
(3 5.85542e-10 0)
(3 1.48554e-09 0)
(3 3.2938e-09 0)
(3 8.21687e-09 0)
(3 1.8092e-08 0)
(3 4.49238e-08 0)
(3 9.87257e-08 0)
(3 2.4479e-07 0)
(3 5.3761e-07 0)
(3 1.33235e-06 0)
(3 2.92465e-06 0)
(2.99999 7.24871e-06 0)
(2.99998 1.58986e-05 0)
(2.99995 3.94434e-05 0)
(2.9999 8.64089e-05 0)
(2.99974 0.000215035 0)
(2.99944 0.000470083 0)
(2.9986 0.00117812 0)
(2.99693 0.00258414 0)
(2.99233 0.00651766 0)
(3 7.28856e-13 0)
(3 6.35208e-12 0)
(3 1.82969e-11 0)
(3 5.786e-11 0)
(3 1.29524e-10 0)
(3 3.53453e-10 0)
(3 7.51816e-10 0)
(3 1.97926e-09 0)
(3 4.15921e-09 0)
(3 1.08404e-08 0)
(3 2.27161e-08 0)
(3 5.90095e-08 0)
(3 1.236e-07 0)
(3 3.20573e-07 0)
(3 6.71547e-07 0)
(3 1.74e-06 0)
(3 3.6452e-06 0)
(2.99999 9.43994e-06 0)
(2.99998 1.97673e-05 0)
(2.99994 5.1216e-05 0)
(2.99987 0.000107131 0)
(2.99969 0.0002784 0)
(2.99931 0.000580725 0)
(2.99829 0.00152033 0)
(2.99631 0.00318533 0)
(3 6.12132e-13 0)
(3 2.91133e-12 0)
(3 1.16087e-11 0)
(3 2.80512e-11 0)
(3 8.00636e-11 0)
(3 1.73478e-10 0)
(3 4.60755e-10 0)
(3 9.7371e-10 0)
(3 2.53663e-09 0)
(3 5.32708e-09 0)
(3 1.37968e-08 0)
(3 2.89314e-08 0)
(3 7.47555e-08 0)
(3 1.56721e-07 0)
(3 4.04368e-07 0)
(3 8.47768e-07 0)
(3 2.18478e-06 0)
(2.99999 4.58006e-06 0)
(2.99999 1.1792e-05 0)
(2.99997 2.47047e-05 0)
(2.99993 6.35885e-05 0)
(2.99983 0.000133002 0)
(2.99964 0.000343009 0)
(2.9991 0.000714253 0)
(2.99805 0.00186242 0)
(3 3.08393e-13 0)
(3 1.61138e-12 0)
(3 6.2876e-12 0)
(3 1.52605e-11 0)
(3 4.3318e-11 0)
(3 9.39603e-11 0)
(3 2.48779e-10 0)
(3 5.25705e-10 0)
(3 1.36567e-09 0)
(3 2.86817e-09 0)
(3 7.40735e-09 0)
(3 1.55328e-08 0)
(3 4.00201e-08 0)
(3 8.38914e-08 0)
(3 2.15832e-07 0)
(3 4.52419e-07 0)
(3 1.16256e-06 0)
(3 2.43669e-06 0)
(2.99999 6.25508e-06 0)
(2.99998 1.31042e-05 0)
(2.99996 3.36247e-05 0)
(2.99992 7.03521e-05 0)
(2.9998 0.000180725 0)
(2.99956 0.000377295 0)
(2.99891 0.000974274 0)
(3 1.51646e-13 0)
(3 9.55347e-13 0)
(3 2.98982e-12 0)
(3 8.81864e-12 0)
(3 2.08245e-11 0)
(3 5.3813e-11 0)
(3 1.20139e-10 0)
(3 2.99546e-10 0)
(3 6.59479e-10 0)
(3 1.62818e-09 0)
(3 3.57057e-09 0)
(3 8.78852e-09 0)
(3 1.92493e-08 0)
(3 4.73184e-08 0)
(3 1.03588e-07 0)
(3 2.5443e-07 0)
(3 5.56789e-07 0)
(3 1.36672e-06 0)
(3 2.98938e-06 0)
(2.99999 7.33574e-06 0)
(2.99998 1.60306e-05 0)
(2.99996 3.93577e-05 0)
(2.99989 8.58928e-05 0)
(2.99977 0.00021143 0)
(2.99943 0.0004603 0)
(3 6.55991e-14 0)
(3 4.93627e-13 0)
(3 1.4602e-12 0)
(3 4.69584e-12 0)
(3 1.0557e-11 0)
(3 2.88895e-11 0)
(3 6.10786e-11 0)
(3 1.60665e-10 0)
(3 3.34869e-10 0)
(3 8.70361e-10 0)
(3 1.80595e-09 0)
(3 4.67739e-09 0)
(3 9.68783e-09 0)
(3 2.50618e-08 0)
(3 5.1842e-08 0)
(3 1.34037e-07 0)
(3 2.76899e-07 0)
(3 7.15677e-07 0)
(3 1.47609e-06 0)
(3 3.81437e-06 0)
(2.99999 7.84998e-06 0)
(2.99998 2.02884e-05 0)
(2.99994 4.16152e-05 0)
(2.99987 0.000107687 0)
(2.99969 0.000219741 0)
(3 1.40765e-14 0)
(3 2.18053e-13 0)
(3 7.38606e-13 0)
(3 2.11327e-12 0)
(3 5.06736e-12 0)
(3 1.28507e-11 0)
(3 2.87092e-11 0)
(3 7.08134e-11 0)
(3 1.55583e-10 0)
(3 3.80719e-10 0)
(3 8.32962e-10 0)
(3 2.02957e-09 0)
(3 4.43251e-09 0)
(3 1.07696e-08 0)
(3 2.34952e-08 0)
(3 5.69341e-08 0)
(3 1.24082e-07 0)
(3 2.99783e-07 0)
(3 6.52565e-07 0)
(3 1.57112e-06 0)
(2.99999 3.41449e-06 0)
(2.99998 8.18828e-06 0)
(2.99997 1.77533e-05 0)
(2.99991 4.23962e-05 0)
(2.99981 9.16291e-05 0)
(3 2.12183e-14 0)
(3 5.92302e-14 0)
(3 3.07174e-13 0)
(3 4.6369e-13 0)
(3 1.80384e-12 0)
(3 2.81302e-12 0)
(3 9.78082e-12 0)
(3 1.52374e-11 0)
(3 5.23031e-11 0)
(3 8.07706e-11 0)
(3 2.78311e-10 0)
(3 4.23575e-10 0)
(3 1.47308e-09 0)
(3 2.19996e-09 0)
(3 7.76298e-09 0)
(3 1.13216e-08 0)
(3 4.0731e-08 0)
(3 5.76274e-08 0)
(3 2.12661e-07 0)
(3 2.89376e-07 0)
(2.99999 1.10435e-06 0)
(2.99999 1.42821e-06 0)
(2.99997 5.70426e-06 0)
(2.99993 6.886e-06 0)
(2.99983 2.93526e-05 0)
(1.27964 1.10031 0)
(1.71961 0.902263 0)
(1.92565 0.634087 0)
(1.96076 0.361185 0)
(1.90942 0.134218 0)
(1.80493 -0.0166799 0)
(1.69694 -0.0563305 0)
(1.64054 -0.0239949 0)
(1.62994 0.0201796 0)
(1.63253 0.0423016 0)
(1.6345 0.0398068 0)
(1.63374 0.0275907 0)
(1.63094 0.0164251 0)
(1.62576 0.00840778 0)
(1.61984 0.00673504 0)
(1.61704 0.00893268 0)
(1.61711 0.0119604 0)
(1.6182 0.0136039 0)
(1.61955 0.0135583 0)
(1.62131 0.012861 0)
(1.62329 0.0115098 0)
(1.6253 0.00993772 0)
(1.62756 0.00868978 0)
(1.63023 0.0081454 0)
(1.63329 0.00800112 0)
(1.63643 0.00794874 0)
(1.63883 0.00808699 0)
(1.64028 0.00837494 0)
(1.64083 0.00874113 0)
(1.63885 0.00924281 0)
(1.63066 0.0102124 0)
(1.60793 0.0126531 0)
(1.55178 0.0187604 0)
(1.41888 0.0329019 0)
(1.10718 0.0657466 0)
(0.534277 0.142805 0)
(0.0430775 0.2118 0)
(-0.266239 0.134055 0)
(-0.398193 0.0316632 0)
(-0.505176 -0.0180884 0)
(-0.525114 -0.0365537 0)
(-0.448411 -0.0516709 0)
(-0.34521 -0.0600742 0)
(-0.233139 -0.0642878 0)
(-0.117398 -0.0668832 0)
(-0.00424105 -0.0698315 0)
(0.10824 -0.0586299 0)
(0.197131 -0.0512047 0)
(0.280281 -0.0464255 0)
(0.355381 -0.0426861 0)
(0.424082 -0.039251 0)
(0.485906 -0.0357249 0)
(0.543471 -0.0329442 0)
(0.600918 -0.0315153 0)
(0.658138 -0.0313167 0)
(0.712495 -0.0298597 0)
(0.764195 -0.0281701 0)
(0.813434 -0.0266153 0)
(0.860732 -0.0252196 0)
(0.906374 -0.0238936 0)
(0.950565 -0.0226613 0)
(0.993301 -0.0214823 0)
(1.03466 -0.0203703 0)
(1.07467 -0.019292 0)
(1.11343 -0.0182593 0)
(1.15101 -0.0172524 0)
(1.18753 -0.0162878 0)
(1.22304 -0.0153523 0)
(1.25762 -0.014462 0)
(1.2913 -0.0136001 0)
(1.32411 -0.0127798 0)
(1.35606 -0.0119786 0)
(1.38721 -0.0112125 0)
(1.41755 -0.0104583 0)
(1.44715 -0.00973799 0)
(1.47601 -0.00902927 0)
(1.50419 -0.00835506 0)
(1.53171 -0.00769228 0)
(1.5586 -0.00706167 0)
(1.58488 -0.00643996 0)
(1.61058 -0.00584517 0)
(1.63571 -0.00525357 0)
(1.66031 -0.00470618 0)
(1.68438 -0.00419386 0)
(1.70793 -0.00372884 0)
(1.73096 -0.0032842 0)
(1.75349 -0.00289545 0)
(1.77555 -0.00254458 0)
(1.79715 -0.0022547 0)
(1.81827 -0.00201864 0)
(1.83897 -0.0017724 0)
(1.85927 -0.00148115 0)
(1.87923 -0.00116737 0)
(1.89881 -0.000857898 0)
(1.91795 -0.000558104 0)
(1.93655 -0.000250615 0)
(1.95434 8.80198e-05 0)
(1.97076 0.000527273 0)
(1.98433 0.0010918 0)
(1.99421 0.00203541 0)
(1.36149 1.01289 0)
(1.68734 0.735007 0)
(1.87104 0.422006 0)
(1.96056 0.149998 0)
(2.00896 -0.0451989 0)
(2.03524 -0.149841 0)
(2.04314 -0.16011 0)
(2.04132 -0.122692 0)
(2.0276 -0.0761919 0)
(2.005 -0.0391958 0)
(1.98663 -0.0188389 0)
(1.98105 -0.0126231 0)
(1.98172 -0.0148059 0)