/*--------------------------------*- C++ -*----------------------------------*\
| =========                 |                                                 |
| \\      /  F ield         | OpenFOAM: The Open Source CFD Toolbox           |
|  \\    /   O peration     | Version:  2412                                  |
|   \\  /    A nd           | Website:  www.openfoam.com                      |
|    \\/     M anipulation  |                                                 |
\*---------------------------------------------------------------------------*/
FoamFile
{
    version     2.0;
    format      ascii;
    arch        "LSB;label=32;scalar=64";
    class       volScalarField;
    location    "0.001";
    object      ddt0(rho,K);
}
// * * * * * * * * * * * * * * * * * * * * * * * * * * * * * * * * * * * * * //

dimensions      [1 -1 -3 0 0 0 0];

internalField   nonuniform List<scalar> 
180000
(
5.30392e-06
-1.66896e-05
9.19796e-06
1.45801e-05
3.10267e-05
-2.36355e-05
-4.10661e-05
-9.28491e-06
-2.2712e-05
7.13749e-05
1.32262e-05
-4.00076e-05
-1.79961e-05
3.12584e-05
1.1626e-05
3.20582e-05
-4.66381e-05
-5.0991e-05
3.4577e-05
-1.14293e-05
5.53734e-06
-1.11796e-05
1.70736e-06
-3.67983e-06
1.24944e-05
1.50252e-05
1.18063e-05
1.86684e-05
-5.44299e-06
4.78703e-05
5.18257e-05
-1.0383e-05
-2.94244e-05
-7.4198e-06
-1.45362e-05
3.47592e-05
2.29455e-07
-2.09932e-05
-2.50195e-05
-2.7414e-05
2.77766e-05
4.50445e-05
4.52644e-05
-4.9136e-05
-2.16769e-05
-2.97184e-05
2.25469e-06
-5.34747e-06
4.5055e-06
-4.42543e-06
-1.66547e-06
7.69069e-05
4.94995e-05
3.60027e-05
6.23996e-05
-5.18135e-05
-2.64912e-05
-2.56267e-05
-1.11009e-06
-1.01416e-05
-4.48854e-05
-2.72833e-05
-1.63918e-05
-3.85138e-05
4.78759e-05
-1.62421e-05
3.47283e-05
4.51832e-05
-1.99079e-05
-1.55964e-05
-4.53855e-07
5.98373e-05
1.41508e-05
-5.21829e-05
1.26929e-05
2.98504e-05
2.02109e-05
9.35785e-05
4.99836e-05
3.13706e-05
3.36304e-06
4.95682e-05
6.3629e-05
-4.15065e-06
-4.53604e-05
9.09287e-06
3.76462e-05
5.06301e-06
-2.34264e-05
3.7918e-05
6.62337e-05
4.67148e-05
3.64837e-05
4.81758e-05
-5.71284e-06
-1.63548e-05
5.13632e-06
-1.44428e-05
-3.63736e-05
-4.9044e-07
4.11466e-05
1.66771e-05
3.26063e-05
1.5239e-05
3.75859e-05
1.59884e-05
-3.10233e-05
-3.95834e-05
-4.37643e-05
-7.30395e-06
9.60273e-06
4.58112e-05
3.94149e-05
-4.85222e-07
1.70497e-05
5.30448e-05
1.65258e-05
-2.8548e-05
-2.84687e-05
9.75232e-05
2.53468e-05
-2.66086e-05
1.21448e-05
-1.71139e-05
2.19755e-05
1.50456e-05
-1.29847e-05
1.59523e-05
2.06702e-05
2.26635e-05
4.81173e-06
2.952e-05
-8.49219e-06
4.48245e-05
7.35259e-06
5.32207e-05
5.80227e-06
-7.63266e-07
6.47798e-05
3.1963e-05
-1.45108e-05
3.0087e-06
6.69266e-06
-1.57701e-05
2.35515e-06
1.04204e-05
0.000115887
1.83159e-07
3.60861e-05
1.88264e-05
-7.66273e-07
4.15386e-05
5.35024e-05
1.55978e-06
-5.99577e-05
-5.57116e-06
2.92681e-05
-1.329e-05
-2.18833e-06
2.15893e-05
6.59479e-06
-4.04986e-06
3.74969e-05
1.57667e-05
-3.87032e-05
3.31297e-05
7.18562e-05
-1.01009e-05
5.90889e-05
1.95782e-05
2.98231e-05
2.70504e-05
1.77118e-05
8.82178e-05
4.57961e-05
-2.12803e-05
2.44996e-05
1.79863e-07
-2.28932e-05
-5.1812e-05
1.69406e-05
-3.41781e-05
3.18377e-05
7.59719e-05
2.13979e-05
7.01768e-05
3.04766e-05
6.7759e-06
-5.30066e-06
-4.41465e-05
-7.09431e-06
3.89937e-05
3.58893e-05
-1.57923e-05
2.76395e-05
3.48993e-05
4.04866e-05
2.92894e-05
8.39064e-06
3.17855e-05
6.22236e-06
1.5675e-05
3.00474e-05
-4.59546e-05
-3.81926e-05
2.1784e-05
2.43773e-05
-2.53693e-05
-5.28066e-06
6.53137e-05
5.08627e-05
3.38801e-05
2.87106e-05
3.52666e-05
6.32566e-05
7.06274e-05
-6.5381e-06
2.94692e-06
-3.64719e-06
1.14583e-05
-1.49073e-05
2.08746e-05
4.0725e-05
3.33982e-05
1.61316e-05
4.7243e-05
1.52211e-05
3.29058e-05
3.92399e-05
2.66101e-05
1.01746e-05
2.23217e-05
2.50091e-05
7.73789e-05
1.26066e-05
3.95866e-05
5.1476e-05
2.36836e-05
-4.63226e-05
-1.39504e-05
-2.21636e-05
4.39524e-05
2.63557e-05
-2.34289e-05
1.88878e-05
6.39876e-05
6.25751e-05
0.000120092
6.63921e-05
0.000178941
0.000229581
0.000363939
0.00057514
0.000909029
0.00143469
0.00206257
0.00322703
0.00548623
0.00821667
0.0115593
0.019184
0.0319623
0.0437954
0.0635397
0.111273
0.172296
0.22408
0.353211
0.616986
0.87485
1.15157
1.9598
3.24186
4.35275
6.12063
10.6576
16.5229
22.2975
33.5904
56.9989
85.1582
120.607
188.047
306.712
457.185
679.779
1058.97
1666.05
2477.48
3682.09
5380.35
7547.63
9066.34
7991.88
-4375.42
-45041.4
-173154
-469707
-1.23133e+06
-2.38841e+06
-1.16469e-05
-3.6795e-07
-3.31819e-05
2.09547e-05
-1.40551e-05
-2.43375e-05
2.83391e-05
-9.97149e-06
1.39966e-05
2.69208e-06
5.2231e-06
-2.0634e-05
7.77598e-07
2.36035e-05
2.68071e-05
-3.59766e-05
2.67777e-06
9.2124e-06
2.9469e-06
1.87626e-05
-8.66338e-06
1.83483e-05
6.66179e-06
4.48395e-05
-3.99714e-05
-3.94666e-05
-8.82995e-06
2.47891e-05
5.0685e-06
-3.29214e-05
-1.72581e-05
-1.06138e-05
-3.38063e-05
-7.92727e-07
-2.87898e-05
-3.24539e-05
1.40584e-06
-6.48185e-05
-3.21892e-05
2.29457e-05
3.18986e-05
1.93533e-05
3.0962e-05
2.92515e-05
4.37841e-05
-4.89065e-05
1.49486e-05
2.4714e-05
1.76701e-05
3.02668e-05
2.48036e-05
-8.25765e-05
-3.04855e-05
3.50093e-05
-4.43193e-06
-2.41991e-05
8.96537e-06
3.68768e-05
3.93579e-05
5.40512e-05
-7.23716e-06
-2.80645e-05
4.27439e-06
2.88048e-05
-1.39183e-06
9.82904e-06
2.86117e-05
-1.30633e-05
-2.34226e-05
2.87651e-05
2.54674e-05
-2.97323e-05
5.65445e-05
-6.87824e-06
-5.29395e-05
6.12347e-06
9.84327e-06
1.54665e-05
-5.18317e-05
-2.69216e-05
-4.96192e-07
3.93121e-05
3.35677e-07
-1.02911e-05
-3.39405e-05
-2.89781e-05
-3.45483e-05
-2.43887e-05
3.07241e-05
4.76008e-05
8.08832e-06
-2.61382e-05
-1.27901e-05
3.88199e-05
-1.65422e-05
-4.39082e-05
3.77588e-05
3.67528e-05
1.3412e-05
2.63828e-05
-3.99587e-06
-1.71788e-05
6.2636e-05
3.37683e-05
-6.03192e-05
-1.35849e-05
1.46768e-05
1.12401e-05
-2.75033e-05
9.08361e-06
3.11371e-05
2.62591e-05
-2.69165e-05
-7.08025e-06
7.10021e-05
3.86254e-05
-1.48704e-05
-5.02909e-06
-1.57241e-06
4.54632e-07
2.35062e-05
1.79475e-05
4.07443e-05
-5.25341e-05
-2.32184e-05
4.57154e-06
-3.36103e-06
-3.23541e-06
-4.37015e-05
-8.84923e-05
-2.95692e-05
2.1432e-05
2.95654e-05
3.15969e-05
1.59929e-06
-1.1653e-06
-7.68424e-06
-1.22569e-05
5.06364e-05
1.65678e-05
4.61174e-05
-1.9942e-05
-1.45179e-05
2.59907e-05
7.48483e-06
-1.25352e-05
-3.09367e-05
-1.14691e-05
1.19129e-05
-7.74208e-06
6.54554e-05
2.34782e-05
-4.46301e-05
-4.80184e-05
3.49125e-05
4.59314e-05
6.3946e-05
2.24258e-05
-3.69145e-05
3.23701e-05
4.21229e-05
3.05899e-05
-3.8102e-06
-5.10629e-06
-1.07837e-06
3.60237e-05
-2.85667e-05
-5.67934e-05
-3.16124e-05
-5.35144e-05
-4.45696e-05
3.65513e-06
-8.95841e-05
4.19744e-07
9.84281e-06
5.42039e-06
5.34958e-05
3.83873e-05
2.86164e-05
6.93237e-05
-1.7084e-08
3.45828e-06
-4.00347e-05
-1.71924e-05
-1.03207e-05
-3.24405e-05
7.39165e-07
2.43397e-05
-2.67962e-05
2.06633e-05
3.45969e-05
4.18735e-05
7.47621e-05
1.64754e-05
7.12111e-05
8.53012e-05
4.81787e-05
2.35245e-05
3.49028e-05
-3.72368e-05
-4.85452e-06
-2.77007e-05
-2.44498e-05
-3.4776e-05
-1.39931e-05
-4.6507e-05
-3.51096e-05
-4.21882e-06
-7.73373e-06
-8.23385e-06
6.2278e-06
4.80998e-05
1.11986e-05
-6.01615e-06
5.54136e-05
2.89823e-05
-4.08734e-05
-2.83121e-05
-6.43158e-05
-2.58723e-06
-4.27444e-06
-3.68176e-05
5.43142e-06
5.758e-05
-2.45426e-05
-5.02949e-05
-1.32377e-05
-8.19788e-05
-6.68582e-05
-5.49248e-05
-4.31067e-05
1.24284e-05
9.1088e-07
-7.92483e-06
2.79673e-05
4.55385e-05
5.66677e-05
7.21202e-05
5.6123e-06
2.6291e-05
2.14788e-06
-5.05763e-05
-3.33177e-05
-9.84553e-06
5.41761e-05
4.21934e-05
7.03203e-05
0.000108023
0.000106617
5.00128e-05
0.000195327
0.000373052
0.000506227
0.000773975
0.0013223
0.00209618
0.00322125
0.00495337
0.00792898
0.012338
0.0184279
0.0285582
0.0451267
0.0684474
0.10116
0.158664
0.24745
0.365864
0.542475
0.857755
1.31003
1.91504
2.87788
4.54937
6.83131
10.0395
15.3017
24.0413
35.9326
53.7287
82.6668
129.213
194.647
296.772
458.542
715.048
1087.86
1673.95
2565.37
3934.14
5846.43
8567.51
11792.5
14834.9
13271
-1160.87
-59336.2
-205483
-606823
-1.2553e+06
1.05409e-05
1.76894e-05
-1.15423e-05
3.88106e-06
3.32665e-06
-2.31337e-05
5.39442e-06
-4.37084e-05
2.98583e-05
2.71175e-05
7.86111e-06
3.47858e-05
-1.81585e-05
1.72564e-05
-4.50604e-06
-1.83359e-05
1.73402e-05
6.90805e-06
-4.28059e-05
-2.85621e-05
1.02585e-05
3.41517e-05
-7.38653e-06
-2.04978e-05
-9.68211e-07
3.87296e-05
1.22072e-05
3.85939e-05
1.82974e-06
-5.38697e-05
-1.36155e-05
4.99319e-05
8.98528e-06
4.57992e-06
6.40771e-06
1.72837e-05
-1.63757e-05
6.36153e-07
3.78169e-05
4.07561e-05
2.99096e-05
3.05566e-06
-4.39898e-05
-4.33458e-05
1.73086e-05
5.61375e-06
-2.10941e-06
8.00011e-05
-2.3842e-05
-7.13811e-06
2.09842e-05
5.2408e-06
1.42244e-05
5.32846e-05
-1.90683e-05
-4.11109e-05
-2.44301e-05
-4.22986e-05
-2.68966e-05
1.92672e-07
-4.09534e-05
2.83921e-05
3.94713e-05
-9.05799e-05
-4.04235e-07
1.28706e-05
-1.87507e-05
-3.7767e-06
-3.03338e-05
7.0147e-06
-1.00281e-05
-4.0851e-07
-3.30724e-05
-2.35805e-05
2.25615e-06
-7.8896e-06
7.34594e-05
-6.48531e-05
-2.91457e-05
5.89033e-05
1.31674e-05
-1.94509e-05
-1.07661e-05
6.43661e-06
-8.06601e-07
2.53682e-05
1.71711e-06
1.05395e-05
4.69408e-05
-3.08518e-05
-4.68741e-05
-6.75097e-05
-3.97442e-05
-3.80354e-05
-1.49296e-05
2.09828e-05
3.57192e-05
2.9937e-05
1.38729e-05
-1.57772e-05
1.42854e-05
-4.19088e-05
1.58984e-05
4.81607e-05
6.98639e-05
4.60962e-05
1.77632e-05
-3.3474e-05
-1.08443e-05
3.7067e-05
-2.24765e-05
-5.41235e-05
-2.15744e-06
3.86064e-05
3.08984e-06
2.06764e-06
-5.89093e-06
-5.74847e-05
1.29602e-05
5.16815e-05
6.70153e-06
2.9315e-05
-3.19538e-05
-2.72546e-05
-1.26111e-05
1.02786e-05
-2.2276e-05
2.14516e-05
6.51573e-05
5.17333e-06
2.10861e-05
2.03816e-05
-2.77341e-05
-1.54927e-05
-3.92738e-05
-7.14907e-06
-3.96192e-05
3.1523e-06
-1.03562e-06
-3.06021e-05
-4.38047e-05
-7.50176e-06
3.20698e-05
4.33711e-05
9.45893e-05
2.58165e-05
-5.97768e-06
6.05237e-05
5.4248e-05
-1.97925e-05
2.74712e-05
1.35232e-05
-6.56341e-05
-3.92781e-05
-1.227e-05
2.68779e-06
-3.99813e-06
-8.48424e-05
-1.11128e-06
-4.72781e-05
-4.78167e-05
2.68638e-05
-3.66945e-05
-4.50612e-05
7.94194e-05
1.63339e-05
-2.5117e-06
6.5281e-06
2.77056e-05
5.38209e-06
-9.91422e-06
-1.92934e-05
-3.4875e-05
-1.23578e-05
-2.98595e-05
6.97301e-07
-3.51004e-05
3.0193e-05
-1.69878e-05
2.69738e-05
6.84003e-05
1.69427e-05
1.0818e-05
-2.48285e-05
2.14902e-05
1.16255e-05
-3.52194e-05
-3.56679e-05
2.56247e-05
1.02399e-05
1.03755e-06
-1.20872e-05
-1.64808e-05
1.24072e-05
1.45138e-05
2.64659e-05
-5.21277e-05
2.9569e-05
4.82454e-05
1.97259e-06
-2.51368e-05
1.17642e-05
3.32812e-05
6.72228e-05
5.40483e-07
-8.68205e-06
1.49206e-05
5.72242e-05
3.9275e-06
-5.67787e-05
-1.53608e-05
3.75756e-05
2.65286e-05
-2.46053e-06
1.34623e-05
-4.1747e-05
3.51141e-05
-2.21177e-05
-2.53203e-05
-1.57502e-05
1.53203e-05
-4.36574e-05
-2.39635e-05
-1.19941e-05
2.59692e-05
-1.75869e-05
-5.27157e-05
-4.53885e-05
-4.25386e-05
-4.87362e-06
-5.14059e-06
-1.51158e-05
-6.39213e-05
1.91295e-05
5.9749e-06
3.42309e-05
2.17954e-05
5.64627e-05
2.68679e-06
1.24099e-05
5.59581e-05
6.25188e-06
-5.49377e-06
-2.45782e-05
-1.62651e-05
1.58298e-05
1.58019e-06
2.62489e-05
5.13688e-05
0.000146629
0.000185399
0.000330599
0.000516772
0.000787061
0.00123877
0.00192358
0.00301022
0.0048476
0.00740861
0.0115605
0.0178877
0.0276164
0.0423078
0.0652854
0.100139
0.153221
0.232772
0.357376
0.543517
0.826081
1.24928
1.91179
2.89179
4.38552
6.62898
10.1426
15.3303
23.3171
35.3655
54.2861
82.4049
126.23
192.678
297.473
454.795
702.095
1077.52
1668.64
2554.47
3930.22
5952.29
8982.03
13060.4
18437.4
23154.6
24740
5514.9
-49036.3
-257931
-543776
-1.34536e-05
-4.91292e-06
-1.12122e-05
1.36444e-05
-8.67975e-07
1.0711e-05
2.27241e-05
1.35018e-05
-7.62754e-07
5.37549e-05
-1.6776e-05
-3.27865e-05
3.2173e-05
1.99797e-05
2.55561e-05
3.30061e-05
-1.21382e-05
-1.45409e-05
-4.24497e-05
-3.91589e-06
3.39935e-05
-3.36676e-05
-4.97397e-05
4.40971e-05
4.19567e-05
-5.1283e-05
-3.92554e-05
3.45954e-05
-2.37742e-05
2.61253e-05
-3.66313e-06
-2.53236e-05
-7.12011e-06
7.26081e-06
3.94608e-05
-7.15154e-06
-4.76988e-05
-6.80043e-05
-1.94702e-05
-4.58297e-05
-2.43745e-05
4.06187e-05
-7.12538e-06
2.58713e-05
4.73982e-05
5.33109e-05
2.18669e-05
2.32117e-05
3.13735e-05
-9.75172e-06
-2.16017e-05
-1.22983e-05
-4.45825e-05
1.92671e-05
-2.07335e-06
1.58085e-05
2.61287e-05
1.96376e-05
2.65812e-05
-3.58847e-05
2.84182e-05
1.26652e-05
3.93175e-05
4.76751e-06
-3.33887e-05
-2.05251e-05
-1.18114e-05
-1.48657e-05
7.07174e-06
9.27224e-06
-8.99142e-06
-6.65978e-06
1.77602e-06
3.76115e-06
2.43596e-06
7.79911e-06
6.20057e-06
-5.78456e-06
1.56075e-05
-1.2779e-05
-2.90721e-05
2.75597e-05
-2.21009e-05
-5.11977e-05
-1.83409e-05
8.19254e-06
6.02108e-07
3.96634e-05
3.08452e-05
-5.2153e-05
5.69028e-06
-2.10426e-05
-4.70411e-05
4.9307e-05
-5.69028e-06
-4.82431e-05
2.67528e-05
4.71225e-05
3.23353e-05
1.07531e-05
-3.23354e-05
-3.98737e-06
-1.40484e-05
-9.98837e-06
-2.55551e-05
-2.18893e-05
-2.72753e-05
2.18959e-05
6.75184e-05
2.54336e-05
-2.62006e-05
5.91978e-06
4.69522e-06
-3.76253e-05
-8.99694e-07
5.44948e-05
-4.64503e-06
-3.46859e-05
-2.32824e-05
1.48911e-05
9.45059e-06
5.45196e-06
5.87348e-05
-8.06055e-06
2.1416e-06
5.23026e-05
1.77556e-05
-9.07116e-06
-5.24602e-05
-3.79128e-05
-3.77988e-06
-6.80158e-05
9.40156e-06
1.31554e-05
3.94678e-06
1.47207e-05
4.40304e-05
1.68625e-05
-8.98761e-06
1.56732e-05
6.54872e-06
-1.85472e-05
1.36002e-05
-1.5129e-05
1.07135e-05
2.48938e-05
-1.68322e-05
-3.43705e-05
4.40918e-06
-1.72047e-05
1.99103e-05
3.61842e-06
-3.48103e-05
-2.08512e-05
-9.81877e-07
-6.205e-06
7.9079e-06
1.00841e-05
-1.23826e-05
-1.36701e-05
3.06729e-05
4.6472e-06
4.10895e-05
-1.05828e-05
1.77887e-06
-8.05627e-07
5.9215e-05
-7.07169e-06
-3.19283e-05
-3.42746e-05
5.44933e-06
2.99832e-05
-8.97714e-06
-2.15028e-05
-1.66672e-05
-3.94182e-05
6.47594e-06
5.66973e-06
3.81434e-05
6.54489e-06
-1.49048e-05
-8.68548e-06
-1.63627e-05
-1.44205e-05
-2.92195e-05
1.43454e-05
-3.14993e-05
-9.64506e-05
2.38814e-05
1.53158e-05
-6.12081e-06
-3.60528e-05
-6.6968e-06
-1.1987e-05
3.45867e-05
-1.15606e-05
2.15632e-05
4.84063e-06
3.38361e-05
-7.6642e-07
-2.3688e-05
6.27584e-06
2.58437e-05
-2.47287e-05
-3.19657e-06
3.65932e-05
-5.00265e-06
3.18409e-05
6.78054e-05
4.73495e-05
6.55666e-05
5.81565e-05
1.69335e-05
-1.9212e-05
6.99055e-05
1.25626e-05
-3.73519e-06
2.19859e-05
-2.7646e-06
-2.39608e-05
-3.68333e-05
-3.49431e-05
-8.77574e-05
1.38219e-05
3.21643e-05
3.05996e-05
-1.05601e-05
-5.29743e-05
-5.18253e-05
2.89574e-05
-3.9545e-05
-2.98861e-05
-1.05345e-05
-7.85794e-06
-2.0412e-05
-4.26785e-05
-2.5035e-06
3.90723e-05
1.87371e-06
-3.49425e-05
2.78762e-05
-9.21915e-07
5.53518e-06
-2.71904e-05
6.56345e-07
3.01328e-05
2.12248e-05
-3.57489e-05
6.34719e-05
0.000131731
0.000124546
0.000285146
0.00045506
0.000793938
0.00113048
0.0018353
0.00280889
0.00433831
0.0067909
0.0105747
0.0164307
0.0254762
0.0392713
0.060737
0.0931911
0.143417
0.21927
0.336219
0.511909
0.783556
1.19071
1.81717
2.75475
4.20512
6.37198
9.71392
14.7165
22.4813
34.1002
52.1241
79.2152
121.495
185.114
284.495
434.737
670.35
1026.69
1584.89
2428.29
3743.67
5705.47
8710.58
13008.2
19280.5
26935.3
36502
38431.3
33769.8
-58053.5
-125185
-1.10932e-05
-9.95849e-06
-1.12981e-05
-5.67586e-06
1.52738e-05
-8.1233e-06
3.48344e-05
3.53371e-05
-4.63525e-05
-1.71566e-05
3.72759e-05
4.11592e-05
1.11515e-05
1.43709e-05
-3.05333e-06
1.32009e-05
-3.08553e-05
-5.54529e-06
6.9267e-06
-2.78225e-05
-3.65362e-05
3.7956e-05
4.69315e-05
-4.57382e-06
-2.48191e-05
-5.5878e-06
-1.66431e-05
8.00121e-06
-1.18132e-05
-9.21365e-06
-1.59878e-05
8.60584e-06
3.44968e-07
-6.21236e-05
-1.19933e-05
-1.13984e-05
-3.8741e-05
8.94681e-06
-2.15019e-05
-4.0395e-05
3.18693e-05
-1.36298e-06
-9.09339e-06
5.68618e-05
-5.27584e-05
-4.01062e-05
-4.68883e-05
-3.44351e-05
-1.7767e-05
6.64718e-06
-1.62352e-05
-3.312e-05
1.14083e-05
3.14922e-05
-1.53738e-05
-3.88245e-06
3.63656e-06
1.87573e-05
5.26633e-05
1.56676e-05
2.62708e-06
2.69768e-06
3.87445e-05
3.29335e-05
2.67096e-05
4.55859e-05
8.5209e-06
-9.89732e-07
-3.41716e-06
-2.90893e-05
2.87684e-05
1.35895e-05
2.80847e-05
3.32586e-05
3.68414e-05
-5.88814e-05
-2.95213e-05
-1.67059e-05
7.08121e-05
8.50769e-06
3.55001e-05
1.04371e-05
6.44617e-05
9.33655e-05
3.61717e-05
1.86688e-05
-1.46724e-05
1.2066e-05
-6.55156e-05
-2.43088e-05
-3.01201e-05
-4.67221e-05
-1.93308e-05
1.66635e-05
-2.59364e-05
2.47646e-05
5.10137e-05
-7.8748e-06
-7.80458e-06
3.443e-05
-2.11231e-05
-1.62596e-05
-1.37291e-05
-3.0018e-05
-8.65769e-05
-3.9568e-05
-3.84047e-05
-1.51246e-05
-1.73973e-05
5.94685e-05
3.32381e-05
-3.38715e-05
-4.44452e-05
-9.32828e-06
3.21569e-05
4.7317e-05
4.60455e-05
2.34271e-05
-1.88031e-06
1.43635e-06
7.03358e-06
-2.56725e-05
-2.01151e-05
-2.6743e-05
-2.98898e-05
-1.1696e-05
-2.55218e-05
1.95996e-05
-1.36256e-05
3.02522e-05
7.27869e-06
2.82241e-05
-6.95937e-07
-2.46275e-05
1.30569e-05
1.09597e-05
2.17541e-05
-3.98973e-05
-4.66782e-06
-1.29905e-05
-1.29382e-05
-2.65724e-05
4.72377e-05
-4.70706e-05
3.68702e-06
3.05034e-05
-2.63108e-05
-1.21749e-05
-2.7801e-05
-6.26478e-05
2.56359e-05
2.7562e-05
-3.71442e-05
3.12822e-05
5.46615e-05
-6.77912e-05
-1.62863e-05
-5.13827e-05
7.14802e-06
-3.85536e-05
-1.90365e-05
-3.33214e-05
-2.81308e-05
-3.29755e-05
-1.49022e-05
1.45479e-05
-3.58364e-05
-1.85084e-05
-1.72319e-05
1.95653e-05
-2.76058e-06
1.62524e-05
-2.1676e-05
7.08821e-06
-5.36098e-05
-4.27453e-06
1.75687e-05
-2.12191e-06
-1.07552e-05
1.13858e-06
-1.03885e-05
-2.20334e-05
-2.83915e-05
-2.02131e-05
1.81229e-05
6.333e-05
5.79939e-05
3.42969e-07
8.4991e-06
-3.25459e-06
6.52663e-06
-3.35133e-06
5.1743e-06
1.24345e-06
1.83708e-06
-3.32361e-05
-6.72619e-05
-2.96361e-05
-8.74236e-06
-1.09155e-05
-1.34669e-05
2.75151e-05
-5.94017e-06
-1.01808e-05
-2.51514e-05
2.94074e-05
-2.50089e-05
-4.43675e-05
4.54947e-05
4.9318e-05
-1.59734e-05
1.88205e-05
-5.77039e-05
4.22896e-05
6.86444e-05
-1.57014e-05
-4.7649e-06
-1.54212e-05
-3.43676e-05
3.81097e-05
8.00058e-05
5.33402e-06
2.33157e-05
-1.29163e-05
1.59888e-06
6.59336e-05
1.09894e-05
-5.30158e-05
-3.15312e-05
1.21002e-05
-2.55228e-05
-1.86852e-05
9.50786e-06
3.87412e-05
6.81131e-05
1.01578e-05
-1.78932e-06
-7.67357e-06
1.82292e-05
2.55675e-05
1.30454e-05
-3.13325e-05
1.68657e-05
3.613e-05
-4.79518e-05
3.3163e-05
6.87203e-05
2.81255e-05
5.01131e-05
0.000105152
0.000155647
0.000242411
0.00040779
0.000657092
0.000960157
0.00156856
0.00238968
0.00378595
0.00591608
0.00930214
0.0145848
0.0226754
0.0350244
0.0543292
0.083683
0.129204
0.198156
0.304939
0.466105
0.714817
1.0896
1.66752
2.5364
3.87522
5.88512
8.98633
13.6402
20.8246
31.6139
48.3111
73.4171
112.337
170.988
262.167
399.851
614.251
938.625
1444.29
2208.97
3398.55
5186.37
7946.41
11997.7
18133.8
26423.5
38578.6
49525.5
66800.7
36415.4
77077.3
-2.39657e-07
2.78332e-05
4.03467e-05
-2.43427e-05
-4.6463e-05
-1.04214e-05
-1.12411e-05
-1.35579e-05
-2.1765e-05
2.95967e-05
-2.2315e-06
3.25764e-06
1.27241e-06
6.80545e-05
3.08563e-05
9.4493e-07
-2.49902e-05
2.79999e-05
-2.47687e-05
5.31982e-06
2.04172e-05
1.35794e-05
-7.35192e-06
5.91905e-06
1.32458e-05
-5.52434e-06
-4.61072e-06
9.70214e-07
-2.64054e-05
5.38717e-06
9.55501e-06
-4.60851e-06
1.14578e-05
-3.36382e-06
-3.87456e-05
-6.12431e-06
-6.64312e-05
-4.4651e-05
2.03807e-06
3.14113e-05
-3.1445e-05
6.22588e-05
3.55068e-05
-2.22464e-05
-2.01911e-05
-7.43966e-06
-4.50546e-05
1.32669e-05
3.87414e-05
5.01578e-05
1.49576e-05
-2.55017e-08
1.84023e-05
-7.71846e-06
5.75005e-06
2.96392e-05
3.71039e-05
5.83959e-05
7.89877e-05
-4.38725e-06
-3.36174e-06
-3.30961e-06
-4.83648e-05
-2.58055e-05
-1.1677e-05
7.87367e-06
-3.86123e-05
-1.65416e-05
-1.22683e-05
3.31457e-06
-7.97171e-05
-2.80231e-05
2.36301e-07
-1.84295e-05
-8.79332e-06
2.70287e-05
4.57869e-05
5.34395e-05
1.28923e-05
-3.30392e-05
-3.0353e-05
-1.31041e-05
3.73343e-06
9.77278e-06
4.59463e-05
-1.60967e-05
1.25017e-05
3.46535e-05
2.1689e-06
1.97434e-05
4.61513e-05
4.28165e-05
-2.05464e-05
-5.10181e-05
-1.89039e-05
-5.51791e-05
3.06118e-05
-7.65337e-06
-5.47605e-05
-2.44428e-05
-3.29686e-05
3.99829e-06
6.31208e-05
2.65508e-05
1.18742e-06
3.01035e-05
6.86687e-06
4.34628e-06
-6.86687e-05
-2.24905e-05
-1.12357e-05
-4.65926e-05
-6.69806e-06
-1.70901e-05
-4.44965e-05
-2.32641e-05
-2.13186e-05
-2.51228e-05
-4.69708e-05
-2.53641e-06
3.45215e-05
-2.9812e-05
-8.6246e-06
2.98671e-05
-8.44866e-06
-2.73893e-05
-4.09973e-06
1.39548e-05
-7.54033e-06
-3.24673e-05
-4.06842e-05
6.24805e-06
1.69295e-05
9.58534e-06
-3.90073e-05
-7.86135e-05
-2.81029e-05
7.74091e-06
-6.52957e-05
-7.17846e-06
-2.42608e-05
4.11517e-05
4.96776e-05
2.98348e-05
-4.78433e-05
1.65958e-06
5.81262e-05
3.21683e-05
-1.70325e-05
1.7942e-05
-1.3413e-05
-3.72966e-05
-2.30218e-05
3.47178e-05
-1.09666e-05
-1.28595e-05
3.33798e-05
-3.85943e-06
-1.80384e-05
-1.31326e-05
-2.81447e-05
9.38201e-07
2.37388e-05
3.41161e-06
6.24904e-06
8.12045e-05
1.23957e-05
1.55138e-05
2.79604e-05
3.63951e-05
1.16832e-05
-2.65691e-05
-2.35084e-05
-4.42912e-07
-3.09528e-05
-2.54602e-05
-2.87594e-05
-1.51053e-05
2.91828e-05
-1.45028e-05
-1.4736e-05
-2.76818e-05
-2.58774e-05
1.38085e-05
1.52173e-05
-4.17322e-05
-4.20587e-05
1.82683e-06
-5.91628e-05
-3.89952e-05
2.2003e-06
1.68242e-05
1.27608e-05
6.09153e-05
-1.64687e-05
-2.37379e-05
1.43263e-05
7.28094e-06
2.66928e-05
-1.4037e-06
-3.41368e-05
-6.28928e-07
-2.57259e-05
-5.66095e-05
-6.49405e-05
5.93029e-05
2.11577e-05
-4.75503e-05
-2.04417e-05
3.24273e-05
-3.90078e-05
-5.32109e-05
7.75851e-06
2.05954e-05
6.82451e-06
1.01525e-05
-4.54898e-05
-3.07242e-05
1.71921e-05
-2.21183e-06
3.33721e-05
6.19319e-06
2.99836e-05
-5.86731e-06
5.06584e-06
-9.0797e-06
5.75658e-06
1.86546e-05
-1.48242e-05
-7.73061e-06
4.24353e-05
3.69742e-05
3.97208e-05
-3.98825e-05
-3.84502e-05
-1.48067e-05
2.83494e-05
-3.07074e-06
-1.14871e-05
-3.25215e-05
3.17335e-05
3.23273e-05
4.48316e-05
1.61177e-05
-1.42139e-05
2.88495e-05
1.52832e-05
4.33217e-05
3.22465e-05
6.18016e-05
0.000118004
0.000209422
0.000282039
0.000519416
0.000841695
0.00132261
0.00201896
0.00325102
0.00499629
0.00787421
0.0123179
0.0192688
0.0299296
0.0465045
0.0719664
0.111383
0.171558
0.264624
0.40608
0.624615
0.955205
1.46505
2.23495
3.42114
5.20866
7.96168
12.106
18.4918
28.1016
42.9204
65.2307
99.6837
151.607
231.911
353.108
540.855
824.577
1264.53
1929.54
2960.49
4513.67
6914.68
10481
15964.5
23699
35660.1
49202
73525.3
72294.7
154067
1.49889e-05
3.20603e-07
1.46077e-05
2.2382e-06
-8.59661e-07
5.63642e-07
-6.5073e-05
-1.99788e-05
4.76809e-05
-3.33052e-05
3.50077e-06
-9.8553e-06
-6.28031e-05
-1.29503e-05
3.39673e-05
3.57116e-05
6.24554e-06
2.99818e-05
1.93048e-05
-2.51394e-05
-1.63086e-05
3.43315e-05
-2.43515e-06
1.08945e-05
5.29346e-06
-7.14187e-06
-1.44055e-05
3.7741e-05
1.60907e-05
-3.68002e-05
-7.53925e-06
4.31206e-05
4.53364e-05
-2.56643e-05
-4.36919e-05
-2.50229e-05
2.8168e-05
2.63019e-05
2.28429e-05
-2.65431e-05
7.47653e-06
-1.99521e-05
-1.86231e-05
3.14335e-06
-3.75424e-05
-6.33073e-05
1.82885e-05
2.76276e-05
9.66898e-06
7.39586e-06
-2.79258e-06
2.7897e-05
4.86912e-05
-2.18612e-06
3.79248e-05
-7.96935e-07
1.01081e-05
4.49597e-05
5.82556e-05
-5.19803e-05
-9.29067e-06
-8.57464e-06
-2.95646e-05
-2.85907e-05
-4.98064e-05
-9.63963e-06
8.60505e-06
2.66052e-05
4.02971e-05
4.91023e-05
3.77266e-05
-4.94466e-05
-1.42429e-05
2.92655e-05
-4.15696e-05
-2.02041e-05
2.75612e-06
2.39274e-05
-5.20452e-06
1.57119e-05
3.23984e-05
-3.57895e-06
-2.4479e-05
-1.30555e-05
-9.33151e-05
-4.1708e-05
-2.62763e-05
-3.65659e-05
-2.21268e-05
1.91483e-05
-7.02144e-06
3.19556e-05
-2.01615e-05
-5.99748e-06
1.03207e-05
-2.53704e-05
-5.67783e-05
-3.25732e-06
4.33423e-06
5.11442e-05
-1.21834e-05
3.1061e-05
-9.79604e-06
-1.79571e-05
-1.03792e-06
-3.83339e-05
-2.67126e-05
-2.45919e-05
-3.84974e-05
-4.67738e-05
-2.93098e-05
-9.12046e-06
-2.22647e-05
-1.03068e-05
-5.01415e-05
-2.67614e-05
-2.96358e-05
-2.21123e-05
-1.81697e-05
-3.19539e-05
-2.05224e-06
-3.10288e-05
-5.37277e-05
1.95191e-05
-2.1834e-05
-1.5616e-05
-8.61265e-06
1.90339e-05
-1.04289e-05
1.02709e-05
-1.14265e-05
1.51109e-05
3.1817e-05
-6.81768e-05
-6.06244e-05
-3.00155e-05
-3.92459e-05
1.0649e-05
2.39482e-05
-1.7275e-05
-3.62115e-05
-6.27831e-05
-3.9027e-05
2.21265e-06
-3.05258e-05
-4.34265e-05
-2.73282e-05
-1.81923e-05
1.02596e-05
1.9218e-05
-4.02702e-05
-1.57084e-05
-1.49901e-05
-9.20223e-06
-2.07584e-05
-5.05136e-05
2.93657e-05
-7.39065e-06
-6.37262e-06
1.01643e-05
-1.0718e-05
3.64357e-05
5.60136e-06
3.16006e-06
-8.40312e-06
3.98223e-05
2.60335e-05
-6.72669e-06
-2.12724e-05
3.23967e-06
3.19901e-05
5.63653e-05
4.95827e-05
6.14416e-06
8.08186e-06
7.66275e-06
1.81034e-05
2.07683e-05
-1.88504e-05
-2.88266e-05
2.95169e-05
4.22049e-05
-4.84332e-05
1.5492e-05
3.26097e-05
6.30992e-05
7.04151e-06
4.27004e-05
-8.88265e-06
-5.54537e-05
1.2926e-05
-1.09424e-05
-2.8407e-07
-4.69718e-05
-5.78594e-06
-3.51824e-05
-2.17325e-06
-5.01761e-05
-4.20585e-05
-4.48788e-06
5.27887e-05
2.90924e-05
9.26412e-06
5.37247e-05
-1.91374e-05
-2.5696e-05
1.51992e-05
1.01679e-06
-2.54802e-05
-4.04865e-05
-3.51573e-05
9.48319e-06
-4.31635e-05
-3.38568e-05
-4.42347e-05
-1.97928e-05
2.47737e-05
-6.71316e-06
-5.32737e-05
-1.66132e-05
3.62253e-05
2.6046e-05
-1.94745e-05
4.52756e-06
-3.15937e-05
-6.17189e-05
-6.4411e-05
-5.88935e-05
-4.96649e-05
-3.56666e-05
3.24496e-05
3.22211e-05
1.19738e-05
3.7804e-05
5.31399e-05
-4.11754e-05
3.11379e-05
6.32875e-05
1.92827e-05
6.40712e-05
-2.58026e-05
-3.71176e-05
-1.87651e-05
-3.39764e-05
-7.95153e-05
-6.8592e-05
-2.73503e-05
-2.02176e-05
1.8149e-05
5.08373e-05
9.52255e-05
0.000143061
0.000279699
0.000400498
0.000645267
0.00102641
0.00168181
0.00259627
0.00405076
0.00643192
0.00998091
0.0157141
0.0244894
0.0381207
0.0591795
0.0919037
0.142142
0.219817
0.338547
0.522075
0.80137
1.2321
1.8855
2.89194
4.41482
6.75828
10.2984
15.7434
23.9598
36.5988
55.6629
85.0037
129.268
197.453
300.379
459.091
698.851
1068.9
1628.06
2491.45
3793.6
5803.63
8807.19
13449.6
20141
30708.8
43796.8
68059.5
78804.6
167112
2.59994e-05
2.52246e-05
1.6559e-05
2.95407e-06
-2.41386e-05
8.85059e-07
6.9068e-05
9.38803e-06
-3.96605e-05
-2.06247e-05
-2.85851e-05
9.32512e-06
3.87996e-05
2.65774e-05
-2.37896e-05
1.61781e-05
2.61797e-05
9.20329e-06
-1.69717e-05
-1.7274e-05
1.69208e-05
3.60976e-05
-2.78258e-05
-6.00318e-05
-2.07883e-05
-1.14189e-05
1.22301e-05
3.98516e-05
-6.8912e-06
-2.06245e-05
-1.27961e-06
-8.56858e-06
3.71075e-05
-3.58187e-05
-7.50494e-05
-6.97903e-06
-4.24814e-06
-2.55314e-05
-9.78732e-06
2.1901e-05
-1.69362e-07
3.68271e-06
-7.06053e-06
-2.10258e-05
1.65472e-05
-2.97038e-06
5.90247e-07
-1.93284e-05
-8.85551e-06
9.74314e-06
-4.89781e-05
2.00194e-05
-1.09828e-05
-1.0543e-05
-1.88805e-05
1.73313e-05
2.79653e-05
-1.7628e-05
-1.90953e-05
-3.19486e-05
-2.46123e-06
3.33527e-05
-2.71402e-05
-1.74471e-05
4.87959e-05
3.38724e-05
2.62663e-05
-1.43023e-05
-1.37191e-05
8.97179e-07
-1.71787e-05
-8.04693e-06
-2.64138e-05
-7.77114e-06
3.60758e-05
-1.28688e-05
-1.09481e-05
-6.4175e-06
2.39132e-05
3.88236e-05
3.62655e-06
-1.09784e-05
-5.28595e-06
-1.06082e-05
-8.2904e-05
-3.88649e-05
-2.1132e-05
-2.28604e-05
4.40992e-07
7.14551e-05
2.90727e-05
4.78845e-06
8.56934e-06
2.35123e-05
-1.50646e-06
1.09666e-05
1.8852e-05
-3.89703e-05
1.6818e-06
6.33043e-07
2.08266e-05
-1.21169e-05
-3.21769e-05
1.81608e-06
-7.62261e-06
-1.07393e-06
1.32757e-05
-5.113e-05
-2.0724e-05
1.2361e-05
-5.03769e-06
3.33412e-06
-4.79591e-06
-1.74775e-05
2.18338e-05
4.09872e-05
-2.82464e-05
-4.81488e-05
1.43198e-05
-7.0664e-06
5.84547e-06
-4.12085e-05
1.70774e-05
-3.84852e-05
5.61837e-06
6.23044e-05
-2.74689e-05
4.80741e-05
-2.21111e-06
1.14101e-05
6.37285e-05
7.08058e-05
-7.47134e-06
-8.36524e-06
-1.55586e-05
4.81608e-05
-5.701e-05
4.90846e-05
2.84666e-05
-2.9579e-05
-2.73158e-05
-2.62636e-05
-2.65024e-05
-5.06938e-05
-3.74598e-05
-2.89391e-05
2.80088e-05
2.2825e-05
8.08073e-06
-5.22996e-05
2.01572e-05
4.342e-05
-2.29646e-05
-3.06406e-05
-2.8658e-06
2.97559e-05
-2.07277e-08
-4.16757e-06
1.5922e-05
3.73207e-05
2.36731e-06
1.3906e-05
3.36496e-05
2.29314e-05
2.17026e-06
7.67178e-06
3.18072e-06
-6.82107e-06
2.16369e-05
6.8713e-06
-2.13749e-05
2.85271e-05
3.02596e-05
-6.6965e-05
-3.23652e-05
-4.27154e-05
-2.21264e-06
-1.25852e-05
-2.32877e-06
1.70461e-05
1.51657e-05
4.87097e-05
-2.16737e-05
3.77178e-06
1.96441e-05
1.56014e-05
-1.09751e-05
-2.7787e-05
2.63086e-05
-1.94646e-05
-1.65247e-06
-5.39774e-05
-4.4332e-05
4.79533e-06
-3.25518e-05
-2.60572e-05
3.74103e-05
3.96994e-05
-3.73522e-05
8.64527e-06
-1.17362e-05
1.2886e-05
-1.05808e-05
-1.98905e-06
1.84803e-05
6.4063e-06
6.06809e-06
1.05541e-05
2.68507e-05
-2.33254e-05
-5.51555e-05
-7.03887e-06
-9.97653e-05
-1.29466e-05
3.20763e-05
-3.27202e-05
-4.46536e-05
4.20594e-05
2.81134e-05
-4.79197e-05
-3.37886e-05
-6.52987e-07
-3.09134e-05
-2.76986e-05
6.49923e-05
-2.36317e-05
-4.70867e-05
-4.72958e-05
-6.93238e-05
-8.81557e-05
-3.91761e-05
-4.94121e-05
-4.02209e-05
-7.72107e-06
1.12844e-05
-1.13475e-05
-6.32674e-05
-9.30712e-06
1.02053e-05
2.14154e-05
-1.53015e-05
7.30081e-06
7.54348e-06
2.54003e-05
5.11237e-06
-3.80486e-05
3.01947e-05
-1.15834e-05
4.65813e-05
5.82657e-05
4.47231e-05
0.000105572
0.000226449
0.00037517
0.000485576
0.000830687
0.00130874
0.00197035
0.00314565
0.00493881
0.00773033
0.012176
0.019058
0.0298403
0.0465307
0.0725345
0.112575
0.174595
0.269961
0.41745
0.643022
0.991322
1.52202
2.33991
3.58245
5.49466
8.39323
12.8495
19.5928
29.9542
45.6159
69.6778
106.028
161.888
246.268
376.003
572.01
873.564
1329.18
2030.58
3088.92
4719.74
7164.16
10948.5
16467
25256.9
36654.3
57942.7
72185.4
151736
-5.46999e-06
-1.18557e-05
3.56342e-05
-4.09003e-05
-2.7198e-05
-3.92884e-06
4.6176e-05
2.18916e-05
4.52939e-05
-1.4313e-05
-2.27647e-05
1.20138e-05
3.9762e-05
-1.56156e-05
4.91817e-05
-2.59746e-05
-3.35821e-05
-3.93713e-06
3.44954e-05
7.74755e-05
4.05144e-05
-3.18775e-05
1.95228e-05
6.55667e-05
-2.77726e-05
-6.6519e-06
2.99822e-05
-5.04801e-05
-2.63526e-05
2.06575e-05
3.39907e-05
4.75329e-05
5.84006e-06
-2.84565e-05
2.24163e-05
-4.30863e-06
1.24368e-05
1.08765e-05
-7.13201e-05
1.81088e-05
5.72646e-05
-3.52794e-05
1.79903e-05
3.24659e-05
3.48423e-05
-1.51415e-05
7.33725e-06
7.24428e-06
-8.36664e-06
4.04514e-05
-2.75632e-05
-6.35003e-05
-6.18057e-05
-2.70066e-05
-3.83519e-05
-9.44345e-06
2.513e-05
-6.71603e-06
8.26067e-07