/*--------------------------------*- C++ -*----------------------------------*\
| =========                 |                                                 |
| \\      /  F ield         | OpenFOAM: The Open Source CFD Toolbox           |
|  \\    /   O peration     | Version:  2412                                  |
|   \\  /    A nd           | Website:  www.openfoam.com                      |
|    \\/     M anipulation  |                                                 |
\*---------------------------------------------------------------------------*/
FoamFile
{
    version     2.0;
    format      ascii;
    arch        "LSB;label=32;scalar=64";
    class       volScalarField;
    location    "0.001";
    object      ddt0(rho,K);
}
// * * * * * * * * * * * * * * * * * * * * * * * * * * * * * * * * * * * * * //

dimensions      [1 -1 -3 0 0 0 0];

internalField   nonuniform List<scalar> 
180000
(
-1.50489e-05
-4.04186e-05
-8.33417e-05
-3.8063e-05
1.80769e-05
1.25912e-05
2.12761e-05
2.15131e-05
1.8019e-05
8.217e-06
1.38261e-05
3.51337e-05
4.87933e-05
3.24585e-05
3.61655e-05
2.16022e-05
2.20491e-07
-2.85097e-05
-8.21508e-06
-2.06142e-05
-3.69275e-06
-5.51183e-06
1.09598e-05
-1.86392e-05
2.60191e-05
3.66943e-05
5.61561e-06
-1.12142e-05
-1.3767e-05
-4.21407e-05
-2.458e-05
-1.6545e-05
-6.7597e-06
4.1876e-05
6.61021e-05
5.12925e-05
1.64428e-05
9.87306e-06
-3.23222e-05
-3.97966e-05
-9.90233e-06
-1.57658e-06
-1.06907e-05
1.04516e-05
6.69031e-06
-4.6386e-05
-1.77749e-05
5.27349e-05
-1.6691e-05
-1.28794e-05
2.92845e-06
2.94253e-05
-3.70011e-05
-2.21663e-06
3.61683e-05
-6.72003e-06
-5.35811e-06
9.08801e-06
-1.44439e-05
-1.36585e-05
-3.11907e-05
2.8184e-05
-2.90613e-06
-5.80342e-05
-5.03122e-05
-3.63696e-06
2.93996e-05
-5.41634e-06
-2.45545e-06
-3.27248e-05
-1.74181e-05
-5.11508e-05
-3.01025e-05
-3.55488e-05
-6.36481e-05
-4.618e-05
1.08179e-06
8.17088e-06
-1.68177e-06
3.60232e-06
-1.63865e-05
2.21932e-05
1.34253e-05
-7.34655e-06
2.0065e-05
-7.81748e-06
-1.55486e-05
-2.12234e-05
-3.4085e-05
4.84127e-06
5.02542e-05
3.53475e-06
2.23056e-05
7.82253e-05
3.35793e-05
-3.45484e-05
-1.16526e-05
-3.58823e-05
-2.92319e-05
-9.47006e-05
1.38579e-06
-8.31929e-06
7.55657e-05
5.57626e-05
4.47116e-05
1.41212e-05
-2.91402e-05
1.08641e-07
-5.51932e-05
2.30292e-05
-1.52317e-05
4.54232e-05
3.5178e-05
5.01735e-06
-4.14507e-05
-1.44127e-05
2.47929e-06
3.89505e-05
1.72746e-05
0.000109893
5.09784e-05
4.58341e-05
3.82722e-05
-7.76527e-06
2.67514e-05
8.00473e-06
-3.70125e-07
-2.46793e-05
-5.40244e-05
-3.66625e-05
4.10204e-06
3.96284e-05
3.03487e-05
-2.76392e-06
1.59456e-05
3.15613e-06
2.04174e-05
2.59631e-05
2.41472e-05
-3.29994e-05
-9.2216e-06
-1.74349e-05
-2.61191e-05
-8.41272e-05
-2.98866e-05
-1.55969e-05
-4.14738e-05
-2.35773e-05
-1.97646e-05
-5.4898e-05
1.97335e-05
-3.62877e-06
-5.42702e-05
-7.37068e-05
-6.96421e-05
-3.42981e-05
5.12695e-05
3.66301e-05
3.29028e-05
3.53307e-05
8.1774e-05
9.08467e-05
9.80634e-05
5.34237e-05
3.85317e-05
6.9825e-05
-9.48362e-07
1.91807e-05
-1.19911e-05
-4.09549e-05
-1.60072e-05
-5.62302e-05
3.38873e-05
5.25746e-06
4.01668e-05
-1.50913e-05
-2.26613e-05
1.76966e-06
-1.04238e-05
-1.39432e-05
5.34505e-06
2.49315e-05
3.68434e-06
6.99158e-06
4.46479e-06
-3.39818e-05
2.38819e-05
-4.7131e-06
2.71328e-05
7.96102e-05
7.48039e-05
6.02258e-05
8.30398e-05
1.20707e-05
1.81123e-05
-7.10736e-06
-6.2074e-06
-2.53916e-06
3.31907e-05
1.38262e-05
7.53283e-05
3.85407e-05
5.43857e-05
3.17311e-06
-1.93944e-05
-1.6382e-05
1.97594e-05
4.88002e-05
1.3736e-05
7.3113e-06
7.28158e-06
2.61298e-05
3.57549e-05
3.05438e-05
-2.18722e-05
-1.73372e-05
-3.94144e-05
-5.74984e-05
1.00087e-05
5.9932e-05
-9.47625e-06
5.51343e-06
5.45815e-05
5.9898e-05
6.48026e-05
2.5598e-05
-1.57685e-05
-2.22251e-05
-7.27856e-05
2.50107e-05
6.76352e-06
-6.04925e-06
-1.85242e-05
8.0326e-06
3.94441e-05
4.89031e-05
9.50297e-06
3.50044e-05
3.30388e-05
2.41776e-05
1.14487e-05
2.68641e-05
-4.7897e-05
-5.07295e-05
-1.79268e-05
-1.31617e-05
-8.80924e-06
-4.28846e-06
-7.8054e-06
1.42096e-05
-1.41136e-05
-6.73709e-05
-4.95951e-05
-1.38427e-05
-9.50969e-06
9.99362e-06
0.00013773
0.000211804
0.000421456
0.000637496
0.00102919
0.00168643
0.00261184
0.0041717
0.00662099
0.010581
0.0166906
0.0263379
0.041533
0.0658541
0.104191
0.165513
0.263477
0.421343
0.675342
1.08631
1.75092
2.82928
4.57474
7.40684
11.9804
19.3881
31.3049
50.5421
81.3229
130.779
209.33
334.705
531.359
839.897
1307.02
2003.8
2946.21
4107.95
4793.7
3586.91
-5831.37
-31857.4
-110013
-234755
2.15082e-05
2.65639e-05
2.21766e-05
-2.9151e-05
5.74768e-06
7.78584e-07
-2.00826e-05
-3.92865e-05
-6.77663e-05
-5.33374e-05
-6.38962e-05
-3.25667e-05
-5.0124e-05
-1.78259e-05
-3.00846e-05
5.38949e-07
5.44136e-05
3.94176e-05
3.41797e-05
7.36203e-06
8.015e-06
3.70598e-05
6.09468e-05
3.84658e-05
5.79109e-05
-1.63326e-05
-5.29793e-06
2.86153e-05
-3.5541e-05
-5.06055e-06
3.1053e-05
0.000107642
0.000104307
0.00010422
8.07825e-06
5.69843e-05
2.994e-05
4.10549e-05
2.82592e-06
3.29417e-05
5.43481e-06
-1.46822e-05
-1.75536e-05
-1.60264e-05
-1.54718e-05
-2.17905e-05
3.05468e-05
-4.01359e-05
2.75566e-07
-9.76743e-06
-1.37169e-05
-5.71112e-06
-3.51071e-05
-3.18592e-05
-1.55609e-05
-3.51042e-05
-3.71024e-06
2.51587e-06
-2.9673e-05
-4.02554e-05
-2.28171e-05
-4.40882e-05
-5.68065e-06
-1.68503e-05
7.14344e-06
-1.42917e-06
-3.75641e-05
-2.99948e-05
-3.04438e-05
-3.20951e-05
-2.63779e-05
-4.20796e-05
-0.000117222
-8.56321e-05
-6.99462e-05
-5.54139e-05
-5.24819e-05
-3.01816e-05
-3.41016e-05
-1.3179e-05
-1.17725e-05
6.66666e-05
2.66199e-05
3.41301e-05
4.19585e-05
3.91358e-05
1.0315e-05
2.30364e-05
4.3853e-05
2.60093e-05
-3.14688e-05
2.93048e-05
5.63362e-05
2.98223e-05
1.13469e-05
1.0919e-05
-1.61905e-05
-5.0841e-05
-2.51142e-05
-2.28152e-05
-3.11121e-05
-7.50728e-05
-5.47231e-06
-2.07799e-05
-8.51782e-06
2.06763e-07
-3.33179e-05
2.92276e-05
3.35822e-06
-4.01853e-05
1.38973e-05
-8.28475e-06
-3.09226e-05
2.19644e-06
1.36419e-05
3.83208e-05
1.74625e-05
1.54516e-06
3.3391e-05
3.77995e-05
5.19132e-05
1.09754e-05
-1.36075e-06
3.28824e-05
6.75124e-05
2.80086e-05
7.30564e-05
4.18975e-05
-3.62471e-06
7.15414e-06
4.90315e-05
-4.35885e-06
2.9892e-05
4.40845e-05
3.90078e-05
-4.82908e-06
1.66596e-05
1.01501e-05
-3.86697e-05
-1.29911e-05
1.04927e-05
-1.96357e-05
1.77187e-05
1.64623e-05
5.76523e-05
7.10703e-05
6.83614e-06
-1.58655e-05
3.97238e-05
3.56527e-05
5.7328e-05
1.32494e-05
-6.93258e-05
-4.99563e-05
-2.8601e-05
-3.62895e-05
-0.000106821
-7.2901e-05
-3.80079e-05
-3.56105e-05
4.61605e-06
-2.56161e-05
3.5634e-07
-1.05585e-05
3.11438e-08
-2.9701e-06
-1.95976e-05
-4.90627e-05
-1.43726e-05
7.11532e-06
1.75692e-06
-3.66547e-05
-2.62928e-05
2.87118e-05
3.32402e-05
7.89832e-05
5.12491e-05
6.75248e-05
3.03713e-05
0.00010815
7.84269e-05
3.56199e-05
4.00636e-05
3.32719e-05
4.77214e-05
1.43422e-05
1.02758e-05
5.13396e-05
3.17493e-05
9.16451e-05
2.2535e-05
7.09795e-05
3.42108e-05
4.26393e-05
5.01424e-05
3.15429e-05
4.77166e-05
1.85427e-05
-2.48019e-05
-4.80529e-05
-5.8281e-05
-2.39187e-05
-2.3318e-05
-2.65474e-05
-7.88766e-06
-5.02721e-05
-2.86591e-05
-2.96954e-06
2.32808e-05
7.54563e-05
5.91641e-05
1.76369e-05
4.53482e-05
2.21512e-05
-3.5466e-05
1.24311e-05
2.03297e-05
2.4818e-06
5.89957e-06
-5.13324e-05
-5.878e-05
-6.42361e-05
-6.74265e-05
-6.126e-05
-1.90288e-05
-1.60274e-05
2.56978e-05
9.44932e-05
5.61134e-05
2.07806e-05
4.7474e-05
4.52193e-05
4.26572e-05
2.72649e-05
-1.14909e-06
-2.5705e-05
1.28765e-05
-5.34203e-05
-5.85546e-06
-2.16732e-05
-2.84127e-05
-7.25333e-05
2.02708e-06
4.22169e-05
8.99691e-05
1.97264e-05
1.16774e-05
1.2124e-05
5.19262e-05
4.77582e-05
4.77242e-06
1.57326e-05
-6.68683e-07
9.54634e-05
-6.20521e-06
4.9534e-05
0.000125525
0.000160708
0.000380152
0.000637404
0.00102665
0.00158245
0.00254167
0.00402167
0.00650163
0.0102701
0.0162014
0.0256796
0.0404556
0.064029
0.101347
0.160876
0.25569
0.408187
0.653014
1.04834
1.68581
2.71835
4.38581
7.08792
11.4458
18.4987
29.84
48.1498
77.4687
124.632
199.72
319.861
509.414
809.176
1271.61
1979.8
3006.03
4438.37
6063.64
7311.63
5153.31
-4916.03
-41035.6
-103895
-1.75678e-05
-2.49614e-06
1.86182e-05
-2.51246e-05
-7.20178e-05
-4.64743e-05
-9.80108e-06
2.86212e-06
2.24793e-05
2.9861e-05
7.67263e-05
2.0569e-05
1.36318e-05
-3.62464e-05
-6.93311e-06
-2.29143e-05
-3.45473e-05
-8.76896e-07
1.84111e-05
-9.03906e-07
-4.0209e-05
3.50455e-06
-2.00818e-05
3.32698e-05
-2.37994e-05
-3.83309e-05
-4.2939e-06
2.16312e-05
4.11779e-06
-3.40295e-06
4.75519e-05
2.63189e-05
2.86284e-05
3.50012e-05
-1.08734e-05
-5.87932e-07
8.84421e-06
4.33622e-05
7.20774e-05
4.60556e-05
4.13213e-05
2.35543e-05
3.29269e-05
2.65638e-05
5.26791e-05
5.73252e-05
4.34838e-05
-1.25874e-05
4.20037e-05
-4.27099e-06
1.45373e-06
8.67005e-06
1.99381e-05
-3.59681e-05
-3.79138e-05
1.92999e-07
-3.44399e-05
3.67526e-05
3.81937e-05
-6.82076e-07
-1.83549e-05
9.29146e-06
-1.88813e-06
6.33395e-07
7.02529e-06
2.41989e-05
1.21359e-05
-1.0621e-06
3.1979e-06
1.29063e-05
2.87641e-05
-9.60892e-06
-3.60914e-05
1.03061e-05
2.16527e-05
1.13995e-05
1.47785e-05
-9.50313e-06
-4.00118e-05
-4.99863e-05
1.56051e-05
2.39277e-05
1.09382e-05
-3.18703e-05
-1.44954e-05
-1.40099e-05
-4.24536e-05
-4.9725e-05
-8.54832e-05
-8.48363e-05
-4.77294e-05
2.26031e-06
3.83406e-05
1.35773e-05
6.46626e-06
3.11779e-05
-1.63499e-05
5.61081e-06
3.30041e-05
2.30567e-05
4.00439e-05
2.0854e-05
6.22097e-05
-1.20932e-05
-4.02616e-05
-2.72941e-05
1.85405e-06
2.31479e-06
2.57137e-05
-4.06285e-06
-3.5423e-05
-6.77832e-05
-2.33237e-05
-1.89176e-05
-2.07889e-05
4.2445e-05
5.79195e-05
1.39307e-05
-5.7513e-06
-2.39062e-05
-3.13098e-05
-3.30676e-06
-5.29674e-05
-1.15977e-06
-1.42381e-05
7.32657e-06
-5.7783e-06
4.55312e-05
3.32312e-05
-1.73873e-05
2.63291e-05
4.6681e-05
4.00361e-05
9.05945e-05
-1.58787e-06
9.2162e-06
2.97205e-05
-2.93564e-05
-1.31444e-05
-2.326e-05
-6.43405e-05
-3.89778e-05
-5.14588e-06
4.74494e-06
3.3092e-05
-1.98192e-05
1.54046e-05
-2.72677e-05
2.56316e-05
7.59959e-06
-1.27894e-05
3.53212e-05
-8.97726e-06
-3.50967e-06
1.73614e-05
5.7788e-05
3.60772e-05
-2.18299e-05
2.40805e-05
2.61579e-05
8.27021e-06
-1.72913e-05
1.81847e-05
-9.34784e-06
2.82207e-05
-2.59072e-05
-1.22984e-05
2.84443e-06
-6.75807e-06
4.42575e-05
-1.3891e-05
-3.57987e-05
-5.0621e-06
-1.04208e-05
-4.37461e-05
-1.40692e-05
-1.36265e-05
1.08618e-05
-3.86635e-05
-3.51558e-05
-4.72194e-05
-6.42973e-05
-4.4338e-05
-7.592e-05
-5.35067e-05
-8.43247e-06
-1.26327e-05
-4.00642e-05
5.28867e-06
1.3361e-05
-3.70128e-05
-2.63453e-05
-7.08737e-05
-6.34425e-05
-3.37998e-05
-3.0626e-05
-3.39398e-07
-1.02925e-06
-1.23689e-05
-6.81065e-05
-6.4763e-05
-6.95497e-05
-5.0037e-05
-6.5753e-05
-6.15417e-05
-3.42371e-05
-5.91106e-05
-5.04216e-05
5.87589e-06
1.73234e-05
-4.12417e-06
-2.48895e-05
-1.91217e-05
-3.10492e-05
-5.7243e-05
-3.84416e-05
-2.89065e-05
-2.51548e-05
5.20608e-06
-4.09427e-05
4.36119e-05
2.89711e-05
5.42783e-06
2.19227e-05
5.57019e-05
5.62219e-05
3.9067e-05
3.81829e-05
5.53151e-05
2.46095e-06
-4.66608e-05
-3.23606e-06
5.98101e-06
-3.30332e-05
1.09488e-05
-8.4508e-06
1.77363e-05
5.08723e-05
5.8924e-06
-3.96089e-05
-8.12881e-07
7.015e-06
1.52546e-05
-2.49739e-05
1.55352e-05
1.12671e-05
5.82394e-05
1.32185e-05
5.53077e-06
4.58294e-05
1.76626e-05
9.07353e-06
5.5889e-05
4.7146e-05
1.44089e-05
0.000124706
0.000215659
0.000254815
0.000421124
0.000629117
0.000974226
0.00150876
0.00239586
0.00382794
0.00606533
0.00969417
0.0153244
0.0242545
0.03812
0.0603812
0.0952873
0.151077
0.239697
0.381566
0.60838
0.973532
1.55988
2.50681
4.03029
6.49284
10.4526
16.8483
27.1096
43.6508
70.1012
112.615
180.287
288.604
459.83
731.721
1154.9
1813.82
2798.72
4262.42
6192.01
8595.51
9785.71
8531.56
-7566.07
-29905.9
1.44336e-05
7.93366e-06
-1.15891e-05
-3.22769e-05
-3.12298e-05
1.19085e-05
5.50191e-06
1.23971e-05
-1.16994e-05
-3.24268e-05
-5.9919e-05
-2.57973e-05
-4.7244e-05
-6.95235e-05
3.9614e-05
3.71999e-05
3.1335e-06
1.97858e-06
-1.68446e-05
-2.89618e-05
-8.00176e-06
-1.48345e-05
-5.66788e-05
-6.90079e-05
-3.41201e-05
-4.69788e-05
7.86945e-06
-3.68745e-05
-1.44939e-05
5.50467e-05
8.97483e-06
5.3957e-06
1.54276e-05
-1.12276e-05
-2.28109e-06
-1.97217e-05
-4.20995e-05
-6.83364e-05
-8.98665e-05
-2.51128e-05
-1.90348e-05
-4.29969e-05
-3.5961e-05
1.35698e-05
-2.33387e-05
1.04346e-05
-2.20892e-05
-1.93651e-05
-5.92928e-05
-3.91796e-05
-3.84087e-05
-2.07102e-05
-1.60046e-05
-3.99559e-05
-3.93091e-05
-1.09893e-06
-1.32752e-05
-5.07608e-08
-3.02918e-05
2.4109e-05
3.06121e-05
-1.4244e-05
4.1255e-05
1.93019e-05
2.65422e-05
5.07442e-05
4.45932e-05
2.66028e-06
1.90551e-06
2.24348e-05
3.98616e-05
0.000100534
9.3394e-05
8.67639e-05
2.28469e-05
-2.13332e-05
2.90379e-05
1.26879e-07
-2.10504e-05
1.17537e-05
-2.83374e-05
-1.76768e-05
-1.5963e-05
5.31414e-06
-1.59462e-05
-3.09352e-05
-8.74574e-05
2.89771e-05
-3.44242e-05
-6.5086e-05
-5.7775e-05
-1.02224e-05
-4.28425e-05
7.16499e-06
-6.79184e-06
-2.2009e-05
-1.94034e-05
-1.75943e-05
-4.77821e-05
7.23312e-06
-4.55871e-05
2.5387e-05
3.23688e-05
4.78092e-06
1.76962e-05
1.16097e-05
-8.15687e-06
-1.79399e-05
-3.36745e-05
-3.12615e-05
1.17881e-05
5.25707e-05
3.61175e-05
1.34482e-05
-3.62715e-05
9.50753e-06
1.57377e-05
-2.33781e-05
-5.67291e-05
-7.77075e-05
-4.9376e-05
-3.2464e-05
-4.31875e-05
-1.9021e-05
8.94139e-06
-4.67535e-05
-2.59703e-05
1.60573e-05
-2.29965e-05
-3.01324e-06
-3.51399e-05
5.48351e-06
-2.03746e-05
-2.2063e-05
6.47301e-05
1.44034e-05
7.81955e-05
5.85427e-05
4.7657e-05
3.68613e-05
2.67391e-05
-4.03898e-06
1.92757e-05
3.48066e-05
-1.56613e-06
-1.92531e-05
5.25581e-05
3.35837e-05
-1.06339e-05
2.00811e-05
3.93501e-05
-2.90979e-05
-7.19739e-06
-4.22661e-05
2.37118e-05
6.21688e-05
6.42847e-05
5.11736e-05
2.59697e-05
1.44435e-05
4.65485e-05
4.57685e-05
-4.54597e-07
2.01535e-05
2.01786e-05
-1.97352e-07
-2.23492e-05
-4.64356e-07
6.06846e-05
5.58154e-07
3.14413e-06
-2.13309e-05
-3.11691e-05
-2.01116e-05
-4.31391e-05
3.8795e-05
5.9703e-05
5.46301e-05
7.8105e-05
8.41721e-05
4.72019e-05
9.49776e-05
7.42994e-05
8.11539e-05
0.000107486
1.00156e-05
1.73206e-05
-8.37394e-06
-3.77742e-05
-1.10468e-05
-5.08357e-06
1.53047e-05
4.19988e-05
-2.15046e-05
-2.15056e-05
-2.09786e-06
-2.35356e-06
-5.4348e-06
1.98635e-05
-5.91825e-05
-1.29154e-05
-1.08199e-05
1.08337e-05
8.99833e-06
-1.33068e-05
3.11993e-05
4.92869e-05
2.34744e-05
-4.8494e-05
-1.94004e-05
1.90026e-07
1.29001e-05
-9.20987e-06
-2.0606e-05
-6.19399e-06
1.28833e-05
4.46861e-05
1.74957e-06
-2.50306e-06
-1.54248e-05
-5.3475e-05
-3.84479e-05
-1.96555e-05
-1.48759e-05
-2.28521e-05
1.99712e-05
2.90333e-05
-2.06982e-05
4.12027e-07
-7.8811e-06
4.06517e-06
-1.1468e-05
-3.02185e-05
4.90639e-05
3.03072e-05
-4.04104e-05
-2.33973e-05
-9.87158e-06
-4.66027e-05
-1.79356e-05
-3.92454e-05
-4.81045e-05
-1.82103e-05
4.86586e-06
3.38261e-05
4.64741e-06
2.00848e-05
1.64014e-05
-1.25346e-05
-3.68453e-05
8.21164e-05
4.03846e-05
5.44594e-05
1.87124e-05
6.94121e-05
7.78967e-05
0.000109569
0.000274211
0.000317968
0.000554789
0.000905492
0.00144205
0.00224017
0.00354743
0.00556259
0.00886642
0.0139506
0.022179
0.0348575
0.0551305
0.0870273
0.137794
0.218
0.346173
0.549956
0.876769
1.39879
2.23869
3.58388
5.75075
9.22126
14.8102
23.7474
38.118
61.0362
97.8008
156.223
249.646
397.342
632.284
999.766
1577.57
2457.62
3810.88
5727.5
8486.96
11241.8
14444.3
10173.7
11583.7
1.7081e-05
-1.66273e-05
1.08711e-05
-4.05507e-05
-1.51523e-05
9.30026e-06
3.54771e-05
6.9201e-05
3.08771e-05
-2.34101e-06
-9.27527e-06
-8.436e-06
-2.82787e-06
1.91654e-05
-3.34835e-05
-3.18215e-05
-1.93073e-06
3.54269e-05
-9.35687e-06
5.49378e-06
-2.99384e-05
-4.29139e-05
4.50227e-07
3.74432e-06
-2.17976e-05
-2.82365e-05
-8.64489e-06
-2.70997e-05
4.66853e-06
-1.50018e-05
-4.60468e-05
-2.29913e-05
-2.32729e-05
-2.87606e-05
-4.89529e-06
-2.90454e-05
-5.59416e-05
-4.08531e-05
1.46889e-05
3.52548e-05
-3.19147e-05
-2.62473e-05
-9.65953e-06
-1.19474e-05
-8.06712e-06
4.80126e-05
-9.62828e-06
-3.35556e-05
-2.83914e-05
-3.70042e-05
-5.02742e-05
1.08771e-06
3.11866e-05
-3.49184e-05
-1.46172e-05
-2.87558e-05
-3.228e-05
-3.97916e-06
-4.90117e-05
-2.18658e-05
-1.65064e-05
-1.11343e-05
-5.45345e-05
2.56214e-05
4.90451e-05
2.1087e-05
1.10841e-05
8.16837e-05
2.64746e-05
2.5738e-05
2.9061e-05
5.81791e-05
4.51241e-05
3.3377e-06
-1.97692e-05
4.1675e-05
-7.89897e-06
1.85779e-05
-2.85768e-05
-1.29099e-05
-8.30648e-06
2.34505e-05
-1.4248e-05
-1.15166e-05
-3.01909e-06
-6.03055e-06
5.27351e-05
3.28736e-05
1.04344e-06
2.73035e-05
1.53161e-05
1.9531e-05
5.70295e-05
2.31284e-05
4.911e-05
4.84983e-05
2.03853e-05
2.53593e-05
1.48546e-05
-2.18932e-05
-4.75918e-05
-7.8015e-05
-8.16573e-05
-4.87999e-05
-3.6192e-05
-3.86233e-05
-7.54232e-05
-6.37882e-05
-6.06985e-05
-6.49257e-05
-1.56028e-05
-5.59317e-05
2.2255e-06
3.17661e-05
3.19707e-05
3.12642e-05
-1.2971e-05
2.1561e-05
-4.26442e-05
-7.59636e-05
-2.13019e-05
2.92158e-05
1.39381e-05
-4.9887e-05
-5.32861e-05
-3.61895e-05
-3.70946e-05
-4.43236e-06
-1.63109e-05
-6.68415e-05
-2.41195e-05
-4.86004e-05
-1.76867e-05
1.29837e-05
6.74857e-05
8.04832e-05
9.65736e-05
4.06769e-05
-7.6794e-06
1.39882e-05
2.63185e-05
1.1172e-05
3.60864e-05
2.77602e-05
7.1246e-05
3.06195e-05
-3.2626e-06
-1.27256e-05
2.89692e-06
1.15069e-05
1.46191e-05
7.18968e-06
-3.19559e-05
-1.07466e-05
4.06109e-06
-6.85761e-07
-3.27845e-05
-2.34885e-05
-5.96913e-05
-1.9238e-05
-1.36535e-05
3.62257e-05
-1.99483e-05
-3.53813e-05
-7.7789e-05
-4.77866e-05
1.29773e-05
8.33757e-05
7.74624e-05
3.03665e-05
3.71823e-05
-2.95977e-05
3.17866e-05
-4.35801e-06
3.31529e-05
5.24288e-05
2.71225e-05
-9.29981e-06
2.83514e-05
-7.15774e-06
2.2443e-06
3.54054e-05
4.33507e-05
1.37718e-05
-3.86054e-05
-1.43472e-05
-3.61108e-05
-7.28847e-05
-5.95141e-05
-3.77579e-05
1.75284e-05
4.05164e-05
-3.22646e-05
2.00907e-05
-2.555e-05
-2.03695e-05
-6.85068e-06
-2.15929e-05
-3.63911e-06
2.26498e-05
3.36347e-05
2.8494e-05
8.62998e-06
-7.60648e-06
-8.0079e-06
4.91544e-05
2.77563e-05
1.84683e-05
3.54401e-05
3.9808e-05
3.28563e-05
3.59049e-05
6.86924e-05
-3.45122e-05
-2.6795e-05
-2.42391e-05
3.58375e-05
3.67513e-05
2.58323e-05
5.87396e-05
3.98779e-05
8.0279e-05
3.28323e-05
1.12113e-05
3.61122e-06
-4.23331e-05
3.98223e-06
-6.24847e-06
5.27609e-06
-6.60111e-05
-7.26221e-05
-0.000122636
-9.96658e-05
-3.833e-05
-9.0724e-05
-5.83098e-05
-4.89918e-05
-3.92536e-05
-1.48514e-05
-3.4828e-05
-3.03559e-05
-6.43905e-05
1.31032e-05
-2.54461e-05
5.56438e-05
0.000105388
7.51368e-05
3.72308e-05
5.29267e-05
3.54913e-05
5.92865e-05
4.01858e-05
4.66501e-06
7.84439e-05
5.62778e-05
0.000104364
0.000103723
0.00018492
0.000299713
0.000508853
0.000798091
0.00119495
0.00195288
0.0031217
0.00491467
0.00783714
0.012382
0.0196461
0.0310244
0.0489924
0.0773673
0.122323
0.193077
0.305802
0.484133
0.7689
1.22147
1.94631
3.10125
4.95434
7.90875
12.6502
20.2028
32.3104
51.557
82.3518
131.163
209.067
332.063
527.667
834.132
1318.16
2062.44
3226.96
4934.38
7546.31
10652.6
15388.5
16706.6
29084.1
-4.70101e-05
5.35327e-06
-1.26409e-05
5.15221e-05
5.7107e-06
-3.98145e-05
-6.26406e-05
-3.96142e-05
-2.46856e-05
-1.83862e-05
4.04369e-06
-1.70939e-05
3.92387e-05
6.38539e-06
-2.88923e-05
-4.95342e-05
-6.15157e-05
-1.58917e-05
-1.41486e-05
-7.54195e-06
-6.13395e-05
-1.40182e-05
-2.34256e-06
-5.0131e-06
-3.83195e-05
-1.02038e-05
-2.24119e-06
-2.01032e-05
-3.21728e-07
-1.90163e-05
-6.15908e-05
-2.69358e-05
6.16462e-06
-4.01829e-05
-4.83831e-05
-8.9237e-05
-8.02557e-05
-7.9294e-05
-2.78169e-05
-1.19788e-05
-1.83679e-05
-6.04831e-06
-2.44348e-05
-3.34038e-05
4.99876e-06
-3.26335e-06
5.46631e-06
2.73724e-05
-5.10429e-05
1.1166e-05
-1.01953e-05
1.78906e-05
2.62497e-05
5.62501e-06
5.63268e-07
-5.55938e-06
-3.25015e-05
-9.88509e-06
2.54206e-05
-2.95603e-05
-4.48016e-06
-2.62959e-07
-5.60895e-05
-8.32106e-06
6.13986e-05
6.29428e-05
7.12439e-05
8.98006e-05
3.66529e-05
-1.81591e-06
-9.6724e-06
1.29701e-05
2.04118e-05
3.22456e-05
2.30277e-05
-1.51717e-05
2.51961e-05
-1.12125e-05
-6.97945e-06
3.29718e-05
4.77042e-05
0.000106049
4.90202e-05
6.1856e-05
1.64122e-05
5.69564e-05
2.88182e-05
-7.62313e-06
-1.1382e-05
-1.14152e-06
-2.56234e-05
-2.89312e-05
-4.74301e-05
-2.32995e-05
-7.22373e-05
1.84866e-05
9.66305e-07
1.42075e-05
-2.39036e-05
-2.72666e-05
-8.36415e-05
-5.98866e-05
-9.06952e-06
-3.43669e-05
-1.9729e-05
-4.94635e-05
-1.24022e-05
1.70028e-05
2.525e-05
1.21173e-05
-2.00648e-06
8.09721e-07
3.2027e-05
2.10777e-06
4.89452e-05
2.68514e-05
1.27899e-05
1.09168e-05
4.16875e-05
3.5406e-05
6.70659e-05
2.10294e-05
6.74056e-06
3.50535e-06
1.57268e-05
-3.46264e-06
-3.11474e-05
-4.12239e-05
6.16824e-06
5.92102e-06
2.85271e-06
-2.90757e-05
1.57681e-05
6.32794e-08
-3.35735e-05
-6.42336e-05
-5.8586e-05
-1.85135e-05
-5.54744e-05
-5.8478e-05
-7.72603e-05
-6.15895e-05
-6.93446e-05
-4.92896e-05
-2.70449e-05
1.30726e-05
2.71977e-05
-1.11738e-05
3.44236e-05
-3.10644e-05
-6.2706e-05
6.16444e-06
-6.17965e-05
-0.000116128
-7.92e-05
-7.40174e-05
-3.71006e-05
-6.59723e-05
-4.45396e-05
-4.28092e-05
-1.46801e-05
6.09028e-06
1.08133e-05
2.80058e-05
9.06357e-06
2.63941e-05
2.58845e-05
-3.18199e-06
-5.81414e-05
-6.63737e-05
-2.74047e-05
7.77469e-06
1.87579e-06
8.07049e-06
2.13623e-05
-3.702e-05
3.21731e-05
2.23788e-05
6.51614e-05
-4.09331e-05
2.0929e-05
3.8936e-05
5.1935e-05
-3.58587e-05
-2.25924e-05
-1.54864e-05
-3.24562e-05
-4.81115e-05
-7.18396e-05
-0.000109396
-4.44748e-05
-6.46816e-05
-8.536e-05
-3.2122e-05
-3.06002e-05
-4.3583e-05
-7.2853e-06
2.60202e-06
-1.41214e-05
-2.63187e-05
-3.72645e-07
5.38685e-05
-1.78866e-05
-3.04943e-05
-6.02374e-05
-7.74544e-06
4.9949e-06
-4.00971e-06
3.86757e-06
1.81989e-05
3.76816e-05
3.56894e-05
-2.98146e-05
-3.04537e-07
4.01992e-06
2.03457e-05
-1.32717e-05
3.90361e-05
2.85065e-05
2.79918e-05
3.56154e-06
-3.48135e-05
-1.64471e-05
-2.29806e-05
-7.08939e-05
-8.16698e-06
-1.98846e-05
2.36091e-05
1.1578e-05
2.21193e-05
-1.65954e-05
-4.55837e-05
-1.15695e-05
-1.1314e-05
-7.66273e-06
9.57476e-07
1.39533e-05
1.47239e-05
-5.80152e-06
-6.00173e-06
7.33147e-06
-2.83904e-05
4.28439e-05
4.52592e-05
4.2634e-05
4.47638e-05
4.34912e-05
2.16741e-05
3.4712e-06
-4.17554e-05
-1.72384e-05
4.90279e-05
2.21433e-05
-1.66416e-05
3.26572e-05
0.000107585
0.000139538
0.000237677
0.000318521
0.000398039
0.00062161
0.00109279
0.0016415
0.00273066
0.00428712
0.006809
0.0107695
0.0170011
0.0268291
0.0424633
0.0669297
0.10571
0.166627
0.263465
0.416039
0.658804
1.04273
1.65514
2.62589
4.17695
6.63859
10.5744
16.8186
26.7963
42.6032
67.825
107.69
171.173
271.199
430.093
679.009
1072.83
1681.2
2641.78
4075.99
6337.54
9239.35
14071.5
17574.7
33437.3
1.48851e-05
2.56552e-05
-6.9579e-06
8.32807e-06
1.73179e-05
1.85495e-05
-5.13912e-05
1.84582e-05
3.13617e-05
-3.47559e-05
5.37652e-06
2.77872e-06
2.20377e-05
-1.7497e-05
-8.62434e-06
-8.45322e-06
-3.82631e-05
-2.22566e-05
1.90048e-05
-3.97386e-06
-6.21522e-06
-1.36054e-05
-3.55247e-05
-3.80403e-05
-1.50143e-06
7.86063e-06
-1.23209e-05
-7.1428e-05
-1.29147e-05
-1.52458e-05
-9.45829e-06
2.94844e-05
3.59216e-05
-6.47855e-06
-4.42119e-05
-1.9281e-05
-7.53564e-06
5.17541e-05
1.82145e-05
2.23649e-05
2.58212e-05
-1.43228e-05
-6.08831e-05
-3.3292e-05
-4.52881e-05
-3.33876e-06
1.02872e-05
1.65163e-05
-2.03483e-06
-1.65554e-05
-3.70145e-05
-1.07068e-05
2.68251e-05
2.01357e-05
1.4606e-05
3.89972e-05
5.40145e-05
-8.67263e-06
4.49045e-06
6.32886e-06
5.39931e-06
-1.07699e-05
1.22717e-05
3.58321e-06
-4.14831e-05
-2.75403e-05
-2.46503e-05
-4.67347e-05
1.81744e-05
1.23594e-06
-3.6375e-05
-1.58581e-05
2.89551e-05
4.49455e-05
-6.06515e-06
7.99682e-05
-1.3642e-05
3.43498e-05
4.28268e-06
-8.81069e-06
-2.89836e-05
1.14557e-06
-5.46889e-06
-1.2436e-05
2.35648e-05
1.23013e-05
1.88888e-05
1.59845e-05
-3.01451e-05
-8.95507e-06
6.49831e-06
2.4774e-05
4.28439e-06
4.61911e-05
8.05836e-06
4.89626e-05
1.26922e-05
6.80557e-06
6.28914e-05
1.04236e-05
3.08582e-05
5.91295e-05
3.62957e-05
4.01694e-05
4.89588e-05
3.01178e-05
2.01908e-05
3.28907e-05
4.5403e-05
-1.57078e-05
-4.37235e-05
-4.10782e-05
8.90835e-06
-7.26486e-05
-4.09938e-05
1.93131e-06
-3.86667e-05
-1.89462e-05
9.05664e-06
-2.81141e-07
1.53542e-05
2.42002e-05
4.6676e-05
2.75819e-05
2.91423e-05
-2.73984e-05
6.40598e-06
2.81848e-05
-3.30515e-05
-7.65067e-05
-4.97848e-05
-6.05569e-05
-5.25661e-05
-1.74127e-05
-1.62925e-05
-7.4368e-05
-4.85818e-05
-6.56327e-05
-8.75897e-05
-0.00010478
-4.90448e-05
-5.78558e-05
-3.18698e-05
-3.12573e-05
-4.7038e-05
-3.80315e-06
-3.08209e-05
-4.5366e-05
-4.43517e-05
-4.52215e-07
3.22231e-05
1.71876e-05
6.36719e-06
-4.95107e-06
1.72183e-05
1.89301e-05
-3.5155e-05
-7.28313e-06
-5.36012e-05
-1.82309e-05
-2.80437e-05
-2.61968e-05
3.05478e-05
2.81268e-05
5.0047e-05
4.70644e-05
8.13097e-05
-1.77936e-05
4.57031e-05
-1.05312e-05
-3.80148e-05
-1.22487e-05
1.03635e-05
2.60493e-05
2.01455e-05
8.08689e-06
3.31222e-05
2.54592e-05
4.97422e-05
1.11482e-05
-9.01977e-06
-3.72973e-05
-2.84516e-05
8.35176e-06
1.53405e-06
5.67931e-06
-3.87176e-05
-2.18972e-05
-8.43467e-05
-3.73123e-05
-3.33232e-05
2.58708e-06
-1.72088e-05
-8.21268e-06
-2.08154e-05
8.0821e-06
-3.35286e-05
-2.61004e-05
-2.12669e-05
8.9168e-06
-1.54247e-05
1.29445e-05
4.76329e-05
7.98587e-05
7.48027e-05
5.91299e-06
-7.0321e-05
-4.502e-05
-4.26471e-05
-3.82781e-05
-6.2727e-05
-3.36449e-05
8.33367e-08
-3.60084e-05
-2.00719e-05
2.30505e-05
-8.87674e-06
3.42931e-05
2.12605e-05
2.79489e-05
7.06199e-06
-2.56638e-06
-9.48554e-06
-1.94879e-05
-5.54993e-05
-3.53356e-05
-3.55803e-05
-2.82943e-05
-4.94884e-05
-4.74042e-05
-2.4079e-05
-8.61729e-06
2.1178e-05
3.03729e-05
4.7144e-05
5.58893e-05
4.95181e-05
5.75804e-05
-4.04302e-06
8.39974e-06
-2.75594e-05
-4.62487e-05
-2.52778e-05
2.05808e-05
7.27942e-05
5.21192e-05
4.41638e-05
-8.13355e-07
2.91795e-05
-1.79683e-05
7.35778e-07
1.98051e-05
-4.33578e-06
-5.06494e-05
-3.00831e-05
-2.59517e-05
4.24893e-05
4.87836e-05
0.000224766
0.000351609
0.000639628
0.000951714
0.00151342
0.00235783
0.00362641
0.00583567
0.00914332
0.0143406
0.0227301
0.0358164
0.0564424
0.0891185
0.140303
0.221622
0.349357
0.5521
0.871526
1.37927
2.18073
3.4566
5.4729
8.68485
13.7613
21.8469
34.6151
54.9314
86.9581
137.843
217.858
344.771
543.432
857.833
1344.54
2116.56
3280.87
5146.91
7636.69
11954.3
15944
31504.8
2.29874e-05
2.08807e-05
2.53589e-05
-9.58863e-06
2.1486e-05
3.27243e-05
-1.88953e-05
-3.56394e-05
-4.84961e-05
4.2441e-06
8.96312e-06
5.60463e-05
-3.19711e-05
-4.77887e-05
-1.66898e-05
4.55414e-05
5.91635e-05
7.6588e-05
9.62451e-05
3.25827e-05
8.06095e-05
6.1908e-05
6.37193e-06
1.88742e-05
-1.16585e-05
4.9591e-05
3.35528e-05
9.45798e-05
1.94315e-05
7.10206e-06
1.19893e-05
5.02663e-07
8.24251e-07
-2.41532e-05
-2.77176e-05
-5.07322e-05
-6.73954e-05
4.20184e-06
-1.70919e-06
4.87016e-05
4.98644e-05
2.92077e-05
2.88019e-05
2.41902e-05
9.68464e-05
7.08033e-05
1.38442e-05
4.83855e-05
-1.58636e-05
-6.80458e-06
-6.37716e-05
-1.64469e-06
-3.35036e-05
4.96527e-06
3.76503e-05
3.33421e-05
9.37075e-06
5.38543e-05
8.97082e-05
3.32242e-05
8.27056e-05
5.35544e-05
4.42242e-05
-1.17244e-05
-1.11744e-05
-2.02102e-05
-4.73581e-05
-4.9055e-05
-7.25185e-05
-9.91096e-05
-6.10707e-05
-2.44473e-05
2.94311e-06
-3.02214e-05
-2.63691e-05
-1.98848e-05
-4.4906e-05
-5.81661e-05
-1.93287e-05
-1.03479e-05
7.6748e-05
2.25149e-06
2.95799e-05
7.01038e-05
-3.63635e-06
3.77057e-05
-8.11763e-06
2.96587e-05
-2.71245e-05
-2.82089e-05
7.89081e-06
-1.95129e-05
-2.06728e-05
1.75744e-06
-1.38291e-05
7.74786e-05
2.85997e-05
3.32519e-05
-2.47107e-05
7.44016e-05
6.49316e-05
1.85647e-07
-9.82102e-06
3.70241e-05
5.23258e-05
3.49479e-05
4.38953e-05
2.3149e-05
4.08863e-05
-5.32157e-05
-1.42025e-05
9.13347e-06
-2.62193e-05
-3.64955e-05
-9.1666e-06
-1.56688e-05
3.33403e-05
1.42414e-05
1.35578e-06
-3.84571e-06
2.77362e-05
4.50165e-05
4.02368e-05
5.30076e-05
4.54389e-07
2.15151e-05
-2.9671e-05
-3.49976e-05
-1.67231e-05
9.2864e-07
2.08654e-05
5.34295e-05
3.67664e-05
2.95581e-05
2.98533e-05
-4.09236e-06
5.83328e-05
8.06456e-05
2.7331e-05
2.62476e-05
-1.61245e-05
-6.24347e-06
9.17409e-06
8.39517e-06
-1.06063e-05
3.93386e-06
-4.4187e-06
-9.59105e-06
-3.17441e-05
-2.08177e-05
3.17521e-07
-1.60095e-05
1.03439e-05
-5.4754e-05
-3.87963e-05
-5.95133e-05
-7.55289e-05
-9.11646e-06
-2.02202e-05
-5.19703e-05
-5.07211e-05
-7.844e-05
-0.000103272
-5.24745e-05
-7.17841e-05
-4.43801e-05
-2.93642e-05
-1.57438e-06
2.30242e-06
3.2706e-06
-4.71002e-05
-5.43692e-05
-8.82538e-05
-1.35352e-05
-3.93392e-05
-6.34928e-05
-2.48702e-05
-3.52602e-05
1.60912e-05
7.05079e-06
-2.61017e-05
-3.182e-05
-7.39293e-05
-3.68783e-05
2.50351e-05
-2.01619e-07
6.99491e-05
3.30255e-05
4.17535e-05
0.000106436
3.48682e-05
4.71809e-05
3.53362e-05
4.01606e-05
2.60524e-05
2.34128e-05
2.96818e-05
3.13061e-06
2.13019e-05
-6.40072e-06
-1.66653e-06
-5.96333e-05
-3.04084e-05
-4.16568e-05
-1.92388e-05
1.4703e-06
2.08909e-05
3.62299e-05
3.37419e-05
-1.07506e-05
6.98091e-06
3.55628e-05
7.91404e-05
0.000103369
4.17785e-05
5.03896e-05
1.04881e-05
8.14745e-06
3.7743e-05
8.6149e-06
3.61905e-05
3.7225e-05
-1.13046e-05
-2.81374e-05
-1.03075e-05
5.17067e-05
2.59012e-06
-1.53231e-05
-5.75349e-05
-2.84377e-05
-5.61332e-05
-2.97474e-05
-1.88866e-05
1.66705e-05
1.44481e-05
2.51936e-05
2.99227e-05
1.76471e-05
2.06281e-05
4.07623e-06
-2.44019e-06
6.35863e-05
4.02033e-05
2.46508e-05
1.45543e-05
1.47641e-05
4.31871e-06
4.73404e-05
4.41987e-05
-2.18458e-06
1.72694e-05
-3.14259e-05
3.16131e-05
3.74164e-05
0.000105648
8.04889e-05
9.83548e-05
0.000133884
0.000230429
0.000347362
0.000526529
0.000756255
0.0012209
0.00187951
0.00300937
0.00476594
0.00748768
0.0118511
0.0186971
0.0295342
0.046496
0.0733478
0.115556
0.182357
0.287191
0.453207
0.714088
1.12772
1.77853
2.81146
4.43811
7.02148
11.0909
17.5536
27.7293
43.8793
69.2769
109.545
172.746
272.844
429.373
677.027
1060.73
1670.8
2596
4092.36
6133.89
9749.4
13473.7
27139.5
-1.12502e-06
-1.30275e-05
-1.0068e-05
4.96457e-05
9.35972e-05
7.26826e-05
6.88856e-05
1.5818e-05
3.83749e-05
6.56674e-06
-2.15709e-05
-6.49668e-05
-7.68424e-06
-5.87197e-05
-3.15095e-05
-6.02389e-05
-3.87598e-05
-4.25678e-05
-3.22868e-05
-3.84948e-05
-2.07207e-05
-6.17319e-05
-6.69299e-05
-4.73567e-05
-7.74764e-05
-4.77873e-05
-1.1894e-05
-6.81034e-05
-4.54104e-05
1.47877e-05
5.66166e-05
2.58608e-05
-7.08793e-06
1.77162e-05
1.02678e-05
1.56457e-05
-6.33275e-06
-5.02182e-05
-2.26732e-05
-1.97683e-05
-2.03424e-05
8.34128e-06
-3.70619e-06
-3.6494e-05
-4.36764e-05