/*--------------------------------*- C++ -*----------------------------------*\
| =========                 |                                                 |
| \\      /  F ield         | OpenFOAM: The Open Source CFD Toolbox           |
|  \\    /   O peration     | Version:  2412                                  |
|   \\  /    A nd           | Website:  www.openfoam.com                      |
|    \\/     M anipulation  |                                                 |
\*---------------------------------------------------------------------------*/
FoamFile
{
    version     2.0;
    format      ascii;
    arch        "LSB;label=32;scalar=64";
    class       volScalarField;
    location    "0.001";
    object      ddt0(thermo:psi,p);
}
// * * * * * * * * * * * * * * * * * * * * * * * * * * * * * * * * * * * * * //

dimensions      [1 -3 -1 0 0 0 0];

internalField   nonuniform List<scalar> 
180000
(
2.02315e-11
-6.32764e-11
1.63151e-11
-4.53671e-11
8.60331e-11
-9.07722e-11
-7.02091e-11
-6.48526e-11
-4.48408e-11
1.5454e-10
1.02652e-10
-6.07135e-11
-1.11338e-11
1.04428e-10
9.31405e-11
3.23277e-12
-2.23648e-10
-7.86643e-11
4.78465e-11
-5.63538e-11
6.60222e-11
7.90095e-11
1.06783e-10
-1.63903e-10
1.13872e-10
5.96898e-11
9.05959e-12
1.36828e-10
-1.44497e-10
2.85152e-10
2.0846e-10
-4.99116e-11
-1.03439e-10
-1.04084e-10
6.52362e-11
1.39531e-11
1.34598e-10
6.76405e-11
-1.96914e-10
4.15057e-11
-2.26509e-11
2.46285e-10
3.56606e-11
-4.04222e-11
-1.09707e-11
-1.50172e-10
-3.6617e-11
5.33499e-11
-1.5829e-10
-1.5727e-10
1.20621e-11
2.94254e-10
2.34388e-10
3.09456e-11
1.41117e-10
7.53365e-11
-2.16542e-10
-5.26832e-11
-3.80865e-11
-1.64816e-11
-1.40359e-10
-1.13381e-10
-1.33405e-10
-9.83226e-12
-2.43723e-11
4.63725e-11
1.35308e-10
1.17197e-10
-2.12898e-11
-1.89139e-10
-4.06926e-11
2.03502e-10
1.2644e-10
-1.10597e-10
1.04756e-10
2.13927e-10
-1.07224e-10
2.68469e-10
1.8726e-10
1.13966e-10
7.99914e-11
1.63811e-10
2.09371e-10
-1.1191e-11
-2.53663e-10
4.6643e-11
1.29038e-10
-7.1832e-11
1.70285e-11
-2.37621e-11
2.64529e-10
1.60223e-10
2.44847e-10
2.45779e-10
-9.61703e-11
6.04183e-11
5.88508e-11
-5.68404e-11
-1.7021e-10
-4.4896e-11
1.23773e-10
1.06888e-10
1.17128e-10
-1.04408e-11
2.42883e-10
1.2487e-10
-4.53486e-11
-2.02023e-11
-7.62874e-11
-1.11487e-10
-6.02261e-11
4.41488e-11
1.77166e-10
3.37507e-11
7.47504e-11
2.14203e-10
1.03e-10
-2.39804e-11
-2.1091e-11
2.94327e-10
-2.34224e-11
2.70727e-11
-2.43357e-11
-1.08816e-10
7.14948e-11
-1.03892e-10
3.12161e-11
1.30213e-11
7.6809e-11
9.57691e-11
-9.67302e-11
-5.057e-11
1.76807e-10
9.70421e-11
5.71346e-11
7.24702e-11
5.24044e-11
-5.58705e-11
2.56542e-10
5.78556e-11
3.34568e-12
-4.80856e-11
-7.59241e-11
-1.27797e-10
-2.84374e-11
-2.01815e-11
3.38808e-10
1.37782e-10
3.29341e-11
2.01931e-10
1.01515e-11
2.68883e-10
1.33033e-10
1.19797e-10
-5.30061e-11
8.97182e-11
1.16536e-10
6.38886e-11
2.92422e-11
-5.65372e-11
-4.99007e-11
1.17369e-10
1.63615e-10
-6.70498e-11
-6.65231e-11
1.10739e-10
1.35764e-10
4.05725e-11
1.08971e-10
-4.07037e-11
1.26784e-10
4.69153e-11
1.00259e-10
2.67782e-10
2.07153e-10
-1.31893e-10
5.58796e-11
4.01547e-11
-2.23726e-10
-7.84983e-11
-1.16869e-10
-2.80131e-11
8.47777e-11
3.05294e-10
-2.31063e-12
2.16901e-10
2.2017e-10
-1.48517e-11
2.1087e-11
-1.14192e-10
-3.79225e-11
1.93541e-12
1.75663e-11
1.15026e-10
8.0226e-11
2.70416e-13
3.02514e-10
-2.69438e-11
1.16419e-10
-4.30899e-11
1.51127e-10
-9.99699e-12
6.08115e-11
-1.10594e-10
-1.83252e-10
1.3691e-10
-1.56026e-11
1.40227e-11
1.31144e-11
2.47809e-10
2.62546e-10
1.48527e-10
2.13719e-10
1.61374e-10
1.92493e-10
2.04277e-10
-8.88104e-11
-2.53798e-11
-3.75336e-11
-1.57718e-10
2.62994e-11
-3.4601e-12
1.49824e-10
1.4871e-10
8.17985e-11
3.15563e-10
1.7038e-11
2.79213e-10
8.71168e-12
1.79286e-10
-8.71373e-12
1.54775e-11
-3.50015e-11
2.19425e-10
1.39184e-10
-1.62241e-11
2.43412e-10
-6.24392e-11
-4.63778e-11
-3.6499e-11
-3.62473e-11
3.45109e-10
1.92002e-10
1.50137e-10
6.22039e-10
8.97937e-10
1.50862e-09
2.52411e-09
3.82968e-09
6.17406e-09
1.01121e-08
1.63599e-08
2.62621e-08
4.24553e-08
6.8588e-08
1.0931e-07
1.75338e-07
2.83033e-07
4.504e-07
7.11344e-07
1.13826e-06
1.81931e-06
2.85432e-06
4.49066e-06
7.15926e-06
1.12943e-05
1.75554e-05
2.76058e-05
4.37032e-05
6.8112e-05
0.000105505
0.000165731
0.000259979
0.000402142
0.000622963
0.000975458
0.00151822
0.00234287
0.00363241
0.00566457
0.00877938
0.0135622
0.0210387
0.0327162
0.0506783
0.0784826
0.121839
0.189353
0.293782
0.456136
0.708733
1.10163
1.70956
2.65161
4.09736
6.31141
9.59686
14.4877
21.0003
30.4427
1.36291e-11
-4.53121e-11
-7.42474e-11
3.23288e-11
-5.48832e-11
1.45853e-11
-5.10813e-11
-2.6664e-11
2.37512e-11
1.09932e-10
-6.123e-11
-5.90463e-11
-9.7616e-12
1.16211e-10
1.54262e-11
-1.21094e-10
-3.57703e-11
-9.09907e-12
-6.77101e-11
-7.1304e-11
-1.82495e-10
1.3322e-10
2.14184e-10
3.46774e-11
-5.28001e-11
-1.53067e-10
-1.67224e-10
9.62534e-11
-3.15513e-12
-1.50868e-10
1.83861e-10
-1.31222e-10
-1.49083e-11
2.13351e-11
-5.57255e-11
6.84867e-11
-1.92219e-10
-1.20182e-10
-2.05156e-10
-3.56232e-11
2.39984e-10
1.13304e-10
1.10027e-11
2.34422e-10
-7.53958e-11
-4.00472e-12
5.39495e-12
6.40522e-11
1.24817e-10
8.52395e-11
7.11717e-11
-2.17691e-10
-1.09754e-10
-2.39654e-12
8.83129e-11
-7.82678e-11
-8.66828e-11
1.69646e-10
2.06706e-10
1.60436e-10
-8.07328e-11
-1.5282e-10
-1.79609e-11
5.73514e-11
5.55161e-11
4.48915e-11
2.01522e-10
-4.46021e-11
9.26602e-11
2.1997e-10
-1.52193e-10
5.06839e-11
1.41599e-10
3.9645e-12
-1.19273e-10
1.2164e-10
-2.12706e-11
1.33353e-11
-1.88687e-10
-5.94195e-11
9.92025e-11
-1.16111e-10
1.22807e-10
7.80294e-11
-6.79992e-11
-8.8374e-12
-2.3469e-10
-4.4017e-11
1.93552e-10
1.31812e-10
7.35074e-11
-1.13085e-10
5.24237e-11
8.59588e-11
-2.39051e-11
1.13966e-12
1.24467e-10
1.38222e-11
1.33196e-10
6.00619e-11
1.64308e-11
6.05645e-11
2.21925e-10
2.15387e-11
-7.49441e-11
-6.25015e-11
1.94836e-11
1.04883e-11
9.2644e-11
-1.61819e-10
2.84236e-10
3.91876e-12
6.54415e-12
2.31758e-11
2.30094e-10
2.59016e-10
-1.38081e-11
2.85248e-11
3.76204e-11
1.6666e-10
1.40613e-10
9.55038e-11
4.18688e-11
-1.90465e-10
-9.04125e-11
-7.38328e-11
-1.06014e-10
6.12716e-11
-1.67425e-10
-3.24818e-10
-6.08182e-11
2.0937e-11
1.88307e-11
1.61588e-10
4.80309e-11
1.13935e-10
-1.35343e-10
-5.99487e-11
4.44384e-11
1.92388e-10
1.51991e-10
-8.20401e-11
-2.28304e-11
2.36169e-10
9.35484e-11
-4.88776e-12
-1.99095e-10
-1.42997e-11
-3.21213e-11
1.64627e-11
2.11273e-10
-4.00791e-11
-1.10139e-10
-2.44117e-11
7.18182e-11
7.20542e-11
3.88885e-10
8.1535e-11
-8.97925e-11
1.49296e-10
5.02926e-11
1.7549e-10
6.36613e-11
2.27992e-11
1.38009e-10
-3.23666e-11
-1.64596e-10
-8.18448e-11
-1.82123e-10
-7.41667e-11
-6.98543e-11
5.05173e-11
-1.12562e-10
-1.73157e-10
1.00118e-10
-1.94805e-11
2.52332e-10
6.93119e-11
1.59698e-10
2.84688e-10
1.44156e-10
-3.84376e-11
-1.18287e-10
-3.49374e-11
-9.199e-11
-1.21059e-10
-4.51845e-11
8.34208e-11
-7.76061e-11
-2.37878e-11
7.19451e-12
3.13882e-10
1.99052e-10
9.07842e-11
3.44669e-10
2.94895e-10
1.27659e-10
1.09755e-10
1.01087e-11
1.03812e-10
-6.26344e-11
-7.00993e-11
-1.36113e-10
-2.18593e-10
1.37141e-10
-7.8729e-11
-1.86357e-10
5.49932e-11
-5.56602e-11
-1.20481e-10
-7.331e-11
2.28311e-10
1.10143e-10
2.02223e-11
1.93413e-10
1.0507e-10
-1.10884e-10
-1.88594e-10
-1.06574e-10
-4.29329e-11
4.73041e-11
-1.78563e-10
7.14597e-11
2.1032e-10
-9.62766e-11
-6.54735e-11
-9.7807e-11
-1.7879e-10
-2.66289e-10
-3.17852e-10
-8.7948e-11
9.05223e-11
-6.63047e-11
9.9643e-12
5.66423e-11
1.3634e-10
3.11614e-10
4.19241e-10
-6.62147e-11
2.00033e-10
6.53772e-11
3.82796e-11
-1.30229e-11
1.73854e-10
4.83375e-10
9.19503e-10
1.45066e-09
2.536e-09
3.55368e-09
5.63424e-09
9.38403e-09
1.54296e-08
2.46057e-08
3.99187e-08
6.43662e-08
1.03636e-07
1.66167e-07
2.65346e-07
4.25071e-07
6.77592e-07
1.07396e-06
1.70518e-06
2.70722e-06
4.27509e-06
6.72559e-06
1.06117e-05
1.67141e-05
2.61776e-05
4.09448e-05
6.42362e-05
0.000100433
0.000156344
0.000243505
0.000380033
0.000590787
0.000916176
0.00142247
0.00221075
0.00342463
0.0053008
0.0082133
0.012732
0.0196953
0.0304731
0.0471779
0.0730722
0.113059
0.175032
0.271031
0.419874
0.649991
1.00651
1.55715
2.40751
3.71054
5.70414
8.69125
13.164
19.3963
28.5196
3.03065e-11
7.10376e-11
-8.57529e-11
-7.56039e-11
2.56382e-11
-9.87357e-11
9.02947e-11
-9.69348e-11
-3.93666e-11
1.01151e-10
3.30663e-11
1.20753e-11
2.43268e-11
1.45082e-10
-5.63056e-11
-1.37868e-10
2.54337e-10
-1.54195e-10
-3.81209e-11
-1.72359e-10
1.12234e-11
4.6786e-11
-1.34543e-10
-7.15242e-11
-1.11021e-10
8.54689e-11
2.36024e-10
1.65916e-10
-7.18563e-11
-2.16351e-10
-3.28693e-11
7.7798e-11
5.67808e-11
4.63212e-11
3.10886e-11
7.0749e-11
-2.75436e-11
1.31544e-11
3.53036e-11
1.32214e-10
2.15971e-10
4.2853e-11
-1.24654e-10
-1.05363e-10
-8.47397e-11
-6.18091e-12
4.14734e-11
1.25665e-10
7.01118e-12
-1.52876e-11
-1.04526e-10
-1.05695e-11
2.63502e-10
1.41313e-10
5.04903e-11
-5.11789e-11
-1.6407e-10
-8.57331e-11
-1.28976e-10
-1.1865e-10
-1.34124e-10
2.28055e-10
9.48239e-11
-2.28968e-10
8.56772e-11
6.34192e-11
-6.77917e-12
-1.22897e-13
-4.35481e-11
4.75156e-11
2.06664e-11
-9.48792e-11
3.29036e-11
-1.36034e-10
-7.10371e-11
-9.57767e-11
2.9677e-10
-1.07214e-10
-5.45594e-11
2.36223e-10
4.6749e-11
-2.52225e-11
-1.16848e-10
-7.77686e-11
7.22311e-11
1.38511e-10
7.48517e-12
2.18001e-10
-1.7954e-11
1.84934e-10
-1.97561e-10
-1.78393e-10
-1.17857e-10
-1.91434e-10
6.20815e-12
6.15465e-11
8.07631e-11
2.21334e-10
-5.0304e-11
1.39248e-10
-9.29269e-13
-5.57105e-11
-1.38119e-11
9.057e-11
2.43638e-10
3.79675e-10
6.53028e-11
-3.94722e-11
4.03248e-12
6.85981e-12
-1.33624e-11
-1.86854e-10
-4.51041e-11
2.01927e-11
-8.88354e-11
3.15941e-11
5.03297e-11
-1.09855e-10
7.1771e-11
1.74076e-10
8.84659e-11
1.59299e-10
-1.22382e-10
-7.50873e-11
-6.45467e-11
-6.42041e-11
-3.16605e-11
2.72798e-11
2.37662e-10
5.98869e-11
2.54823e-10
-1.43885e-11
-9.32347e-11
-1.42326e-10
7.56581e-11
-4.81959e-11
-4.7051e-11
-3.46141e-12
8.37292e-11
-1.44436e-10
-2.16988e-10
-6.79727e-12
2.97014e-11
1.69212e-10
3.35994e-10
3.61761e-11
9.71928e-11
2.3731e-10
2.67687e-10
1.04501e-10
2.00297e-10
3.85258e-11
-1.5741e-10
-1.62143e-10
-9.29758e-11
1.14706e-10
-6.2743e-11
-1.39093e-10
-1.70298e-10
-1.8389e-10
-1.91302e-11
4.97854e-11
-1.97687e-10
4.20054e-11
3.04129e-10
1.14895e-10
1.29837e-10
4.94008e-11
9.72503e-11
9.94429e-11
-4.89363e-11
-1.61298e-10
-8.05782e-11
2.7861e-11
-4.45964e-11
-1.63491e-10
-3.90229e-11
1.22342e-10
-1.09696e-11
4.11106e-11
2.13413e-10
1.38563e-10
3.32825e-11
4.728e-11
1.93099e-11
9.88915e-11
-1.64263e-10
-1.14652e-10
6.97577e-11
2.71748e-11
-1.50052e-10
-3.61091e-12
4.63067e-11
1.13316e-11
7.13478e-11
6.06051e-11
-6.39371e-11
-4.41392e-11
1.63457e-10
7.28909e-11
9.85413e-11
-1.12283e-10
2.02984e-10
1.51807e-10
1.58135e-10
-1.23774e-10
1.67177e-10
1.13648e-10
7.53418e-11
-1.02362e-10
-7.946e-11
2.08618e-10
5.71089e-11
9.00493e-11
4.3524e-11
6.66027e-11
3.40301e-11
-5.43012e-11
2.70614e-11
-4.98205e-11
-7.68745e-13
6.75429e-11
-1.32937e-10
-5.94234e-11
2.1473e-11
2.6537e-11
-2.40523e-10
-1.74153e-10
-1.04489e-10
-2.3822e-11
6.64242e-11
-1.12655e-10
-9.42292e-11
-2.87925e-11
4.02013e-11
5.14003e-11
5.88261e-11
1.29288e-10
2.55423e-11
1.78934e-10
2.01814e-10
1.63558e-10
7.74444e-11
1.70034e-10
3.94954e-10
7.06323e-10
1.11487e-09
1.83751e-09
3.13692e-09
5.20934e-09
8.28026e-09
1.37827e-08
2.21499e-08
3.55678e-08
5.75795e-08
9.2331e-08
1.48265e-07
2.37808e-07
3.79344e-07
6.05169e-07
9.62214e-07
1.5271e-06
2.41745e-06
3.82263e-06
6.03126e-06
9.49752e-06
1.49233e-05
2.34299e-05
3.67054e-05
5.741e-05
8.96409e-05
0.000139885
0.000217859
0.000338909
0.000526543
0.000817774
0.00126798
0.00196483
0.00304184
0.00470877
0.0072803
0.0112545
0.0173875
0.0268672
0.0414825
0.0640618
0.0988909
0.152711
0.235696
0.363894
0.561533
0.866667
1.33617
2.05936
3.16576
4.86047
7.40686
11.2696
16.7366
25.1098
4.85244e-11
-1.96201e-11
-2.50865e-11
1.07188e-10
-1.14268e-12
7.75434e-11
1.63282e-10
-2.59003e-11
5.85817e-11
2.09421e-10
-8.42687e-11
-1.83509e-10
7.8011e-11
4.55559e-11
1.04071e-10
1.18891e-10
-8.47997e-11
-1.54341e-10
-1.36679e-10
5.29062e-11
8.97781e-11
-2.0754e-10
-1.49685e-10
1.53829e-10
-8.36353e-12
-1.45771e-10
-2.11994e-12
-3.12031e-11
-7.02576e-11
1.23226e-10
6.57394e-11
-1.04895e-10
-1.09777e-10
2.5886e-10
1.66182e-10
4.11214e-12
-1.59328e-10
-2.03844e-10
-3.18018e-11
-1.50127e-10
-3.5162e-11
-3.07356e-11
4.99534e-11
9.73373e-11
2.39174e-10
1.87998e-10
8.26995e-11
1.08326e-10
8.93068e-11
-1.66693e-11
9.77046e-11
-9.50715e-11
-2.15387e-10
-8.65503e-12
4.02248e-11
-8.34987e-12
4.04453e-11
1.57205e-10
-1.22421e-10
3.23607e-11
8.78267e-12
1.22457e-10
-1.80004e-11
4.2578e-11
-2.57434e-10
5.64737e-11
-1.2254e-10
-4.91811e-11
-9.80527e-11
2.00917e-11
-4.72161e-11
-6.00966e-12
-2.0073e-11
5.3292e-11
5.15923e-11
-5.97143e-11
4.37383e-12
1.08567e-11
-2.03852e-12
-1.06969e-10
-4.35561e-11
1.63071e-11
-1.82805e-10
2.79707e-11
-4.41793e-11
7.80894e-11
4.13517e-11
1.59301e-10
1.84925e-10
-6.79977e-11
5.66894e-11
-5.60905e-11
-8.46747e-11
1.47408e-10
-1.2123e-10
1.17297e-11
1.44872e-10
1.41068e-10
1.37646e-10
1.69785e-10
-2.02269e-10
-3.90525e-11
-3.83091e-11
-2.04698e-10
-3.94038e-11
-8.31564e-11
-1.38176e-10
1.46722e-10
2.34404e-10
7.63801e-11
-9.00565e-12
9.42903e-11
-8.05861e-12
-2.19779e-10
1.22428e-10
1.20673e-10
-7.39083e-11
-1.20344e-10
6.15113e-11
7.43856e-12
-1.22111e-10
2.13191e-10
1.49853e-10
-1.52246e-10
2.18004e-10
5.17283e-11
1.01673e-10
1.41411e-11
-3.25147e-10
-6.71427e-11
-1.92408e-10
-1.26854e-10
-7.20086e-11
-9.96149e-11
1.64303e-10
1.00001e-10
7.55289e-11
6.28549e-11
-1.13359e-12
6.43288e-11
-1.19292e-10
-8.98953e-11
1.15473e-13
-2.00263e-13
-8.99761e-13
1.27585e-10
-1.51441e-10
-1.94731e-11
-4.51637e-11
-3.37677e-11
8.19637e-11
6.73078e-11
-1.05823e-10
-1.11865e-10
-7.95252e-11
-2.5331e-11
2.25302e-10
4.33522e-11
-7.76053e-11
4.79563e-11
-2.45049e-11
6.33559e-11
1.50552e-10
1.16643e-10
4.07687e-11
3.06141e-11
1.17784e-10
2.82309e-11
-1.68146e-11
-1.55322e-11
9.6847e-11
-9.06061e-11
-3.68815e-11
8.48476e-11
9.99497e-12
8.07884e-11
2.14253e-12
-7.53189e-11
1.19703e-10
-4.05104e-11
-1.38916e-11
6.61278e-11
-9.63585e-11
1.08203e-10
-2.65302e-11
-4.59063e-11
-2.58476e-10
-1.21546e-10
8.25057e-11
6.4408e-11
-1.1971e-10
1.72868e-11
-1.00256e-10
2.61446e-11
6.99857e-11
3.37632e-11
1.40145e-10
8.78404e-11
-4.67012e-12
1.44437e-10
-1.58426e-10
7.56268e-11
5.39691e-11
-1.09629e-12
-1.20969e-11
1.25177e-10
4.90751e-11
7.27083e-11
3.10655e-10
2.42532e-10
2.55768e-10
2.49882e-10
-4.02887e-11
-2.00852e-11
3.53057e-10
-7.34392e-11
4.74825e-11
6.30167e-11
-3.44433e-11
-5.88143e-11
-5.51914e-12
-2.03442e-10
-2.56959e-10
3.88378e-11
1.09286e-10
1.87293e-10
3.6751e-11
-2.54327e-10
6.26493e-11
-7.02904e-11
-2.75799e-11
-2.23788e-11
-8.36663e-12
-9.85341e-11
-2.28383e-10
6.50467e-11
3.86019e-11
2.44713e-10
-1.27963e-10
1.05994e-12
2.61699e-11
1.21607e-10
1.54454e-10
2.28477e-10
3.22677e-10
7.14707e-10
9.1413e-10
1.492e-09
2.63863e-09
4.43231e-09
7.00036e-09
1.14726e-08
1.89049e-08
3.03639e-08
4.86839e-08
7.85427e-08
1.25682e-07
2.01427e-07
3.21617e-07
5.13198e-07
8.16317e-07
1.29607e-06
2.05315e-06
3.2475e-06
5.12379e-06
8.07214e-06
1.26893e-05
1.99179e-05
3.11987e-05
4.88114e-05
7.62158e-05
0.000118868
0.000185054
0.000287849
0.000446987
0.000693545
0.00107453
0.00166395
0.00257319
0.00397754
0.00614154
0.009481
0.0146217
0.0225476
0.0347424
0.0535367
0.0824402
0.126966
0.195424
0.300852
0.462849
0.712157
1.09467
1.68248
2.58026
3.95606
6.02763
9.19776
13.7396
20.8925
-3.14912e-11
-3.79271e-11
-1.96274e-11
-7.39559e-11
-1.20961e-11
-4.6964e-11
2.37788e-10
1.88428e-10
-3.04402e-10
8.89973e-11
7.09032e-11
9.01378e-11
5.04717e-11
-8.22395e-11
-7.92895e-11
-1.65525e-11
-7.45102e-11
-3.72952e-11
6.83012e-11
-5.94361e-11
-7.1176e-11
1.76086e-10
6.5601e-11
1.19753e-10
-4.44956e-11
-3.82244e-11
2.14035e-11
5.84866e-11
-5.52053e-11
-1.16007e-10
6.98575e-11
4.68179e-11
-9.81734e-11
-2.33787e-10
-1.37493e-11
2.80139e-11
-6.48676e-11
-2.31318e-12
-1.67132e-11
-6.80317e-11
8.47634e-11
-1.3893e-10
8.94856e-11
3.07849e-10
-2.475e-10
-1.39498e-10
-1.00735e-10
-1.7293e-10
-3.91413e-11
-5.42191e-11
-2.31916e-11
-1.33933e-11
-4.35882e-12
9.90364e-11
1.55752e-11
-5.70948e-11
-7.83689e-11
9.35084e-11
1.42492e-10
7.97886e-11
-2.07923e-12
-4.80612e-12
1.27122e-10
1.45604e-10
1.56838e-10
1.85322e-10
-7.33006e-11
4.44712e-11
-4.61595e-11
-1.48641e-10
1.82999e-10
1.01258e-10
1.43365e-10
1.13023e-10
3.27286e-11
-6.55327e-11
-1.98875e-10
-1.30498e-11
5.36666e-11
4.00856e-11
9.56149e-11
1.01726e-10
2.23518e-10
3.74835e-10
1.09096e-10
1.19623e-10
7.57728e-11
-6.0413e-11
-9.88225e-11
-1.63187e-10
-1.55958e-10
-9.99424e-11
-9.33879e-11
2.344e-11
-7.39699e-11
9.67173e-11
2.69981e-10
1.66075e-11
7.05757e-11
8.64168e-11
-1.67719e-11
8.50146e-11
-3.23655e-11
-1.55554e-10
-2.80709e-10
-1.93736e-10
-2.67735e-11
-1.89847e-10
4.91924e-11
2.29082e-10
-7.2746e-11
1.32311e-12
1.14875e-11
-1.01964e-10
1.1956e-10
1.67569e-10
1.69113e-10
3.6566e-11
1.90555e-10
7.01715e-11
-7.91445e-12
-3.92968e-11
-2.11248e-11
-3.45705e-11
-2.10654e-10
-1.2696e-10
-4.61387e-11
-3.64697e-11
2.08093e-11
1.69197e-10
6.55941e-11
1.35101e-10
1.05466e-10
-4.39247e-11
-5.86287e-12
9.13941e-11
1.03952e-11
-4.7647e-11
5.50311e-11
-1.35283e-10
-2.14292e-11
-1.58623e-10
5.15592e-11
-1.11768e-10
1.59165e-10
-1.64377e-11
-7.84009e-11
3.37783e-11
-5.80896e-11
-2.60691e-10
1.97297e-11
9.56857e-11
-9.23549e-11
1.22056e-10
1.19044e-10
-6.97122e-11
-4.99965e-11
-6.33039e-11
8.03398e-11
-3.44797e-11
-1.36611e-10
-1.50021e-10
-1.04722e-10
-1.18067e-10
6.46662e-12
7.12737e-11
-1.73783e-10
-2.49141e-10
5.83478e-11
3.27305e-11
2.70643e-11
6.21052e-11
-1.84991e-11
-4.26159e-11
-2.17252e-10
-1.44604e-10
1.41497e-10
3.16489e-11
-3.39602e-11
2.32966e-10
-2.28027e-11
-1.59208e-10
4.14043e-13
-7.62705e-11
2.06403e-10
2.15986e-10
2.97294e-10
-4.4591e-11
5.81405e-11
2.67334e-11
-1.29494e-11
7.26599e-11
-1.25282e-11
9.19952e-12
-6.29484e-11
-5.65909e-12
-1.17983e-10
-1.80491e-10
3.85217e-11
-1.16118e-10
3.09219e-11
1.11999e-10
-3.20987e-11
2.26134e-12
-5.93758e-11
1.74175e-10
2.72743e-11
-1.4487e-10
3.05752e-10
-4.4387e-11
8.91584e-11
-1.64658e-11
-6.25794e-11
3.05982e-10
8.97065e-12
1.74831e-10
9.00812e-11
-1.8171e-10
-1.39945e-10
1.22289e-10
1.5714e-10
6.1924e-11
1.62123e-10
-4.41971e-11
9.01524e-11
3.14469e-10
4.46727e-11
-8.83307e-11
-5.67509e-11
2.94988e-11
-2.13145e-10
4.59335e-11
1.01479e-10
1.56724e-10
1.95845e-10
-7.60133e-11
-1.48254e-11
4.20415e-11
2.14646e-11
1.22793e-10
1.6597e-10
-4.7379e-11
2.52476e-10
1.26721e-10
1.51052e-10
4.14737e-10
1.00887e-09
1.42216e-09
2.18952e-09
3.50912e-09
5.69192e-09
9.06259e-09
1.51525e-08
2.43021e-08
3.92267e-08
6.29392e-08
1.01058e-07
1.62076e-07
2.59266e-07
4.13907e-07
6.59328e-07
1.04781e-06
1.66069e-06
2.62812e-06
4.14926e-06
6.54004e-06
1.02857e-05
1.61519e-05
2.53106e-05
3.9608e-05
6.18567e-05
9.64885e-05
0.000150226
0.000233645
0.000362755
0.00056272
0.000871531
0.00134883
0.00208457
0.00321987
0.00496724
0.00765983
0.0117992
0.0181711
0.0279578
0.0430107
0.0661154
0.101632
0.156118
0.23983
0.36817
0.56524
0.866986
1.32993
2.03625
3.1191
4.75216
7.26641
10.9001
16.729
-4.36686e-11
8.77174e-11
4.9177e-11
-7.80725e-11
-5.03935e-11
4.42638e-11
-1.40272e-10
-1.64862e-11
-1.05505e-10
-5.17024e-11
7.87937e-11
-4.50437e-12
2.80959e-11
1.57717e-10
1.61271e-10
-1.0225e-11
9.43454e-12
5.97366e-11
-7.73698e-11
2.26819e-11
6.20156e-11
7.18276e-11
-8.01082e-11
4.64157e-11
-4.9842e-11
-9.97955e-11
7.50118e-11
-5.92718e-11
-5.49403e-11
4.59083e-13
-9.95607e-11
1.99268e-11
7.85629e-11
6.06258e-11
-1.09007e-11
-1.381e-10
-2.0572e-10
-1.52578e-10
-3.65561e-11
1.09917e-10
-5.01347e-11
1.17662e-10
2.2266e-10
-1.21327e-10
1.32263e-10
-1.82196e-10
-1.25059e-10
7.16783e-12
1.60016e-10
2.40466e-10
-2.18973e-11
2.33013e-10
-6.75172e-11
-3.09616e-11
2.05348e-10
5.15991e-11
2.01465e-10
1.68578e-10
3.15862e-10
9.10595e-11
3.26782e-11
3.45235e-11
-1.37381e-11
-2.0366e-10
-1.305e-10
-1.9506e-11
1.07279e-10
-1.63627e-10
7.69626e-11
4.68085e-11
-2.48644e-10
-7.7408e-11
-8.2566e-11
-5.11456e-11
1.46689e-10
4.3462e-12
2.59043e-10
2.28208e-10
6.13533e-11
1.02799e-11
-7.81589e-11
1.23201e-11
-6.26191e-11
2.31751e-10
8.25801e-11
1.13543e-11
1.19619e-10
3.57168e-12
1.3766e-10
9.1017e-11
8.75805e-11
9.37651e-11
1.36995e-10
-9.66382e-11
-4.64647e-11
-1.05603e-10
7.87363e-11
-9.88972e-11
-1.53247e-10
-1.0996e-10
-2.40082e-10
1.44306e-10
1.1296e-10
1.58213e-10
-4.4417e-12
1.54089e-10
8.9485e-11
-2.0682e-11
-2.98272e-10
-8.22641e-11
-1.6204e-10
-7.44418e-11
-4.34998e-11
-1.37465e-11
-1.09118e-10
-1.05608e-10
-1.0619e-10
-2.53493e-10
1.1383e-10
-4.87802e-12
8.70372e-11
-3.11901e-11
-3.19387e-11
4.67708e-11
-2.75615e-11
3.29208e-11
5.77147e-11
-7.3052e-12
-1.7334e-11
-1.98398e-10
-9.12765e-12
1.60334e-11
-5.06445e-11
1.14761e-10
-7.63755e-11
-2.86867e-10
-9.75746e-11
-8.60784e-12
-2.16662e-10
4.12642e-11
-9.98167e-12
8.33966e-11
6.94671e-12
-1.01859e-11
-6.1036e-11
6.55459e-11
1.73769e-10
2.29136e-10
4.59169e-11
5.25791e-11
-2.38632e-11
-1.23762e-10
-1.23349e-10
4.24001e-11
-2.02115e-10
1.20859e-10
4.15123e-11
-4.68303e-11
-1.51342e-11
3.33058e-11
-1.28305e-10
-1.00534e-10
1.17206e-10
5.5859e-11
6.88559e-11
1.27741e-10
1.28139e-10
3.34689e-11
2.35738e-10
2.43871e-10
5.19807e-11
-9.44724e-11
-4.4443e-11
-5.91545e-12
-2.14462e-11
-1.21278e-10
-1.65107e-10
7.54566e-11
9.10266e-12
-1.98176e-11
-4.7808e-11
-1.79502e-10
-1.55797e-11
1.65477e-10
-1.40842e-10
6.21294e-11
-6.03016e-11
-1.36481e-11
-2.20105e-10
-1.16591e-10
1.83306e-11
4.1014e-12
2.48628e-10
5.03595e-11
1.3205e-10
-2.71266e-11
6.83721e-11
9.78745e-11
3.37616e-10
-5.82097e-12
-1.66773e-10
6.56645e-11
-6.74808e-11
-2.1655e-10
-1.70239e-10
1.62861e-10
1.41677e-10
-7.94055e-11
-6.26296e-11
1.66028e-10
-1.16502e-11
-2.04773e-10
7.98123e-11
2.74682e-11
7.3378e-11
4.15733e-11
-1.02481e-10
-6.91412e-11
9.12107e-11
8.88174e-11
1.06601e-10
1.08773e-10
1.13629e-10
7.38933e-12
-2.85344e-11
-8.79215e-11
-8.32883e-11
8.85569e-11
-7.84223e-11
1.09058e-10
3.23893e-11
2.65655e-10
5.13828e-12
1.15985e-11
1.25571e-11
-2.88013e-11
8.66203e-11
-1.87769e-11
-6.17505e-12
-6.54386e-11
6.42051e-11
2.46256e-10
2.79252e-10
4.80092e-11
2.90835e-10
3.48541e-10
6.63422e-10
1.18878e-09
1.61428e-09
2.68016e-09
4.31601e-09
6.92448e-09
1.13608e-08
1.86725e-08
3.01212e-08
4.84201e-08
7.77007e-08
1.24837e-07
1.9963e-07
3.18976e-07
5.08441e-07
8.08892e-07
1.28349e-06
2.03301e-06
3.21266e-06
5.06843e-06
7.978e-06
1.25382e-05
1.96631e-05
3.07919e-05
4.81202e-05
7.51025e-05
0.000116989
0.000182028
0.000282716
0.000438661
0.000679502
0.00105169
0.00162531
0.00251006
0.00387125
0.00596748
0.00918789
0.0141409
0.0217416
0.0334199
0.0513251
0.0788146
0.120933
0.185557
0.284503
0.436244
0.668326
1.02409
1.56666
2.39894
3.65589
5.59931
8.42527
13.0133
7.13006e-11
5.97756e-11
1.07764e-10
1.12474e-10
-8.11864e-11
1.12183e-11
-9.16044e-11
3.27219e-11
1.08888e-11
-5.20165e-11
-5.6362e-11
-7.6181e-11
-2.31932e-10
-6.79076e-11
1.43116e-10
2.0189e-10
1.05841e-10
6.60781e-11
1.69757e-10
-9.41647e-11
-1.12123e-11
3.16782e-12
7.99492e-11
4.75446e-11
6.3156e-11
-3.15439e-11
-7.37935e-11
1.37936e-10
-5.50394e-11
1.09999e-10
-2.71183e-11
1.33178e-10
-7.83791e-12
-1.39141e-10
-6.68836e-11
-8.33499e-11
3.38035e-11
3.7415e-11
1.10074e-10
3.60776e-11
-1.95102e-10
-1.15729e-10
4.49914e-11
7.60135e-11
-2.30626e-10
-2.30694e-10
4.30842e-11
-1.39598e-10
8.55398e-11
-3.8962e-11
1.44402e-11
2.59085e-11
3.07778e-10
1.60431e-10
1.04725e-10
1.9146e-11
-3.70645e-11
2.61968e-10
1.70313e-10
-8.39692e-11
-2.84014e-11
-1.17799e-10
-7.30716e-11
-1.61729e-12
-1.60485e-10
-1.16312e-10
3.35091e-11
5.55057e-11
1.31751e-10
3.40542e-10
2.34313e-10
-4.11672e-11
1.47348e-11
-2.34228e-11
-2.65222e-10
5.94414e-11
-3.46144e-11
2.41275e-11
1.30201e-10
1.59279e-10
6.01595e-11
1.17443e-10
2.62549e-11
-1.68885e-11
-2.66086e-10
-1.9318e-10
-1.21504e-10
-2.26314e-10
4.6191e-11
-2.47631e-11
-3.4286e-11
1.28096e-10
6.73765e-11
1.26773e-10
-1.77595e-11
-1.08523e-10
-1.8008e-10
-8.2744e-12
3.36692e-11
1.81787e-10
1.37294e-10
1.43055e-10
-3.17147e-11
6.87339e-12
-1.1447e-12
-1.66784e-11
-1.67689e-10
6.20198e-11
-1.08753e-10
-1.67677e-10
-1.60581e-10
-9.3335e-11
-7.18286e-11
5.99443e-11
-1.34636e-10
-2.18302e-10
-2.56632e-10
-6.96211e-11
-2.97123e-11
-1.30417e-10
2.87772e-11
-9.50519e-11
-1.84416e-10
5.71164e-11
-8.4711e-11
-7.76084e-11
-4.40875e-11
1.45315e-10
6.81265e-11
7.75749e-11
8.66036e-11
7.73226e-11
2.55516e-11
-2.24046e-10
-2.54766e-10
-2.55869e-11
-2.35795e-10
7.31943e-11
1.23488e-10
-1.4267e-11
-1.62781e-10
-1.63728e-10
-7.8892e-11
-1.07391e-11
-1.30465e-10
-6.89945e-11
-1.20955e-10
-2.51786e-11
1.33476e-10
4.35493e-11
-9.5536e-11
7.62983e-11
4.49742e-11
-5.04747e-12
-2.12692e-10
-1.44769e-11
2.21203e-10
-2.13923e-10
2.32049e-11
6.32674e-12
1.23824e-10
2.3584e-10
7.48145e-11
4.74508e-11
1.39593e-10
8.20559e-11
1.67218e-10
4.19467e-11
-7.11567e-11
-1.08298e-10
5.82273e-11
3.42682e-10
1.75667e-10
1.22586e-11
1.25358e-10
5.93913e-11
3.22385e-11
7.75866e-11
-8.04241e-11
1.91454e-11
1.61327e-10
7.29431e-11
-4.93177e-11
-4.9432e-11
2.60253e-10
2.84051e-10
1.14858e-10
6.03458e-11
1.08795e-10
-2.08795e-11
9.18826e-11
4.70828e-11
-1.49439e-10
-5.28311e-13
-9.00789e-11
-2.0853e-11
-2.40303e-11
-7.08709e-11
-1.27885e-10
3.11255e-11
1.87191e-10
1.63882e-10
1.80393e-10
2.06969e-10
1.97861e-11
-1.02756e-10
2.40212e-11
-7.71438e-11
2.28129e-11
-1.83283e-10
5.9074e-12
3.24339e-11
-7.40848e-11
7.02726e-12
-2.28841e-10
-1.09136e-10
1.51822e-10
1.84045e-11
-1.56607e-10
-1.11996e-11
9.28797e-11
1.16096e-10
1.98614e-11
-3.3268e-12
-1.88564e-10
-1.68796e-10
-2.36562e-10
-1.97796e-10
-1.32542e-10
-1.00651e-10
9.37556e-11
5.92321e-11
1.2366e-10
1.23962e-10
1.13111e-10
1.0024e-10
1.16727e-10
3.00804e-10
1.82555e-10
2.92563e-10
-1.16717e-10
3.36956e-11
9.29882e-12
-1.77578e-10
-7.97592e-11
-1.4715e-10
4.62189e-10
5.1024e-10
9.00149e-10
2.04404e-09
2.98775e-09
5.16071e-09
8.35228e-09
1.36882e-08
2.20143e-08
3.5438e-08
5.72818e-08
9.1818e-08
1.47119e-07
2.35509e-07
3.75728e-07
5.98762e-07
9.5115e-07
1.50853e-06
2.38694e-06
3.77063e-06
5.94296e-06
9.35155e-06
1.4683e-05
2.30196e-05
3.60158e-05
5.62703e-05
8.77459e-05
0.000136656
0.000212442
0.000329894
0.000511419
0.000792072
0.00122485
0.00189258
0.00292025
0.00450305
0.00693512
0.0106755
0.0164152
0.0252322
0.0387482
0.0594916
0.0912641
0.139993
0.214577
0.328909
0.503735
0.771699
1.18045
1.80793
2.75684
4.2286
6.37815
9.89597
6.04362e-11
8.97899e-11
1.63371e-11
1.00035e-10
-7.35164e-12
2.44445e-11
9.38899e-11
3.65558e-11
-1.10825e-10
-1.62724e-10
-5.20176e-11
7.79156e-11
6.09816e-11
6.39164e-11
-8.69899e-11
3.5629e-11
9.90527e-11
1.39339e-11
-7.28543e-11
-1.48814e-10
1.43039e-10
8.14991e-11
-7.68861e-11
-1.36661e-10
-5.87025e-11
-9.57013e-11
-9.07243e-13
1.4829e-10
3.22782e-11
-5.909e-11
-1.49186e-10
8.50885e-11
1.37328e-10
-5.61997e-12
-3.0848e-10
4.10995e-11
-1.56652e-11
-1.84775e-10
7.94387e-11
1.9813e-11
-6.1504e-11
2.31277e-11
-8.88312e-12
-5.41776e-11
5.28795e-11
-1.40253e-10
5.55826e-11
-8.70528e-11
2.31997e-11
-6.78116e-12
2.18934e-11
3.96588e-11
-4.09634e-11
-1.25593e-10
6.63937e-12
7.91411e-12
8.30779e-12
1.51772e-10
-1.55965e-10
-6.91722e-11
5.14906e-11
1.33858e-10
-1.02927e-10
-5.64963e-11
2.32593e-10
1.43355e-10
1.36471e-10
-3.25845e-11
-2.55716e-10
-2.07932e-11
-8.08991e-11
6.29446e-11
-8.76282e-11
-8.49079e-11
7.71696e-12
5.60421e-11
-4.78139e-11
-7.05507e-11
1.72278e-10
1.89714e-10
7.12947e-11
1.18274e-10
3.22604e-11
-9.7803e-11
-2.95017e-10
-1.19284e-10
-6.78279e-11
-9.90105e-11
8.04646e-11
2.70702e-10
8.21598e-11
3.87016e-11
-6.83045e-11
2.22767e-11
-1.03559e-10
6.63255e-11
6.27148e-11
6.14272e-13
2.51387e-11
-1.64209e-11
-7.83057e-11
4.37879e-11
-1.73022e-12
-3.04568e-11
-1.52936e-11
6.67146e-12
1.92676e-10
-1.97838e-10
-1.55403e-10
1.50014e-10
1.62272e-12
-3.79915e-11
4.83803e-11
-2.31973e-11
2.64859e-10
8.12273e-11
-9.84299e-11
-6.58963e-11
-2.27935e-11
-2.05215e-11
-1.44048e-10
-6.92777e-11
-1.28551e-10
-3.99992e-11
1.15546e-10
1.33154e-10
-4.56678e-11
1.53191e-10
2.98357e-11
9.83441e-11
4.07888e-10
1.4711e-10
1.3502e-11
-1.3686e-10
1.26935e-10
-4.11835e-11
-8.6962e-11
8.19073e-11
-3.8395e-12
2.30983e-11
1.97699e-11
-1.63897e-10
-1.08566e-10
-2.39728e-10
-1.76073e-10
-3.41649e-11
1.35459e-10
1.3952e-10
-1.97255e-11
-1.17615e-10
2.22715e-10
6.18633e-11
-5.76105e-11
-6.65285e-11
-1.55894e-10
2.52231e-10
5.01967e-11
2.36065e-11
8.01188e-11
8.60521e-11
-9.03668e-12
-9.85905e-11
2.54568e-10
1.70973e-14
2.27139e-11
8.45203e-11
-8.21548e-11
1.5425e-11
1.00235e-10
6.5496e-11
1.77332e-12
1.44988e-10
1.1717e-10
-1.83269e-10
-2.9119e-11
-6.51769e-11
-2.11079e-11
-1.07116e-11
-2.73848e-11
8.04643e-11
-2.60466e-12
1.35973e-10
5.11243e-11
9.24839e-11
3.50559e-11
1.14371e-10
-1.2963e-10
9.20323e-11
-2.76152e-11
8.33483e-11
2.70437e-11
-1.13414e-10
-1.50759e-10
-1.5895e-10
-2.01476e-10
-6.41117e-11
1.69262e-10
2.03319e-10
2.8239e-11
1.02827e-11
1.87336e-10
4.55888e-11
1.20273e-10
5.70492e-11
2.6966e-12
8.36931e-11
1.66685e-11
6.6335e-12
5.16481e-11
-1.18337e-10
-1.12316e-10
-2.67167e-10
-2.42442e-10
4.43502e-11
2.45672e-10
-5.57322e-11
-2.43254e-10
2.87065e-10
3.35674e-11
1.34612e-11
-6.08406e-11
2.07983e-11
-1.33066e-10
2.0547e-11
1.19408e-10
-7.58587e-11
-1.39197e-10
-2.20224e-10
-4.3298e-10
-1.86926e-10
-5.73075e-11
-2.75013e-10
-1.15107e-10
-9.08699e-11
1.10397e-10
-8.69399e-12
-8.44148e-11
-2.21954e-11
1.09506e-10
6.7946e-11
-9.41637e-11
9.29705e-11
4.08126e-11
3.08136e-10
-5.71313e-11
-5.7926e-11
3.32091e-10
3.53054e-10
8.10818e-10
1.49964e-09
2.09763e-09
3.70638e-09
5.81581e-09
9.68357e-09
1.56095e-08
2.51243e-08
4.05894e-08
6.48461e-08
1.04283e-07
1.66794e-07
2.66696e-07
4.25703e-07
6.7762e-07
1.07678e-06
1.70692e-06
2.70128e-06
4.2647e-06
6.72173e-06
1.05718e-05
1.66013e-05
2.60167e-05
4.07121e-05
6.3585e-05
9.91766e-05
0.000154408
0.000240113
0.000372755
0.000578068
0.000895059
0.00138465
0.00213897
0.00330181
0.00509027
0.00784288
0.0120702
0.018568
0.0285353
0.0438401
0.0672949
0.103282
0.15839
0.2429
0.372191
0.570473
0.873152
1.33832
2.0428
3.13824
4.74351
7.38518
-9.5798e-11
-2.39195e-12
9.66117e-11
-1.45613e-10
-1.51785e-10
-5.48428e-11
1.20337e-10
6.82904e-11
1.73124e-10