/*--------------------------------*- C++ -*----------------------------------*\
| =========                 |                                                 |
| \\      /  F ield         | OpenFOAM: The Open Source CFD Toolbox           |
|  \\    /   O peration     | Version:  2412                                  |
|   \\  /    A nd           | Website:  www.openfoam.com                      |
|    \\/     M anipulation  |                                                 |
\*---------------------------------------------------------------------------*/
FoamFile
{
    version     2.0;
    format      ascii;
    arch        "LSB;label=32;scalar=64";
    class       volScalarField;
    location    "0.001";
    object      ddt0(rho);
}
// * * * * * * * * * * * * * * * * * * * * * * * * * * * * * * * * * * * * * //

dimensions      [1 -3 -1 0 0 0 0];

internalField   nonuniform List<scalar> 
180000
(
3.55516e-11
-9.80564e-11
-2.10064e-10
-8.93202e-11
2.96472e-11
5.43179e-11
5.61715e-11
1.51277e-10
6.17103e-11
-7.64154e-11
-1.15184e-10
3.95882e-11
4.88542e-11
1.21668e-10
1.61377e-10
-1.97484e-11
5.56927e-12
-6.87359e-11
2.55537e-11
-1.76423e-11
1.15051e-10
-2.24477e-11
-1.21798e-11
-1.30065e-10
-8.99823e-12
5.63834e-11
-2.84786e-11
-1.95343e-12
4.52787e-11
-4.64289e-11
3.9417e-11
3.82626e-11
1.96424e-11
1.31275e-10
2.04061e-10
2.2574e-10
1.47991e-10
1.19305e-10
9.77867e-11
-8.35216e-12
3.15898e-11
-3.727e-12
-3.45314e-11
-6.44345e-11
-4.84278e-11
-1.74714e-10
-7.64935e-11
8.24706e-11
-1.46458e-10
-1.02524e-10
-4.85864e-11
6.10163e-11
-1.1321e-10
4.5041e-11
1.07512e-10
-4.30242e-11
-3.3001e-11
7.21847e-11
-3.08056e-11
-1.82127e-10
-1.49519e-10
1.64224e-11
2.08971e-11
-1.22603e-10
-1.08579e-10
-1.43654e-11
5.99528e-11
-2.14346e-11
-2.99497e-11
-5.20131e-11
-7.99031e-12
-1.74761e-10
-1.59525e-10
-1.85738e-10
-2.04502e-10
-1.40095e-10
-3.4791e-11
-2.59866e-11
-4.03424e-11
3.76689e-11
-5.27878e-11
7.27221e-11
1.21769e-10
7.53558e-11
1.53245e-10
9.64017e-11
-3.93438e-11
5.6927e-12
5.85661e-12
-5.9878e-11
1.59516e-10
-4.42776e-11
-1.22854e-11
1.96147e-10
1.36882e-10
1.09937e-10
4.27383e-11
1.43751e-11
6.05345e-11
-1.89043e-10
5.29098e-11
1.19732e-11
1.69015e-10
5.94195e-11
1.30808e-10
1.20645e-10
1.03465e-10
6.97292e-11
-1.57168e-10
6.03202e-11
8.73462e-12
8.1317e-11
1.39206e-11
1.93716e-11
-4.41877e-11
-2.31031e-11
-1.03575e-10
-6.72456e-11
-4.61724e-11
2.6524e-10
1.76309e-10
1.27719e-10
2.49892e-10
5.72122e-11
9.58202e-11
5.06175e-11
3.47928e-11
-1.05467e-11
-8.77308e-11
3.60067e-12
1.18514e-10
8.34546e-11
6.07363e-11
1.53263e-10
1.42581e-10
1.16612e-10
1.97381e-10
1.03925e-10
9.82119e-11
-1.17837e-10
-1.11183e-10
-4.2286e-11
-1.39545e-10
-2.53933e-10
-6.14654e-11
-2.03397e-11
1.65811e-11
5.26407e-11
3.71506e-11
-1.82947e-10
-5.1614e-11
7.58669e-13
-6.4719e-11
-1.6429e-10
-1.01413e-10
1.66671e-11
7.26335e-11
-1.91258e-11
-2.51742e-11
6.32993e-11
2.25243e-10
1.82687e-10
2.74341e-10
2.41069e-10
1.94684e-10
2.33373e-10
1.70675e-10
1.34897e-10
1.34577e-10
-2.89921e-12
4.55515e-11
-9.8796e-11
6.64037e-11
1.36755e-10
1.41505e-10
4.74933e-11
-3.6206e-12
1.00231e-10
1.3266e-10
9.27702e-11
-1.05263e-10
4.09661e-11
1.97664e-11
4.29624e-11
5.90974e-11
-3.76857e-11
6.69793e-11
-2.41373e-12
9.88427e-12
1.01232e-10
1.13784e-10
2.00903e-10
2.38357e-10
8.02841e-11
8.11536e-11
5.51508e-11
5.07164e-11
-4.11444e-11
7.83365e-11
2.44737e-11
1.87965e-10
1.33404e-10
2.69363e-10
1.55869e-10
7.89453e-11
1.22524e-11
-1.816e-14
8.17322e-11
7.96697e-11
2.66039e-11
9.75673e-11
1.26473e-10
1.21469e-10
1.77813e-10
1.20402e-10
2.02867e-10
2.30336e-11
4.3395e-11
9.89841e-11
8.35443e-11
5.2191e-12
8.93743e-12
6.1837e-11
-1.5332e-11
3.93797e-11
6.35953e-11
-4.99596e-11
2.25482e-11
-1.26228e-10
-5.82658e-12
4.17305e-11
2.52476e-11
4.73239e-11
1.59625e-10
1.40135e-10
1.81553e-10
4.34429e-12
4.36764e-11
9.7641e-11
3.75807e-11
1.11432e-10
5.7803e-11
-8.91527e-11
-1.35104e-10
-1.12289e-10
-9.35099e-11
-2.18651e-11
-5.48639e-13
1.73112e-10
2.70613e-10
4.96187e-10
6.41952e-10
1.01219e-09
1.76932e-09
2.73486e-09
4.39318e-09
7.2143e-09
1.15367e-08
1.8447e-08
2.94053e-08
4.6846e-08
7.4832e-08
1.1904e-07
1.89143e-07
3.00374e-07
4.77211e-07
7.5676e-07
1.1999e-06
1.90149e-06
3.01479e-06
4.78188e-06
7.59312e-06
1.20736e-05
1.92352e-05
3.07053e-05
4.91252e-05
7.87622e-05
0.000126547
0.000203681
0.000328361
0.000529949
0.000856121
0.0013836
0.00223683
0.00361544
0.005843
0.00943688
0.0152358
0.0245755
0.0396179
0.0637807
0.102592
0.164655
0.263901
0.420731
0.668203
1.04584
1.62836
2.44146
3.64315
1.3174e-10
8.01218e-11
8.98038e-11
-1.56994e-10
-1.86647e-11
-9.40365e-12
-8.34267e-12
-5.76867e-12
-2.91041e-11
-6.81961e-11
-5.17598e-11
3.83067e-11
-8.5034e-11
-1.46066e-11
-1.76094e-10
-6.41456e-11
3.76147e-11
1.16177e-11
1.65523e-12
-1.29565e-10
-3.50675e-11
1.28069e-10
5.85545e-11
4.14926e-11
5.20598e-11
4.5921e-11
-4.19409e-11
1.20045e-10
-4.74074e-11
-3.37309e-11
-1.00249e-11
1.36346e-10
1.88527e-10
2.69881e-10
9.16715e-11
1.34135e-10
1.16143e-10
1.56196e-10
5.20245e-11
8.43608e-11
-2.32386e-11
5.47236e-12
-2.88025e-11
-7.49672e-11
-9.4132e-12
-1.3834e-10
7.20178e-11
-7.12114e-11
4.02085e-11
1.7832e-11
3.24017e-11
3.01329e-11
-1.3156e-10
-1.45045e-10
-1.40541e-10
-1.92709e-10
-6.46633e-11
-3.72951e-11
-7.08617e-11
-1.34324e-10
-3.23458e-11
-9.7744e-11
8.65793e-11
1.23672e-11
6.0912e-12
1.63525e-11
-3.93853e-11
1.77889e-11
3.41605e-12
-4.43471e-11
2.12797e-11
-1.98614e-11
-2.35044e-10
-1.81507e-10
-1.73891e-10
-2.33256e-10
-1.93712e-10
-1.69797e-10
-1.16158e-10
-1.48069e-11
9.86621e-13
2.4092e-10
1.21417e-10
8.42595e-11
7.78204e-11
1.90682e-10
3.81565e-11
3.87121e-11
9.69401e-11
8.27134e-11
-1.42708e-10
-4.87523e-11
1.34961e-10
1.66027e-11
3.3556e-11
2.12199e-11
1.09882e-11
2.77849e-12
-7.15068e-11
-1.34059e-11
-1.031e-10
-2.10742e-10
-1.2064e-11
-2.49169e-11
-3.62019e-11
1.08787e-11
-1.2191e-10
8.77473e-11
6.71423e-11
-6.22323e-11
-2.27078e-11
-3.52893e-11
-7.47082e-11
-5.84616e-11
-4.10199e-12
-2.57337e-11
1.2494e-11
-9.43735e-11
6.01127e-11
1.31164e-10
1.59778e-10
1.50684e-10
-1.20563e-11
3.58867e-11
1.95973e-10
1.20622e-10
2.72946e-10
2.65409e-10
4.63104e-11
3.70621e-11
1.9596e-10
8.09249e-11
1.24701e-10
1.73427e-10
1.86578e-10
3.87347e-11
1.07242e-10
8.17793e-11
-1.14976e-10
-4.53673e-11
-1.30196e-11
-6.39687e-12
8.31094e-11
6.62005e-11
2.11295e-10
1.54637e-10
3.71574e-11
-7.80166e-11
6.62219e-11
-4.72607e-11
1.60827e-10
1.05542e-10
-1.60983e-10
-2.01088e-10
-1.39166e-10
-8.57248e-11
-1.93509e-10
-2.20794e-10
-1.79495e-10
-2.45678e-10
-6.24339e-11
-2.77611e-11
7.2094e-11
-4.02288e-11
4.37375e-11
1.19746e-10
9.661e-11
-5.39143e-11
-7.66233e-11
1.33097e-11
9.19427e-11
6.97124e-11
-4.04015e-11
4.8849e-11
-2.41383e-11
1.45405e-10
1.20708e-10
1.54339e-10
3.93454e-11
2.92994e-10
3.03625e-10
1.88967e-10
2.10912e-10
1.51974e-10
1.55666e-10
8.17009e-12
-4.15113e-11
7.24863e-11
1.97308e-11
2.47047e-10
-2.28482e-12
1.18972e-10
6.98039e-12
1.0312e-10
1.44009e-10
3.52158e-11
1.18688e-10
3.50062e-11
-5.04345e-11
-1.20854e-10
-1.85381e-10
-1.06153e-10
-9.10108e-11
-8.19345e-11
8.60674e-11
-1.15159e-10
-6.69698e-11
1.00182e-11
-3.53895e-11
2.50857e-10
3.20573e-10
9.66225e-11
1.99401e-10
1.78882e-10
1.30099e-10
6.49362e-11
5.34651e-11
9.01085e-11
-5.14203e-12
-8.67827e-11
-7.00575e-11
-8.78724e-11
-4.64503e-11
-1.28114e-10
-6.63986e-12
-7.0072e-11
-2.2549e-11
1.60144e-10
-1.69565e-11
2.96115e-11
1.96174e-10
5.30875e-11
6.21781e-11
1.13755e-10
6.78637e-11
-9.88096e-12
-9.16128e-11
-2.14982e-10
-5.46326e-11
-7.15421e-11
-1.89739e-11
1.45472e-11
4.7823e-11
2.52565e-11
1.04338e-10
4.12629e-11
1.26957e-10
1.74384e-10
2.32041e-10
5.00795e-10
5.12188e-10
7.48258e-10
1.13473e-09
1.95737e-09
2.70184e-09
4.36684e-09
7.0738e-09
1.10412e-08
1.77592e-08
2.83945e-08
4.51609e-08
7.18056e-08
1.14387e-07
1.819e-07
2.89218e-07
4.59062e-07
7.28081e-07
1.15417e-06
1.8287e-06
2.89819e-06
4.59445e-06
7.29037e-06
1.1581e-05
1.84278e-05
2.93725e-05
4.69111e-05
7.50604e-05
0.00012033
0.000193201
0.000310657
0.000500005
0.000805456
0.00129791
0.00209206
0.00337121
0.00543151
0.00874477
0.0140725
0.0226235
0.0363449
0.0583077
0.0934441
0.149447
0.23865
0.379602
0.601575
0.943524
1.47211
2.24611
3.41547
-6.48497e-11
-6.39387e-12
1.24286e-10
1.36633e-11
-5.27968e-11
-7.16106e-11
-3.06222e-11
-2.09134e-11
-7.59827e-11
-2.4196e-11
1.67278e-10
8.17379e-12
6.29861e-11
-6.29991e-11
3.32626e-11
-6.51415e-11
-6.99899e-11
-3.07584e-11
3.33328e-11
4.58895e-11
-6.45292e-11
1.26539e-11
-1.74556e-11
4.2352e-11
-6.96671e-11
-4.58878e-11
-7.41265e-11
9.04515e-11
5.26987e-11
-3.39951e-11
1.79602e-10
1.04001e-10
1.48183e-10
2.06893e-10
6.97689e-11
-7.07475e-11
2.50361e-11
-3.52335e-11
1.28686e-10
1.36611e-10
1.32035e-10
9.798e-11
1.10721e-10
9.49559e-11
2.0501e-10
1.75599e-10
1.03892e-10
-9.57124e-11
1.01077e-10
-9.72343e-11
-4.46851e-11
1.50956e-11
-5.39805e-11
-1.69255e-10
-1.21771e-10
7.32584e-12
-1.28992e-10
8.35877e-11
1.68114e-10
8.71616e-11
3.33996e-11
1.53093e-11
3.75484e-11
4.22509e-11
-3.40436e-11
1.61004e-11
-3.52924e-11
-8.25927e-11
-1.24376e-10
-9.62441e-11
4.87448e-12
-7.88277e-11
-9.22597e-11
-1.40491e-12
4.12082e-12
-9.58101e-11
4.17274e-11
5.55201e-11
-6.6008e-12
-1.15319e-10
2.12984e-11
1.34856e-10
1.09403e-10
-3.11325e-11
-8.27329e-12
1.95946e-11
5.18852e-12
4.40848e-12
-1.20407e-10
-2.31304e-10
-1.97393e-10
-1.29457e-10
4.42594e-11
-4.49541e-11
-2.58869e-11
6.93283e-11
-3.20815e-11
1.07046e-10
8.84504e-11
2.12734e-10
1.71356e-10
1.38643e-10
3.5242e-10
1.32517e-10
-4.17997e-11
-2.91275e-11
2.57064e-11
-3.48721e-11
5.89703e-11
2.22653e-11
1.28641e-11
-8.52553e-11
2.61703e-11
-5.27491e-11
-1.30015e-10
5.86902e-11
-1.61953e-11
4.69286e-11
4.52862e-11
2.94137e-11
6.4932e-11
9.14819e-11
-8.99894e-11
8.61001e-11
9.14209e-11
3.07278e-11
-4.85716e-11
6.09017e-11
-1.03706e-11
-3.9307e-11
5.20221e-11
2.71468e-10
2.13539e-10
1.92617e-10
-9.9245e-12
-5.86123e-12
6.38497e-11
-7.74688e-11
-7.90008e-11
-1.78901e-11
-1.60181e-10
-1.41125e-10
-3.18364e-11
-2.06858e-11
9.60104e-11
-3.83477e-11
-4.01899e-14
-1.06823e-10
-5.47782e-12
-4.0134e-11
-1.54913e-11
7.28074e-11
-2.24696e-11
-2.66053e-11
-7.80691e-11
1.03202e-11
1.57998e-11
-1.08057e-10
1.02588e-10
1.00287e-10
-4.6791e-11
-9.79013e-11
-1.14488e-11
-4.4114e-11
2.34164e-11
-8.85903e-11
-8.87937e-11
-1.80478e-11
-9.74389e-11
3.83566e-12
-1.2363e-11
-2.31155e-12
-5.3635e-11
5.35768e-11
-1.04927e-10
-5.68093e-11
-5.9907e-11
3.55781e-11
-5.82729e-11
-2.97479e-11
-2.92733e-11
-1.28998e-11
-1.09791e-10
-1.54135e-10
-7.63522e-11
3.72289e-12
-1.10307e-11
-2.09276e-10
-8.85191e-11
-3.04032e-11
-1.39533e-10
-9.51862e-11
-1.86341e-10
-1.35527e-10
-5.91211e-11
-8.12994e-11
-8.05609e-11
-1.11378e-10
8.42636e-11
-8.58804e-11
-1.04867e-10
-5.55894e-11
-1.07146e-10
-6.59662e-11
2.57751e-11
4.44654e-11
-5.08874e-11
-1.22606e-10
-9.28948e-11
-1.20284e-10
-8.72848e-11
-5.13168e-11
-6.5379e-11
-8.89678e-11
-1.24344e-10
-9.1113e-11
-6.56888e-11
-7.01781e-11
5.5632e-11
1.87085e-11
1.14432e-10
2.19906e-11
1.23468e-11
5.93686e-11
1.2959e-10
1.65384e-10
9.45404e-11
1.28847e-10
1.51774e-10
1.26208e-11
-1.15246e-10
-4.60692e-11
-5.07014e-12
-1.4455e-10
2.00399e-11
2.03461e-11
1.11018e-10
1.50306e-10
1.51243e-10
-1.62765e-11
1.06561e-10
3.52697e-11
7.72198e-11
2.1302e-11
1.05577e-10
8.26499e-11
1.90587e-10
2.5242e-10
3.34106e-10
3.6294e-10
4.934e-10
5.98962e-10
1.09313e-09
1.64432e-09
2.50053e-09
4.14693e-09
6.7389e-09
1.04601e-08
1.66354e-08
2.64541e-08
4.20684e-08
6.70423e-08
1.06417e-07
1.69197e-07
2.68607e-07
4.26383e-07
6.76118e-07
1.07153e-06
1.69681e-06
2.68761e-06
4.25642e-06
6.7461e-06
1.07e-05
1.69932e-05
2.70228e-05
4.30435e-05
6.86646e-05
0.000109717
0.00017554
0.000281221
0.000450897
0.000723519
0.00116127
0.00186438
0.00299238
0.00480209
0.00770097
0.0123442
0.0197677
0.0316343
0.0505573
0.0807249
0.128645
0.204785
0.324861
0.514194
0.806383
1.26309
1.9403
3.0068
-1.67682e-11
3.09578e-11
2.31191e-11
-3.81866e-11
4.12236e-11
-6.94807e-12
1.74008e-11
4.2163e-12
8.14419e-11
2.42458e-11
-2.81865e-11
-4.13585e-11
-9.67008e-11
-2.43043e-10
-3.74305e-11
1.2906e-10
1.11731e-10
4.49241e-11
-9.3478e-12
-4.65084e-11
6.3691e-11
4.72204e-11
-5.23075e-11
-1.02988e-10
-2.56656e-12
-1.14704e-10
4.7077e-11
-3.8554e-11
-1.60067e-10
4.73305e-11
2.88228e-11
-2.4309e-11
1.93979e-11
-1.75334e-12
1.9017e-11
-2.30288e-11
-1.11187e-10
-1.33776e-10
-1.95856e-10
-1.66235e-11
-4.54017e-11
-9.06397e-11
-9.75756e-11
-1.30288e-11
-1.66319e-10
-6.91236e-11
-1.27996e-10
-4.44636e-11
-1.30778e-10
-9.21491e-11
-9.03066e-11
-1.14263e-10
-2.95921e-11
-5.80676e-11
-1.34965e-10
-2.0272e-11
-6.79561e-11
3.27412e-11
-5.31745e-11
8.16535e-11
2.15215e-11
3.21913e-11
1.07189e-10
9.05958e-12
7.77909e-11
1.08882e-10
1.19529e-10
1.21201e-10
5.95196e-13
1.93445e-10
1.25174e-10
1.67721e-10
1.61044e-10
2.05933e-10
7.91912e-11
-3.70457e-11
8.02184e-11
5.74021e-11
-4.61373e-11
-8.04846e-11
-9.71134e-11
-1.16403e-10
-1.24865e-10
2.87209e-11
-6.40095e-11
-2.78024e-11
-1.7816e-10
5.04216e-11
-2.06357e-11
-1.03644e-10
-7.43565e-11
5.64465e-11
-1.83863e-10
-7.53885e-11
-1.82025e-11
3.50826e-11
5.64779e-11
-5.36507e-11
-1.02383e-10
-4.34212e-11
-1.56749e-10
-2.97194e-12
-1.19244e-11
7.77365e-12
-1.02849e-11
1.90667e-11
6.74168e-11
1.46866e-11
-1.41365e-11
-6.13474e-12
4.72988e-11
1.18627e-10
1.02978e-10
1.063e-10
-2.64137e-11
-2.85976e-11
-8.8545e-11
-7.65155e-11
-5.88098e-11
-1.19188e-10
-7.42406e-11
-6.83192e-11
-5.55251e-11
5.76329e-11
1.749e-10
-4.15493e-13
-4.11612e-11
7.0309e-11
-1.43344e-10
6.21339e-12
-1.76226e-10
-9.69184e-11
-1.74404e-10
-1.3395e-10
7.34988e-11
1.05472e-10
2.80357e-10
2.15312e-10
2.80223e-10
1.15791e-10
8.36613e-11
-1.40136e-13
5.21853e-11
5.69765e-11
3.75481e-11
-5.05962e-11
4.72982e-11
9.89805e-11
-1.38966e-10
-5.43581e-11
-1.67231e-12
-2.19571e-10
-1.15202e-11
-2.83703e-10
-1.58071e-10
4.1667e-11
2.08155e-10
7.46292e-11
9.80495e-11
-3.14398e-11
3.61642e-11
7.37918e-11
6.71351e-11
2.23804e-11
-8.37056e-12
-7.17337e-12
-1.0669e-10
-3.36526e-11
2.00188e-10
-6.22438e-11
-9.5875e-11
-1.5616e-10
-1.30832e-10
-1.13032e-10
-1.57449e-10
3.829e-11
8.37144e-12
2.70922e-11
1.8482e-10
1.23753e-10
6.79277e-11
1.80396e-10
1.8466e-10
1.14055e-10
2.48879e-10
-7.7157e-11
8.55056e-12
-7.82674e-11
-5.57314e-11
2.54376e-11
-2.34498e-11
-4.60461e-11
1.20146e-10
-3.26162e-11
-6.40735e-11
-9.85243e-11
-7.30596e-11
-1.51744e-10
-6.9292e-11
-9.29734e-11
-1.38301e-11
-9.74878e-12
5.30817e-11
3.94109e-11
5.00228e-11
1.31182e-10
1.70456e-10
1.40274e-10
-5.57704e-11
3.49078e-11
1.25949e-10
1.43631e-10
9.73934e-11
4.59303e-11
-3.39081e-11
4.49858e-11
1.23066e-10
3.05319e-11
-1.34138e-11
-1.61886e-11
-1.82383e-11
-5.50772e-11
-7.08104e-11
-2.30135e-11
-9.44148e-11
4.83413e-11
9.92073e-11
-2.08755e-11
4.97042e-11
-1.59175e-11
-1.29217e-11
-2.03396e-11
4.9511e-11
1.84902e-10
8.07221e-11
7.43784e-11
6.51223e-11
-8.81361e-11
-1.59811e-10
-5.60612e-11
-1.11668e-11
9.38185e-12
6.36255e-11
3.70925e-11
1.27653e-10
-2.64342e-11
5.53994e-11
1.77216e-10
1.60419e-10
2.06604e-10
5.2244e-10
5.75297e-10
1.07007e-09
1.53141e-09
2.3506e-09
3.80604e-09
5.96146e-09
9.61668e-09
1.48618e-08
2.38343e-08
3.78424e-08
6.03807e-08
9.57553e-08
1.52152e-07
2.41382e-07
3.82965e-07
6.06989e-07
9.61847e-07
1.52238e-06
2.40947e-06
3.81253e-06
6.03488e-06
9.55571e-06
1.51445e-05
2.40221e-05
3.81522e-05
6.06606e-05
9.65793e-05
0.000153923
0.000245593
0.000392116
0.000626506
0.00100119
0.00160037
0.00255741
0.00408625
0.00652474
0.0104142
0.0166069
0.0264665
0.0421286
0.0670083
0.106398
0.168824
0.267089
0.422078
0.661649
1.03896
1.60509
2.52075
9.30544e-11
-7.89004e-12
1.19219e-10
-1.72791e-11
-9.96004e-11
8.96688e-12
-5.34588e-11
4.90371e-11
6.01816e-11
4.81734e-11
-3.56739e-12
-8.7448e-11
-4.23677e-11
1.2344e-10
-1.40958e-11
-1.02532e-10
-3.21007e-11
4.40247e-11
4.15672e-11
5.04514e-12
-7.649e-11
-7.91355e-11
-5.08686e-12
-3.71455e-11
-5.79049e-11
-9.21231e-11
-3.56467e-11
-1.29164e-10
-2.94267e-11
-9.28095e-11
-1.35843e-10
-4.00369e-11
-4.85709e-11
-7.05052e-11
3.28594e-11
-1.43125e-11
-1.53357e-10
-1.33673e-10
-3.37215e-11
3.88744e-11
-3.40617e-11
-1.30138e-10
2.91186e-11
1.15932e-10
7.36699e-11
1.16316e-10
-2.84836e-11
2.47379e-11
-2.72406e-11
-1.11295e-10
-2.00425e-10
-4.95962e-11
8.4308e-11
-1.03882e-10
1.65097e-11
-8.08961e-11
-6.07051e-11
7.3699e-11
-3.58863e-11
-1.91249e-11
-2.11263e-11
5.75343e-11
-1.13441e-10
6.16181e-11
7.81587e-11
4.04026e-11
-1.81678e-11
1.52393e-10
4.51793e-11
-7.28452e-13
1.41078e-10
2.73318e-10
1.8907e-10
1.14333e-10
2.12599e-11
1.78022e-10
9.36547e-13
4.7603e-11
8.54227e-11
4.00066e-11
3.49146e-11
5.8441e-11
6.3724e-12
-2.01339e-11
-3.3088e-12
-2.43884e-11
2.5127e-11
3.02162e-11
-7.00664e-11
7.70116e-11
8.99516e-12
-5.56078e-11
8.71763e-11
-4.71102e-11
-2.55079e-11
6.66028e-11
6.50746e-11
4.45436e-11
-3.41844e-12
-2.00004e-11
-8.11283e-11
-2.16928e-10
-3.12631e-10
-1.55887e-10
-9.92708e-11
-2.0773e-10
-1.62107e-10
-1.4112e-10
-1.66515e-10
-1.03071e-10
7.35788e-12
-4.23225e-11
1.32349e-11
1.04225e-10
1.60192e-10
8.26779e-11
-4.17452e-11
8.18427e-11
-2.50384e-11
-2.11919e-10
-9.35138e-11
1.27908e-11
6.79787e-11
-1.04195e-10
-8.03856e-11
-8.21176e-11
-1.06922e-10
8.92899e-11
-1.77446e-11
-1.30263e-10
5.00088e-12
-1.60416e-10
-5.7112e-11
2.59812e-11
2.6274e-11
1.76922e-10
1.2388e-10
9.19294e-11
-1.11782e-10
3.65575e-12
7.73587e-12
-8.80121e-11
2.61572e-11
-8.30201e-11
1.71338e-10
8.43521e-11
7.90748e-11
3.20302e-11
-4.88003e-11
2.22303e-11
2.87248e-11
3.20914e-11
-2.63668e-11
-1.77331e-12
2.98771e-11
7.93233e-11
2.22295e-12
-7.52565e-11
-2.58349e-10
-7.19237e-11
-7.59879e-11
1.07845e-10
-8.97846e-11
-4.34603e-11
-7.37509e-11
-9.59514e-11
4.85255e-12
1.65612e-10
7.67913e-11
1.05987e-10
7.12728e-11
-6.93517e-11
1.17317e-10
6.59257e-11
1.65761e-10
1.38959e-10
8.05817e-11
5.92241e-11
1.85732e-10
2.81436e-11
4.22783e-11
1.72317e-10
1.90872e-10
8.57053e-11
7.76741e-11
5.11007e-11
2.97549e-12
-3.39492e-11
-2.09103e-10
-1.3731e-10
3.11009e-11
1.4435e-10
-5.11355e-11
7.75043e-12
1.17825e-11
3.33172e-11
-4.89893e-11
1.58287e-11
-5.00831e-11
6.83798e-11
1.1095e-10
2.21586e-10
1.81297e-10
3.93916e-11
7.82635e-11
2.22803e-10
1.07736e-10
1.28692e-10
1.31588e-10
2.24767e-10
2.3349e-10
2.02976e-10
2.54084e-10
-2.65422e-11
-4.59714e-11
1.83577e-12
1.58754e-10
8.97152e-11
5.32499e-11
2.24859e-10
8.48208e-11
8.19393e-11
9.69115e-11
2.93489e-11
3.87782e-11
-8.73232e-11
-6.12295e-11
-1.64327e-10
-2.13594e-11
-1.30368e-10
-9.43941e-11
-1.91269e-10
-5.84283e-11
8.83087e-12
-4.57316e-11
-9.39786e-13
-5.15665e-11
5.27608e-11
5.10714e-11
-4.55902e-11
1.10083e-11
-4.71052e-11
2.11026e-10
2.53704e-11
1.16798e-10
2.7347e-10
1.33871e-10
1.31213e-10
3.30343e-10
2.48171e-10
3.71374e-10
6.15764e-10
8.76797e-10
1.35799e-09
2.12624e-09
3.19879e-09
5.27947e-09
8.25036e-09
1.30881e-08
2.08678e-08
3.31372e-08
5.26309e-08
8.37407e-08
1.32833e-07
2.10567e-07
3.33934e-07
5.28936e-07
8.37486e-07
1.32509e-06
2.09568e-06
3.31324e-06
5.23882e-06
8.28284e-06
1.3103e-05
2.07366e-05
3.28471e-05
5.20661e-05
8.26168e-05
0.000131189
0.000208514
0.00033158
0.000527624
0.000839684
0.00133667
0.00212725
0.00338517
0.00538369
0.00855933
0.0135967
0.0215884
0.0342403
0.0542757
0.0859061
0.135922
0.214525
0.338495
0.53029
0.833892
1.29313
2.04917
-1.12377e-10
3.92096e-11
1.92512e-12
1.33979e-10
1.52669e-12
-7.92751e-11
2.88138e-12
-3.8086e-11
-3.83598e-11
-2.69919e-11
-2.55173e-11
-5.50035e-11
1.1433e-10
1.04913e-10
7.24823e-11
6.82701e-11
-3.24005e-11
-2.02202e-11
4.61069e-14
-9.01089e-11
-2.36195e-10
-5.14602e-11
-7.10219e-11
5.39149e-11
-4.00342e-11
1.25898e-10
7.52251e-11
1.98976e-11
-1.03275e-10
-6.62851e-11
-1.30661e-10
-8.12182e-11
4.74711e-11
-6.27188e-11
-1.24889e-10
-1.95754e-10
-1.34122e-10
-1.39566e-10
4.26319e-11
6.33797e-11
-5.46375e-11
-2.06951e-11
-1.28461e-10
-1.31579e-10
1.25376e-11
3.33684e-11
4.0282e-11
8.67929e-11
-7.61716e-11
1.39275e-10
6.74021e-11
2.47246e-11
6.30707e-11
-2.2117e-11
-3.48977e-11
-4.96894e-11
-7.10035e-11
-4.52415e-11
3.59298e-11
-6.46303e-11
-3.89003e-11
-2.66763e-11
-1.46229e-10
-8.02447e-11
2.33971e-10
1.50164e-10
1.02633e-10
2.36727e-10
8.64316e-11
2.45637e-11
-9.20631e-11
-8.93719e-12
6.54688e-11
1.32867e-10
1.45268e-10
1.10348e-10
7.65145e-11
-3.26041e-11
-2.17004e-11
9.55667e-11
9.10038e-11
2.19889e-10
6.78721e-11
1.70654e-10
4.45972e-11
9.13756e-11
5.05314e-11
-4.0221e-11
-1.03303e-10
-3.47108e-11
-1.2281e-10
-1.067e-10
-1.29288e-10
-5.54636e-11
-1.52894e-10
-4.92307e-11
-9.91354e-11
6.94521e-11
-7.26538e-11
7.79721e-11
-1.94357e-10
-1.83893e-10
-1.34151e-10
-1.63248e-10
-2.40817e-11
-1.46547e-10
-1.55615e-10
-9.27131e-11
2.15936e-12
-3.26498e-12
-8.50456e-11
3.0186e-11
1.00747e-10
-2.10234e-12
1.22677e-10
6.67767e-11
1.41921e-11
-1.69865e-10
2.57546e-11
-8.50925e-11
3.62789e-11
4.14463e-11
-2.78216e-12
3.70252e-11
8.31403e-12
-7.77736e-11
-1.31829e-10
-9.97651e-11
-3.50065e-11
-9.87075e-12
1.09337e-10
-6.7904e-11
6.99942e-11
5.35068e-11
-3.5749e-12
-9.07504e-11
-4.29506e-11
-2.51415e-11
-1.38953e-10
-1.00082e-10
-1.10788e-10
-9.20728e-11
-2.07827e-10
-1.67793e-10
-1.52041e-10
-1.24509e-10
-7.65665e-11
-9.57854e-11
1.39326e-10
2.90531e-11
-1.05542e-10
-7.4647e-11
-6.51231e-11
-1.77827e-10
-1.87868e-10
-1.45791e-10
-5.01373e-11
-9.77015e-11
-5.04773e-11
-1.08995e-11
-9.05552e-11
-9.65908e-11
2.11936e-11
5.00205e-11
-3.59171e-12
8.18051e-11
1.21235e-10
6.5779e-11
3.36834e-11
-5.83306e-11
-5.80373e-11
-3.63091e-11
-1.05388e-11
1.94848e-11
7.29219e-11
-1.03929e-10
4.51068e-11
3.54224e-11
2.9228e-10
-1.49274e-11
1.5326e-10
2.08889e-10
1.93369e-10
-1.15442e-11
5.79299e-11
1.30344e-10
-3.19486e-11
-2.84069e-12
-7.80588e-11
-2.03353e-10
-2.50267e-11
-6.66419e-11
-1.65471e-10
-4.55983e-11
-1.44832e-10
-1.46553e-10
-3.69674e-11
2.95015e-11
-8.59416e-11
-1.754e-10
-8.89746e-11
7.43933e-11
-8.6636e-11
-1.75658e-10
-1.9939e-10
-2.91597e-11
-1.32404e-11
3.63825e-11
1.12585e-10
5.2191e-11
1.09372e-10
7.68878e-11
9.20454e-11
1.37637e-10
1.12935e-10
1.05611e-10
-5.9261e-11
1.1365e-10
1.3624e-10
8.46384e-11
1.58542e-10
-1.10239e-11
2.76426e-11
1.32302e-11
-1.38766e-10
-3.77889e-11
6.99593e-11
7.16577e-11
1.2868e-10
1.0907e-10
9.31691e-11
-5.84173e-11
5.62566e-11
-2.81303e-11
3.17132e-11
8.53395e-11
-3.46426e-11
8.4263e-11
7.76323e-11
4.99909e-11
5.94636e-11
-2.65527e-11
1.67527e-12
1.45326e-10
3.84192e-11
9.71002e-11
1.217e-10
2.31297e-10
3.81157e-10
2.81771e-10
2.29226e-10
6.59867e-10
8.52845e-10
1.13163e-09
1.77374e-09
2.81885e-09
4.4036e-09
7.11367e-09
1.13215e-08
1.79208e-08
2.82903e-08
4.49583e-08
7.11938e-08
1.12969e-07
1.78964e-07
2.8348e-07
4.48744e-07
7.09952e-07
1.12244e-06
1.77423e-06
2.80253e-06
4.42679e-06
6.99032e-06
1.10419e-05
1.74424e-05
2.7569e-05
4.35893e-05
6.89706e-05
0.000109177
0.00017295
0.000274063
0.000434536
0.000689019
0.00109285
0.00173294
0.00274793
0.00435506
0.00690059
0.0109257
0.0172926
0.0273435
0.0432186
0.0682216
0.107683
0.169608
0.267242
0.418357
0.658315
1.02323
1.63092
6.98886e-12
2.41909e-11
1.61269e-12
-5.31809e-12
4.77772e-11
8.13674e-11
-1.16557e-10
4.92364e-11
6.32164e-11
-1.07682e-10
-1.41216e-11
8.6484e-12
7.47061e-11
-5.61905e-11
2.43915e-12
1.88983e-12
2.44844e-12
5.60721e-11
1.03447e-10
-3.87607e-11
2.175e-11
-1.76564e-11
-9.32667e-11
-1.04787e-10
-8.4789e-11
-4.05059e-11
-4.45956e-11
-8.16266e-11
-6.96383e-12
-4.95413e-11
2.28407e-11
3.86605e-11
8.82348e-11
6.8233e-11
-1.56463e-11
-2.77972e-11
2.123e-12
7.75309e-11
-3.38397e-11
-5.54627e-11
1.00714e-11
4.04035e-11
2.21048e-11
-1.43766e-10
-1.44383e-10
-4.84918e-11
1.70449e-11
-5.73516e-11
-2.97726e-11
-3.78907e-11
-1.76526e-10
-9.23084e-11
2.46552e-11
4.28874e-11
5.77606e-11
9.93014e-11
8.27932e-11
5.41063e-11
2.40488e-11
2.93539e-11
8.73307e-11
-2.71376e-11
-3.31959e-11
4.22568e-11
1.08108e-11
3.78024e-11
-7.12174e-12
-1.17456e-10
1.17648e-10
8.59206e-11
-9.8814e-11
1.38289e-12
1.17257e-10
1.53492e-10
-1.0396e-10
5.55425e-11
-5.30764e-11
5.55043e-11
1.56586e-10
-1.8571e-11
-2.68224e-11
-7.39085e-11
-1.1177e-10
-3.97238e-11
7.89094e-11
5.38759e-11
1.14704e-10
1.0877e-10
-9.0965e-11
6.16584e-11
2.08382e-11
3.45383e-11
1.01174e-11
1.55955e-10
1.87538e-11
3.89772e-11
-7.84783e-11
-2.27866e-11
2.56885e-10
1.23959e-10
1.15303e-10
1.91044e-10
1.29232e-10
1.0758e-10
8.22089e-11
8.459e-11
1.03088e-10
8.05642e-11
1.09458e-10
2.94462e-11
-5.60742e-11
4.21544e-12
2.13071e-10
-3.34602e-11
-3.64186e-11
6.47857e-11
-7.9893e-11
3.6662e-11
8.98241e-11
2.51722e-11
-6.33222e-11
-5.51507e-11
7.82378e-11
1.37505e-10
9.27155e-11
-3.93767e-11
4.35259e-11
1.06047e-10
-1.87852e-11
-6.73499e-11
-4.46545e-11
-1.88596e-10
-1.76892e-10
-6.25309e-11
-4.63765e-12
-2.01502e-10
-1.2331e-10
-7.70485e-11
-1.63359e-10
-3.36083e-10
-2.0386e-10
-1.76819e-10
-1.25425e-10
-1.24655e-10
-2.18883e-10
-7.91411e-11
-1.0289e-10
-2.27551e-11
3.31315e-12
6.83695e-11
1.53775e-10
6.11174e-11
1.54807e-10
3.021e-11
2.60768e-11
5.22459e-11
-1.17982e-10
-6.51298e-12
-2.61018e-10
-1.16917e-10
-8.01441e-11
-1.61883e-11
1.37973e-10
7.34782e-11
9.81695e-11
6.7142e-11
2.00672e-10
-2.02324e-11
9.17194e-11
1.82146e-11
-2.4545e-11
3.81644e-11
-4.56073e-11
-4.98611e-11
-1.56829e-10
-7.68098e-11
-3.58186e-11
-2.57199e-11
-3.06777e-12
-2.09342e-11
-1.28763e-11
-7.35075e-11
-1.06368e-10
8.25065e-11
-7.20171e-16
-1.83708e-11
-9.57115e-11
6.66383e-12
-1.63982e-10
-3.42949e-11
-1.43488e-11
2.97406e-11
-4.42027e-11
-8.61544e-11
-1.28352e-10
-5.32326e-11
-1.30278e-10
-8.70495e-11
-1.02548e-10
-1.76725e-10
-2.04739e-10
-7.01214e-12
1.11843e-10
1.16081e-10
2.33724e-10
1.15805e-10
-3.0788e-11
-5.22674e-12
3.75797e-12
-7.40935e-11
-1.74248e-10
-7.55311e-11
1.46083e-11
-1.58245e-11
4.41124e-11
1.33113e-10
-1.05334e-11
2.29889e-11
1.38299e-10
1.60232e-10
5.40216e-11
1.22938e-10
8.8994e-11
1.31005e-10
-8.7283e-11
-2.1478e-11
-9.68227e-12
3.15133e-11
-1.07881e-10
-1.38453e-11
2.1424e-11
2.51777e-11
4.5526e-11
5.60539e-11
1.4399e-10
1.72351e-10
1.80362e-10
1.63987e-10
1.05744e-10
1.0136e-10
4.59888e-11
-7.16061e-13
-7.00432e-11
-5.35281e-11
4.42066e-11
5.2903e-11
1.44303e-10
1.39298e-10
2.27048e-10
2.03553e-10
3.97527e-10
4.85122e-10
7.31186e-10
9.83084e-10
1.55199e-09
2.31813e-09
3.75385e-09
5.91484e-09
9.42791e-09
1.49982e-08
2.39293e-08
3.76203e-08
5.95221e-08
9.41312e-08
1.48752e-07
2.35509e-07
3.72208e-07
5.88058e-07
9.29042e-07
1.46703e-06
2.31535e-06
3.65385e-06
5.76384e-06
9.09324e-06
1.43433e-05
2.26323e-05
3.57131e-05
5.63827e-05
8.903e-05
0.000140658
0.000222259
0.00035136
0.00055545
0.000878332
0.00138859
0.00219539
0.00346937
0.00548193
0.00865628
0.0136655
0.0215553
0.0339911
0.0535401
0.0843449
0.132626
0.208711
0.326474
0.513803
0.799632
1.27905
1.03197e-10
1.46679e-11
3.17221e-11
-6.66059e-11
4.40099e-11
5.95515e-11
-5.84034e-12
2.44242e-11
-4.69517e-11
8.07842e-11
-2.38602e-11
1.6032e-10
-5.79199e-11
-6.32008e-11
-1.19404e-10
6.58349e-11
9.77883e-11
5.65108e-11
1.36422e-10
6.80664e-11
2.33756e-10
2.59881e-10
7.55414e-11
1.84806e-10
9.95468e-11
2.20324e-10
1.5125e-10
3.2107e-10
1.93427e-10
7.7844e-11
8.81308e-12
1.29791e-11
-3.22169e-11
-1.34332e-10
-8.64217e-11
-1.17666e-10
-1.31247e-10
-1.2679e-10
-9.45945e-11
5.13006e-11
-1.35876e-12
4.94591e-11
-2.82446e-11
-3.18024e-11
1.3734e-10
1.97262e-10
2.63758e-11
2.01825e-10
2.72031e-11
4.86528e-11
-1.25684e-10
-4.11531e-11
-6.93963e-11
3.65596e-11
1.91358e-10
1.07938e-10
5.85628e-11
1.95119e-10
2.71059e-10
1.14427e-10
1.76832e-10
1.20881e-10
1.35296e-10
-7.88604e-11
-3.97204e-11
-3.93509e-11
-1.09238e-10
-1.55628e-10
-1.41318e-10
-2.36399e-10
-2.15872e-10
1.74941e-11
-4.06798e-11
-1.00586e-10
-6.88148e-11
-1.07079e-10
2.91843e-12
-9.92222e-11
5.45284e-13
5.64091e-11
2.21962e-10
5.83769e-11
1.14602e-10
7.77781e-11
-4.99284e-11
3.04846e-11
-3.78166e-11
9.50118e-11
-3.81991e-11
-8.62883e-12
3.48075e-11
2.23331e-11
-5.92669e-11
6.10675e-12
-8.81095e-11
1.58971e-10
5.50441e-11
1.82891e-11
-2.51019e-10
1.10075e-10
2.07976e-10
-2.68176e-13
-4.63808e-11
7.41358e-11
1.56052e-10
5.15661e-11
6.80443e-11
-1.39246e-11
9.72266e-11
-1.00518e-10
7.32259e-12
5.42274e-11
1.06845e-11
-3.31176e-11
1.35257e-11
-1.35147e-10
-9.81713e-11
-1.18998e-11
8.21245e-12
-1.56282e-11
6.96132e-11
6.58045e-11
9.80458e-11
1.09753e-10
3.37812e-11
8.91218e-11
-5.92385e-11
-3.82264e-11
-1.01859e-10
-1.01931e-10
3.6323e-11
6.18531e-11
-1.16212e-11
1.00268e-10
9.89094e-11
-1.97304e-11
1.35686e-10
1.44109e-10
1.8266e-11
3.84607e-11
-2.76956e-11
-3.82212e-11
-3.01297e-11
6.18448e-11
8.82188e-11
-1.38828e-11
5.54715e-11
3.56476e-12
-8.91739e-11
-2.02696e-11
-1.33029e-11
-1.32962e-10
2.99181e-11
-8.30953e-11
-3.81255e-11
-1.24791e-10
-1.44774e-10
-6.20799e-11
-2.65494e-11
-1.31274e-10
-1.81201e-10
-1.77976e-10
-2.68808e-10
-1.16052e-10
-1.1505e-10
1.06831e-11
-6.97487e-11
7.99398e-12
6.36771e-11
1.16634e-10
-1.207e-12
-1.28813e-11
-2.67177e-10
-6.38017e-11
-7.835e-11
-1.14949e-10
-1.2279e-10
-1.79214e-10
1.70448e-11
2.26671e-11
-4.2616e-12
-5.1072e-11
-1.62879e-10
-9.45332e-11
-4.33184e-11
-9.56573e-11
3.7803e-11
-5.68091e-11
7.9367e-11
2.98301e-10
1.11159e-10
2.2004e-10
1.55673e-10
4.28049e-11
-5.10335e-11
-3.30356e-11
8.09409e-11
3.14209e-11
2.64758e-12
-2.62844e-11
2.3709e-11
-1.07214e-10
-3.76157e-11
2.28043e-11
3.45591e-11
1.1899e-10
-3.27221e-11
1.44214e-10
1.41087e-10
9.17482e-11
4.26153e-11
2.90486e-11
1.21259e-10
1.73827e-10
2.88377e-11
7.89156e-11
1.41082e-11
4.35472e-11
1.0699e-10
-5.51431e-11
8.56026e-11
6.24089e-11
3.01206e-11
4.22009e-11
1.22294e-11
9.02637e-11
-2.82535e-11
-6.61905e-11
-1.22614e-10
2.74054e-11
9.53727e-12
-8.78675e-11
6.14663e-11
1.48511e-10
1.36332e-10
1.40834e-10
2.31583e-10
1.28951e-10
1.09784e-10
1.63779e-10
4.06599e-11
1.49813e-10
8.69471e-11
1.05055e-10
1.33617e-10
1.66016e-10
1.49018e-10
1.68332e-10
1.4529e-10
1.99596e-10
2.89601e-10
2.95662e-10
4.24732e-10
8.38502e-10
1.4514e-09
2.21428e-09
3.24743e-09
4.95373e-09
7.88366e-09
1.243e-08
1.95772e-08
3.07459e-08
4.86552e-08
7.68004e-08
1.2136e-07
1.91604e-07
3.02642e-07
4.7795e-07
7.53949e-07
1.18942e-06
1.87542e-06
2.95686e-06
4.65966e-06
7.34355e-06
1.15694e-05
1.82305e-05
2.87228e-05
4.52687e-05
7.13443e-05
0.000112484
0.000177345
0.000279709
0.000441121
0.000695855
0.00109744
0.00173096
0.00272908
0.00430256
0.00677943
0.0106807
0.0168148