/*--------------------------------*- C++ -*----------------------------------*\
| =========                 |                                                 |
| \\      /  F ield         | OpenFOAM: The Open Source CFD Toolbox           |
|  \\    /   O peration     | Version:  2412                                  |
|   \\  /    A nd           | Website:  www.openfoam.com                      |
|    \\/     M anipulation  |                                                 |
\*---------------------------------------------------------------------------*/
FoamFile
{
    version     2.0;
    format      ascii;
    arch        "LSB;label=32;scalar=64";
    class       volScalarField;
    location    "0.001";
    object      ddt0(rho,e);
}
// * * * * * * * * * * * * * * * * * * * * * * * * * * * * * * * * * * * * * //

dimensions      [1 -1 -3 0 0 0 0];

internalField   nonuniform List<scalar> 
180000
(
-3.73714e-07
4.39444e-05
5.09271e-05
-5.42529e-06
-3.64596e-05
-2.04662e-05
-2.75718e-06
-1.34316e-05
-2.87748e-05
-1.72688e-05
-8.89147e-06
-1.43142e-05
-4.51148e-05
-5.46486e-06
3.90422e-05
4.74844e-05
3.96891e-05
3.08902e-05
-1.60748e-05
-2.14782e-05
-2.67078e-05
6.40554e-06
1.27981e-05
-3.58007e-07
-9.28097e-06
4.29065e-06
1.97665e-05
-2.03781e-05
-2.38136e-05
3.26611e-05
1.9859e-05
1.51709e-05
-1.68419e-05
-2.88117e-05
-2.0673e-05
-3.94643e-05
3.50955e-06
8.48215e-06
-2.92485e-06
6.53202e-06
3.16637e-05
1.65209e-05
-3.30434e-06
1.80347e-07
-8.29169e-06
3.27357e-05
-1.28647e-05
-2.44378e-05
3.34618e-05
4.11957e-06
-1.89744e-05
-3.61269e-05
-9.11795e-06
-5.68672e-05
-4.15626e-05
-2.62432e-06
-1.04368e-06
-3.31197e-05
6.76513e-06
3.5633e-05
6.10474e-06
-4.42985e-05
-1.66662e-05
2.12872e-05
4.40331e-06
4.62404e-07
-1.06887e-05
1.15199e-05
-8.52193e-06
-1.03844e-05
-3.84259e-06
4.84713e-05
3.34493e-05
3.53882e-05
5.58865e-05
8.23232e-06
-2.79536e-05
-1.56461e-05
5.86847e-06
4.22631e-05
8.42235e-05
3.96888e-05
2.88059e-05
3.37871e-05
1.72412e-05
3.53379e-05
7.54958e-05
5.41907e-05
3.5969e-05
7.47767e-06
-2.20172e-06
7.46964e-06
-4.32858e-05
-9.93651e-05
-7.99602e-05
-5.3417e-05
-3.6022e-06
-1.72078e-05
-2.48928e-05
4.95131e-05
1.27756e-05
1.1082e-05
-3.61682e-05
-1.0699e-05
-2.00904e-05
-3.67607e-05
-8.60798e-06
7.62932e-06
4.17563e-05
-1.6593e-05
-1.51046e-05
-2.54693e-06
-3.14907e-05
-2.91899e-05
1.67711e-05
3.26205e-06
-4.08268e-07
9.70433e-06
-7.61245e-06
-0.000110242
-7.87387e-05
-5.15289e-05
-3.45256e-05
6.98969e-05
3.13825e-05
2.36459e-05
4.20935e-05
3.42269e-05
5.83546e-05
6.05603e-06
-8.25457e-06
-1.41875e-05
1.23419e-05
2.11022e-05
1.20332e-05
5.64904e-06
-2.04855e-05
-1.17569e-05
-1.92459e-05
2.18453e-05
4.20236e-06
1.67713e-05
1.58985e-05
4.94249e-05
1.95512e-05
-2.96293e-05
2.30063e-06
1.81673e-06
6.78433e-06
2.2181e-05
-3.75038e-05
-4.91982e-05
4.13037e-05
5.89209e-05
2.91653e-05
4.53564e-05
6.31166e-06
1.98457e-05
2.99066e-05
5.19031e-06
-4.29809e-05
-2.24003e-05
-2.95518e-06
1.51535e-05
-7.53071e-06
-1.38459e-05
7.87218e-06
-1.45802e-05
-1.97829e-05
3.34031e-05
1.84674e-05
3.9325e-05
-1.18054e-05
1.46946e-05
-1.85218e-05
3.55155e-06
2.71266e-05
-6.8282e-06
-8.60163e-06
2.95752e-05
4.31509e-05
1.7499e-05
1.28467e-05
-7.63591e-06
-1.9943e-05
-7.16988e-06
-1.49586e-05
2.43091e-05
-1.07841e-05
-6.74857e-05
-6.07047e-05
-2.23017e-05
-5.01236e-05
-5.63764e-05
-3.64379e-05
-1.32455e-05
-1.29646e-05
-2.11573e-06
-1.44759e-05
2.55983e-05
-2.62267e-05
-2.5206e-05
-5.53331e-05
-2.91843e-05
7.95026e-07
1.25362e-05
1.29346e-05
6.07048e-06
2.27549e-06
-1.96813e-05
-3.1791e-05
-4.63198e-05
7.51598e-06
-2.07634e-05
-3.44107e-06
-5.40155e-06
4.14676e-05
2.65465e-05
3.36274e-06
3.77374e-06
1.3995e-05
8.67967e-06
5.61139e-06
2.14591e-05
3.32903e-06
5.44735e-06
3.13784e-05
1.49506e-05
5.53244e-05
5.27783e-06
-1.8035e-06
5.01043e-06
4.67801e-05
1.70551e-05
-1.70585e-05
-4.74025e-05
-1.51727e-05
-4.68041e-05
-4.45584e-05
-2.57876e-05
-1.78878e-05
1.40396e-05
4.4798e-05
3.7351e-05
5.91747e-05
4.92612e-05
2.64192e-05
5.56543e-05
6.77651e-05
4.45955e-05
4.08034e-05
0.000113637
0.000120272
0.000146617
0.000236988
0.000335947
0.00051916
0.000838797
0.00130336
0.0020726
0.00329431
0.00517926
0.00827484
0.0132629
0.0211094
0.0333873
0.0530338
0.0839889
0.133061
0.210635
0.334057
0.530268
0.843562
1.34408
2.14768
3.43911
5.52236
8.88447
14.3264
23.1308
37.4055
60.5131
97.9838
158.602
256.839
415.601
672.695
1087.69
1759.69
2845.46
4610.92
7476.49
12183.3
19899.3
32951.8
54914.6
94268.2
160005
282962
461772
-3.23398e-05
2.99293e-06
1.30265e-05
5.36162e-05
1.284e-05
-2.96834e-05
1.31729e-05
2.11292e-05
4.31622e-05
3.87627e-05
-1.1039e-06
-2.17975e-05
6.75444e-06
1.15271e-05
2.31373e-05
-5.6313e-06
-4.39035e-05
-4.55392e-05
-2.29278e-05
3.256e-05
2.36963e-05
-2.27391e-06
-9.73013e-06
7.96549e-06
6.13706e-06
-5.19025e-06
9.63711e-06
-9.32759e-06
4.92173e-05
2.2971e-05
-4.90103e-06
-5.69885e-05
-6.78929e-05
-4.5863e-05
-7.05005e-06
-5.24457e-05
-3.70705e-05
-4.92031e-05
-3.71797e-05
-3.27341e-05
-1.8484e-05
-7.45056e-06
8.37822e-07
-2.60703e-06
-1.85875e-05
8.65582e-06
-4.1046e-05
-3.10837e-05
-4.19109e-05
-9.0995e-06
1.83778e-06
-2.19211e-06
3.14727e-05
1.2825e-05
4.6077e-06
1.96123e-06
-3.36131e-05
-5.43786e-06
1.00203e-05
5.35161e-06
-3.1968e-06
3.47731e-05
1.66463e-07
4.72021e-06
6.26448e-06
-4.54354e-06
-7.34888e-06
-4.3563e-06
3.43577e-05
5.78985e-05
4.38646e-05
3.45308e-05
6.67352e-05
4.08392e-05
3.21301e-05
4.62464e-05
5.30892e-05
5.63966e-06
-1.98976e-05
-1.23351e-06
2.14884e-05
-6.16237e-06
5.20015e-05
2.82681e-05
-1.27323e-05
-1.33824e-06
3.76734e-05
8.30869e-06
-1.89932e-05
4.27751e-06
7.12749e-05
2.33742e-05
-5.05065e-05
-1.60715e-06
2.84065e-06
1.26719e-05
-1.11271e-05
2.28265e-05
2.92221e-05
8.66162e-06
3.86945e-05
5.54004e-05
1.00913e-05
-3.99708e-06
1.26037e-05
2.1255e-05
2.17058e-05
-1.49318e-05
-2.80758e-06
3.49891e-05
-6.53259e-06
7.37803e-08
8.41885e-06
7.33246e-06
1.11749e-05
3.10562e-05
1.5236e-05
5.97561e-06
-5.19476e-05
-6.5562e-05
-5.03877e-05
-2.60138e-05
-6.73577e-06
-2.99399e-05
-4.84299e-05
-3.69267e-05
-5.58155e-05
-5.9978e-05
-4.33924e-06
1.06492e-06
-2.06168e-05
2.04606e-05
-5.26802e-05
-5.69122e-05
-3.9017e-05
1.32705e-06
-1.93422e-05
-1.65357e-05
4.64866e-05
3.12862e-06
-2.36979e-05
3.63763e-07
-1.65725e-05
-3.12458e-05
-5.45502e-05
-4.403e-05
-1.02892e-05
1.45246e-07
-4.38949e-05
-2.10877e-05
-6.30076e-05
-5.27952e-05
7.03807e-06
2.66284e-05
-5.42961e-06
-4.83636e-06
3.09153e-05
4.25298e-05
8.14238e-05
7.38056e-05
3.40551e-05
8.7537e-06
1.71817e-05
1.56606e-05
5.21373e-07
-5.12287e-06
-1.3517e-06
2.17888e-05
5.84922e-05
6.51324e-06
-2.04328e-05
3.49795e-06
3.47666e-05
7.89779e-06
7.7105e-06
-1.75206e-05
-6.16052e-06
-4.70183e-06
-1.64837e-05
-7.33289e-05
-9.53123e-06
7.44651e-06
-2.12804e-05
-2.24142e-05
-2.66258e-05
-1.19943e-06
-3.51562e-05
-4.33282e-05
-2.42262e-05
-5.24601e-05
-4.2567e-06
-5.26435e-05
-2.87473e-05
-4.11996e-05
-5.22652e-05
-4.29838e-05
-6.06609e-05
-1.72794e-05
1.66937e-05
2.76586e-05
4.90227e-05
2.07764e-05
3.06309e-05
1.8074e-05
1.77071e-05
3.64297e-05
-8.32426e-06
-3.80276e-06
-6.51951e-07
-5.46582e-05
-2.66575e-05
4.80074e-05
-1.2571e-05
-4.78004e-05
-3.26116e-05
-2.97568e-05
2.62788e-06
-4.41374e-06
1.29132e-05
1.65346e-05
8.52266e-06
2.65019e-05
4.82611e-05
7.30568e-05
3.49377e-05
8.31504e-05
3.8737e-05
-2.04657e-05
1.33057e-07
9.09141e-06
-2.05746e-05
-1.81544e-05
-3.73597e-05
-2.63276e-05
-1.83928e-05
-6.84441e-06
8.59153e-06
2.89317e-05
1.2796e-05
2.7482e-05
3.83198e-05
4.30928e-05
4.11835e-05
2.90057e-05
-1.60413e-05
2.04367e-05
-1.28247e-05
-1.18053e-05
-8.54139e-06
-5.40503e-05
-1.98139e-05
2.9482e-05
5.73888e-05
8.47655e-05
0.000214131
0.000296856
0.000481764
0.000832461
0.00124137
0.00195091
0.0031652
0.00505945
0.00801
0.0127537
0.0201803
0.0320702
0.0508735
0.0805939
0.127655
0.202036
0.320211
0.507846
0.806999
1.28413
2.04844
3.27347
5.24425
8.41487
13.5306
21.7779
35.1029
56.5933
91.3124
147.261
237.569
382.903
617.219
993.726
1600.19
2574.24
4145.77
6675.99
10781.1
17424
28378.1
46430
77401.4
128047
217293
350736
1.43618e-05
-1.05887e-05
-3.16943e-07
2.51546e-05
3.65374e-05
-9.16852e-06
-2.25659e-05
7.15099e-06
4.23769e-05
6.93683e-07
-4.44611e-05
1.94794e-05
2.33799e-05
1.39765e-05
-1.5123e-05
-1.60827e-07
-7.55405e-06
5.20286e-06
-8.29323e-06
4.93183e-06
1.82159e-05
1.39914e-05
2.1951e-05
-8.11717e-06
2.44003e-05
2.1245e-05
1.05091e-05
-3.06831e-05
3.09392e-06
-6.40661e-06
-7.32254e-05
-3.7106e-05
-3.42621e-05
-2.99848e-05
1.38509e-05
4.15912e-05
1.10213e-05
1.02861e-06
-5.73253e-05
-5.26935e-05
-4.26153e-05
-3.00464e-05
-3.63101e-05
-3.42794e-05
-5.97418e-05
-6.86988e-05
-2.65386e-05
9.90636e-06
-4.92518e-05
4.94029e-06
-1.54227e-05
-2.2255e-05
-2.09182e-05
3.23761e-05
4.32458e-05
1.63682e-05
1.66119e-05
-3.7011e-05
-2.64344e-05
1.18454e-06
2.17538e-05
7.14505e-06
-1.12132e-06
-7.84669e-06
6.81757e-06
6.06329e-06
1.99096e-05
1.22975e-05
-6.84317e-07
-1.5265e-05
-2.50739e-05
-6.83187e-06
2.61196e-05
1.54495e-05
1.64762e-06
2.02542e-05
1.25985e-05
2.42188e-05
3.65706e-05
4.81301e-05
-4.1986e-06
-1.74414e-05
2.06424e-05
3.71612e-05
1.68332e-05
-1.4381e-05
-2.16721e-05
-2.02218e-05
4.91868e-05
6.45377e-05
3.98474e-05
1.76987e-05
-1.07439e-05
3.12764e-05
-4.8567e-06
-2.82661e-05
8.63064e-06
-3.07097e-05
-2.23366e-05
-4.56257e-05
-3.21782e-05
-4.62971e-05
-6.35484e-05
1.2092e-05
1.86952e-05
2.95172e-05
2.04571e-05
3.32934e-05
-1.962e-05
-3.4677e-06
2.68922e-05
2.18837e-05
-6.54072e-06
6.17395e-06
2.46564e-05
-2.96793e-05
-1.62836e-05
-4.52753e-05
-1.98298e-05
-1.51387e-05
-2.02987e-05
-2.33708e-05
4.52037e-05
1.18718e-05
6.28581e-06
2.06256e-05
2.1333e-05
-3.51257e-06
1.81803e-05
-2.11507e-05
-1.99933e-05
-3.26892e-05
-5.69879e-05
-4.94145e-05
-2.71774e-05
-1.62424e-05
-2.39705e-05
-2.72379e-06
-1.68686e-05
-1.90808e-05
1.23212e-06
1.33149e-05
9.65381e-06
3.33173e-05
-1.66171e-05
-1.05072e-05
-2.24873e-05
1.71725e-05
5.48205e-06
3.43998e-05
1.70479e-05
-2.55545e-05
-7.79014e-06
-1.02924e-05
-1.34705e-05
-2.97854e-05
-4.11134e-05
-3.49098e-05
-5.91569e-05
-3.08882e-05
-2.09062e-05
-4.14646e-06
-2.79414e-06
2.35625e-05
-3.21301e-05
7.49439e-06
-9.43386e-06
-4.47173e-05
-2.30109e-05
-3.92128e-05
-1.01204e-05
-5.25332e-06
-1.43542e-05
-6.65568e-06
2.55226e-06
1.32257e-05
-1.32068e-06
-2.20356e-05
9.54317e-06
-5.80517e-06
-6.32461e-06
-4.26293e-06
6.99512e-06
1.19333e-05
1.57276e-05
1.82203e-07
8.95264e-06
5.22225e-05
9.3052e-06
-1.45394e-06
2.53627e-05
4.46479e-05
5.36392e-05
6.96761e-05
5.01235e-05
3.59348e-06
-9.30443e-06
6.22321e-06
-8.86812e-06
4.45426e-05
4.77212e-05
6.10329e-05
5.68897e-05
4.81378e-05
1.85576e-05
1.76917e-05
4.87616e-05
5.09786e-05
1.8474e-05
7.01276e-06
-2.90939e-06
1.42402e-05
1.14722e-05
4.08147e-05
5.79196e-05
2.88697e-05
2.75433e-06
-2.42418e-05
-4.37479e-05
1.25337e-06
-4.64251e-05
-2.44928e-05
-3.50874e-06
-3.9767e-05
-5.82845e-05
-3.07752e-05
1.2342e-05
-1.53028e-06
5.31724e-07
4.73703e-05
6.23175e-05
8.28825e-07
-1.69477e-05
2.46998e-07
-2.40002e-05
-2.48774e-05
-4.74387e-05
-4.6106e-05
-2.46318e-05
5.84519e-05
-1.27363e-05
-5.01017e-08
1.75193e-05
3.08885e-05
-3.96331e-06
-1.61081e-05
-3.84287e-05
-8.62649e-06
-6.53594e-06
9.22438e-06
4.88317e-05
7.88871e-05
3.65519e-05
0.000105645
0.000168816
0.000252768
0.000409446
0.000715234
0.00117303
0.0018335
0.00293771
0.00465872
0.00744832
0.0118261
0.018799
0.0297319
0.0470518
0.0745239
0.118048
0.186749
0.295831
0.46855
0.743247
1.18011
1.8777
2.99144
4.77631
7.63535
12.2289
19.6006
31.4586
50.4951
81.1136
130.229
209.153
335.585
538.497
863.022
1383.25
2214.37
3547.45
5678.62
9109.88
14601.6
23551.1
38003.8
62457.2
101191
169624
268520
-3.49164e-06
-3.68605e-07
1.7039e-05
1.95571e-05
1.29497e-05
1.44878e-05
-3.01206e-05
-4.46123e-05
-4.04042e-05
1.76484e-06
4.57519e-05
1.31952e-05
1.17066e-05
5.2499e-05
-7.05044e-06
-4.72682e-05
1.32765e-06
8.67049e-06
2.06432e-05
1.81894e-05
-1.36538e-05
-4.07157e-05
-7.03458e-06
-3.49831e-06
-3.1846e-05
-1.98177e-05
-1.76474e-05
6.761e-06
2.7864e-05
-8.26601e-06
-1.02614e-05
-1.10504e-06
7.46816e-06
5.08491e-06
-5.19554e-06
2.83167e-05
4.61177e-05
4.43164e-05
4.01856e-05
1.42543e-05
3.25684e-05
5.9851e-05
7.00126e-05
3.10008e-05
7.54645e-05
2.9228e-05
5.24395e-05
1.9535e-05
2.73799e-05
4.80977e-06
1.56223e-05
7.84821e-06
1.16123e-05
3.22725e-05
3.74378e-05
2.43752e-05
2.06474e-05
-4.72236e-06
-5.66801e-06
-2.96847e-05
-3.13221e-06
1.874e-05
1.23715e-05
8.43504e-06
-9.27265e-06
-3.37087e-05
-3.39772e-05
-3.41794e-05
-1.14636e-05
-2.79042e-05
-2.68011e-05
-5.52858e-05
-5.12546e-05
-2.44762e-05
1.18011e-06
-1.13499e-05
-7.49465e-05
-3.3564e-05
-4.03046e-05
-4.4058e-05
-2.07253e-05
-9.01983e-06
-3.27202e-06
-7.93086e-06
8.73967e-06
1.58305e-05
3.87844e-05
6.40375e-07
5.26498e-05
6.34001e-05
4.00087e-05
1.84891e-05
6.91989e-05
1.78301e-05
1.12958e-05
2.59065e-05
4.43308e-05
6.3916e-05
4.60727e-05
1.44338e-05
1.88148e-05
-2.86747e-05
-3.54001e-05
-1.51916e-05
-1.28862e-05
-5.80514e-06
-1.63496e-05
-1.99376e-05
-1.25375e-05
-1.14833e-05
-6.59977e-06
-6.80139e-05
-8.41925e-05
-4.6593e-05
-1.32433e-05
-2.04915e-05
-1.99188e-06
1.29135e-05
1.96659e-05
8.37203e-06
-4.9359e-06
8.04557e-06
-8.91096e-07
-1.20756e-05
8.63935e-06
6.81632e-05
2.66972e-05
3.02154e-05
4.03271e-05
-1.80892e-05
1.82102e-05
1.69773e-05
3.69284e-05
3.3075e-05
-5.52329e-06
-1.84673e-06
-5.48881e-05
-6.87952e-05
-5.42186e-05
-2.62283e-05
-3.10809e-05
3.95158e-06
-8.6941e-06
-2.35728e-05
9.0743e-06
2.15142e-05
-2.42131e-05
-4.79312e-05
2.4216e-06
-2.2906e-05
-4.39006e-06
6.0496e-05
1.61226e-05
6.94953e-05
1.5316e-05
-5.7329e-05
-8.23356e-05
-1.02086e-05
-4.28548e-05
-2.81365e-05
-4.79273e-05
-4.54333e-05
-1.91037e-05
2.49866e-06
-2.59645e-05
-2.42583e-05
2.06918e-05
-2.02489e-05
-7.45848e-05
7.95736e-06
-7.61315e-06
8.51499e-06
-4.09986e-06
-1.05725e-05
1.09443e-05
-3.63711e-05
-1.81058e-05
-4.33684e-05
-7.96676e-05
-7.96032e-05
-6.15734e-05
-9.78661e-05
-8.24171e-05
-3.56664e-05
-3.99431e-05
-1.97845e-06
-2.11996e-05
-9.27302e-06
1.68778e-06
-9.88994e-07
2.16587e-05
-6.15318e-07
-1.08613e-05
2.47103e-05
-3.10001e-05
-1.14335e-05
-5.33505e-06
2.39767e-05
2.39676e-05
2.92981e-05
3.47903e-05
1.25379e-05
2.74193e-06
1.4416e-05
8.41411e-06
-1.44336e-06
-3.0669e-05
1.11438e-05
7.7928e-05
3.34452e-05
8.01809e-07
-2.95662e-05
-2.52488e-05
-3.25705e-05
-1.68999e-05
-2.07123e-05
-3.31314e-05
1.16038e-05
-2.47683e-07
7.9268e-06
1.09984e-05
2.28589e-05
1.64969e-05
3.50062e-06
2.84973e-05
-1.29095e-05
-1.17497e-05
4.52998e-05
3.49545e-06
-1.22158e-05
-1.54297e-05
3.08845e-05
-1.78185e-06
-4.77254e-05
3.88553e-06
1.46174e-05
2.17974e-05
5.0495e-05
4.99983e-05
-2.38583e-06
1.73683e-05
1.16911e-05
-7.54606e-06
8.92766e-06
1.51781e-05
4.59591e-05
1.72266e-05
3.21783e-06
4.08918e-05
5.18134e-05
-1.75718e-05
2.19247e-05
1.23895e-05
9.33346e-05
0.000158861
0.000243666
0.000381705
0.000618528
0.00106979
0.00165062
0.00262094
0.00413611
0.00661783
0.0105339
0.0167671
0.0265863
0.0421495
0.0666297
0.105544
0.166873
0.26398
0.417496
0.661072
1.04711
1.66142
2.6382
4.197
6.68226
10.6571
17.0049
27.1679
43.4029
69.3927
110.879
177.231
283.004
451.954
720.838
1149.77
1831.47
2918.91
4646.46
7409.05
11791.2
18863.6
30114.7
48925.8
77960.2
128920
199758
-1.88878e-05
-1.69744e-05
-2.33047e-05
3.18301e-05
3.18635e-05
-2.19254e-06
-1.35435e-05
-1.34381e-05
9.05167e-06
2.51351e-05
-3.37445e-06
3.91324e-05
5.08138e-05
-1.12988e-05
2.08427e-05
4.49235e-05
2.38094e-07
-6.57883e-06
8.54933e-06
-6.52635e-06
1.25845e-05
1.28378e-05
1.01895e-05
2.21144e-05
2.06501e-07
1.76802e-05
1.69152e-05
1.68044e-05
3.83793e-06
1.7716e-05
2.97203e-05
-6.97421e-08
8.79937e-06
1.91277e-05
4.63253e-06
1.52656e-05
4.23275e-05
4.42104e-05
-1.77038e-06
-4.62191e-05
-2.69801e-05
-1.39942e-05
-4.22128e-05
-4.03105e-05
-2.46431e-05
-1.77748e-05
1.39959e-05
-2.55111e-05
6.00365e-06
5.64973e-05
7.62239e-05
2.75767e-05
-1.01226e-05
4.29165e-05
2.79953e-05
4.06779e-06
7.04987e-06
-4.3723e-06
3.02345e-05
2.99521e-05
2.63873e-05
-3.60171e-06
1.49719e-05
-1.82518e-05
-7.6237e-06
-4.04409e-07
8.35194e-06
-1.76357e-05
-6.04986e-06
-2.83129e-06
-6.30296e-05
-7.42591e-05
-1.52815e-05
-2.62597e-06
7.99206e-06
-2.01293e-05
-5.3121e-06
-3.66578e-05
-2.07799e-05
-5.5792e-06
-2.41852e-06
-1.27147e-05
8.43134e-06
1.38327e-05
1.92463e-05
1.0056e-05
-1.27415e-05
1.391e-05
9.45444e-07
-2.86791e-05
2.36426e-05
2.45189e-05
-5.19405e-05
-1.44757e-05
-3.25564e-05
-2.41761e-05
-5.26972e-06
1.55813e-06
1.03017e-05
3.95344e-06
1.10704e-06
4.47541e-05
6.79753e-05
4.01888e-05
4.34607e-05
7.95942e-05
8.13513e-05
6.42901e-05
5.73495e-05
4.56018e-05
1.91066e-05
2.44538e-05
-3.47136e-06
-1.95205e-05
2.70361e-06
6.88024e-06
1.80665e-05
-2.59135e-05
7.6533e-06
3.67092e-05
2.13876e-05
-3.19317e-05
-8.95258e-06
4.62973e-05
3.39479e-05
1.09496e-05
2.82825e-05
-5.80354e-06
3.46044e-05
4.1705e-05
1.47113e-06
3.45034e-05
2.44563e-05
8.29708e-06
-2.01673e-05
-7.03966e-05
-4.19357e-05
-3.816e-05
1.11892e-05
1.92303e-05
-3.00172e-05
-2.83395e-06
-2.03663e-05
-6.13553e-06
-4.25763e-05
-9.56822e-06
-1.13188e-05
-1.37277e-06
2.25828e-05
8.53904e-06
-1.87017e-06
-1.98569e-06
1.78121e-05
-3.50163e-06
-2.34959e-05
-2.86501e-05
4.08762e-06
3.46928e-05
9.3188e-05
4.32562e-05
2.05489e-05
-2.98909e-05
1.40948e-05
3.81657e-05
4.35547e-05
4.09905e-05
-1.49e-05
-5.9286e-05
-3.46147e-05
-5.33229e-05
-2.06155e-05
4.18945e-06
-3.25647e-05
-1.53201e-05
-3.1834e-05
-2.81418e-05
-4.05582e-05
-4.06742e-05
-3.77695e-05
-1.67497e-05
-8.0376e-06
-2.58693e-05
6.35478e-06
2.72972e-05
3.05726e-05
4.79038e-05
2.40374e-05
2.61916e-05
4.91464e-05
5.18238e-06
-2.15972e-05
-8.0179e-06
3.70516e-05
-1.98872e-05
2.3005e-07
-7.90966e-06
-1.95681e-05
-3.48125e-05
-4.46107e-05
-5.71759e-05
-5.91295e-05
-7.24344e-05
-3.28285e-05
-1.77997e-05
-4.63267e-05
-8.24918e-05
-2.59943e-05
-3.7755e-05
-5.2218e-05
-4.24506e-05
-4.6304e-05
-2.37723e-05
-2.10891e-05
4.24716e-05
3.05152e-05
3.68744e-05
1.86815e-05
1.95649e-05
2.24959e-05
-7.13218e-07
2.99956e-06
-1.82379e-05
-1.59134e-05
-1.20581e-05
9.75236e-06
4.31183e-05
4.71964e-05
4.9162e-05
1.62845e-05
3.12104e-05
3.80153e-05
4.44003e-05
4.82428e-05
5.5415e-06
3.91108e-05
4.54283e-05
6.18635e-05
1.23562e-05
1.22186e-05
1.1079e-05
-1.55407e-05
5.24853e-06
-2.2837e-05
2.92272e-05
-2.68579e-06
-4.15117e-05
-1.11755e-05
-5.13542e-06
-3.76219e-05
1.07731e-05
2.37539e-05
9.35714e-06
7.70943e-05
0.000106836
0.000124905
0.000221887
0.000325815
0.000598362
0.000958093
0.00148495
0.00231817
0.00368173
0.00578144
0.0092181
0.0145752
0.0230513
0.0365577
0.0578059
0.0914124
0.144455
0.228334
0.360696
0.570355
0.901612
1.42715
2.25955
3.58293
5.68365
9.02903
14.3471
22.8243
36.3045
57.7914
91.9386
146.323
232.648
369.967
587.597
933.353
1480.52
2349.59
3723.65
5910.08
9356.55
14882.2
23583.3
38017.3
59874.7
97970
148896
2.69281e-05
-1.58264e-05
-8.31777e-06
-3.25367e-05
2.22769e-05
4.89189e-05
1.70939e-05
4.79366e-05
3.19283e-05
-8.52516e-06
-2.17627e-06
-9.97864e-06
-4.06406e-05
-2.15436e-05
-1.89682e-05
-1.7615e-05
1.6595e-05
-7.97471e-06
-9.86023e-06
2.09723e-06
3.23724e-05
1.7718e-05
-1.68933e-05
-1.91899e-05
1.22484e-05
-1.6649e-05
-1.27832e-06
1.55984e-05
5.90742e-05
4.73767e-05
8.34108e-05
6.96197e-05
4.50536e-05
6.3786e-05
4.79773e-05
1.95833e-05
9.68543e-06
1.68166e-05
1.17802e-05
-1.0609e-06
7.98614e-06
1.33012e-05
5.60909e-05
5.5173e-05
8.42166e-06
4.70333e-06
1.22821e-06
3.1864e-05
6.42921e-05
-2.14659e-05
1.22137e-05
4.18683e-05
2.77916e-05
-1.10127e-05
-2.4918e-05
-1.50892e-05
-4.61926e-07
-1.1928e-05
-1.86791e-05
2.98633e-05
1.92381e-05
5.90589e-06
1.70544e-05
1.03599e-05
-4.0877e-05
-1.16217e-05
-3.29069e-05
-6.03506e-05
6.63592e-06
2.61547e-05
2.17099e-05
-1.86062e-06
-1.40868e-05
-1.06222e-05
-1.15959e-05
2.47784e-05
1.62228e-05
3.66547e-05
4.4108e-05
2.1918e-06
-1.16332e-05
-6.24977e-05
-1.97034e-05
-2.68693e-05
-1.89177e-06
-9.45863e-06
1.00449e-06
1.96264e-05
1.46496e-05
7.89554e-06
4.24383e-05
-1.6048e-06
1.07642e-06
1.17861e-05
3.87752e-05
9.63241e-06
1.0193e-05
6.78169e-06
4.41578e-06
-1.63301e-05
4.32689e-05
2.03612e-05
2.12618e-05
1.05436e-05
-1.09551e-05
4.85209e-05
5.85597e-05
1.18041e-06
-2.99725e-05
-2.63994e-05
-1.88679e-05
-4.3271e-05
-5.57949e-05
-4.51423e-06
-4.46002e-05
-7.12414e-06
-3.98101e-06
3.22492e-05
1.43515e-05
8.05212e-06
-2.49572e-05
5.81416e-06
1.94411e-06
-3.55604e-06
-3.07453e-05
-2.19721e-06
2.11275e-05
-1.16666e-07
-2.12739e-05
-1.67399e-05
-4.09012e-05
9.43331e-06
-1.4756e-05
-1.94355e-05
-1.39167e-06
2.49648e-05
1.35041e-05
-1.34734e-05
2.5398e-05
1.50562e-05
3.21868e-06
-1.65656e-05
-3.74295e-06
3.23092e-05
3.45689e-05
1.72475e-05
-3.15889e-05
-6.58474e-06
-1.63564e-05
4.13823e-05
2.2254e-05
-2.13405e-05
-7.8035e-07
3.30951e-05
1.96344e-05
8.90704e-06
-5.32278e-06
4.87399e-05
2.80777e-05
2.84366e-05
3.94305e-05
-8.48882e-06
-4.48282e-05
1.68514e-06
1.25216e-05
9.25905e-06
3.35713e-05
3.19129e-05
4.50851e-05
7.10828e-05
4.96923e-05
3.06166e-05
1.86681e-05
5.8085e-06
-1.29878e-05
4.90705e-05
-1.96755e-05
-1.23514e-05
-5.19409e-05
5.79896e-05
-1.32387e-05
-3.3987e-05
-1.94563e-05
-3.1964e-06
-2.26965e-05
-1.32481e-05
4.35418e-05
1.66358e-05
4.12684e-05
4.5047e-05
-7.42778e-06
3.22832e-05
3.57282e-05
-2.00619e-05
1.51038e-05
8.75609e-06
-2.90313e-05
-2.94946e-05
-1.56899e-05
-2.46702e-05
-1.98305e-05
-2.37534e-05
4.96073e-05
3.95506e-05
3.10011e-05
1.63524e-05
1.27108e-05
-1.5923e-05
-3.65514e-05
-2.69135e-05
-5.08719e-05
-1.70784e-05
9.81401e-06
1.87542e-08
6.03155e-06
-3.60692e-06
2.06156e-05
-2.04879e-06
5.78141e-06
-1.5021e-05
-1.09548e-05
2.13979e-05
-5.07047e-06
2.08626e-05
3.96587e-05
2.62542e-05
1.21253e-05
-1.37446e-05
-3.13689e-05
-2.85557e-05
1.11541e-05
1.20133e-05
-2.66944e-05
2.62796e-06
-2.90336e-05
-2.72268e-05
-3.33931e-06
-2.7958e-05
-2.8324e-05
-1.4079e-05
-3.01557e-05
1.11686e-05
9.66538e-06
5.87191e-06
-6.50861e-06
-2.55535e-05
-2.97687e-05
-4.27582e-05
-4.71382e-05
3.97236e-05
6.02822e-05
-2.47481e-05
3.30553e-05
8.38787e-05
0.000112278
0.000180239
0.000319192
0.000482079
0.000781812
0.00123602
0.00200257
0.00309387
0.00490201
0.00777492
0.012331
0.0195003
0.0308403
0.0487279
0.0770362
0.121629
0.192168
0.30329
0.478962
0.755917
1.1942
1.88631
2.98314
4.71772
7.47018
11.8281
18.7484
29.7093
47.1157
74.6737
118.409
187.582
297.249
470.462
744.761
1177.38
1862.25
2941.15
4651.7
7335.95
11619.9
18318.5
29369.7
45879.7
74469.7
111403
-1.07388e-05
-3.24162e-05
-2.39908e-05
-2.04728e-05
-2.96627e-05
2.07952e-05
5.4327e-05
-7.89205e-06
-5.20061e-06
4.08667e-05
1.38125e-05
6.42315e-06
-3.98879e-06
1.50918e-05
-2.71551e-05
-3.79693e-05
8.91066e-06
-1.02196e-05
-9.73038e-06
-3.39727e-06
-4.52214e-05
8.41354e-07
3.18801e-05
7.09747e-05
2.75625e-05
3.81085e-05
2.75994e-05
5.00706e-05
2.57397e-05
4.08442e-05
3.25371e-05
2.13683e-06
-3.81192e-05
-4.00611e-05
-3.14911e-06
-1.17686e-06
-3.59521e-05
-1.7448e-05
6.71186e-06
9.67749e-06
-6.21279e-06
-1.16173e-05
1.71289e-05
5.76518e-05
5.55476e-05
2.28334e-05
-4.60306e-06
7.55835e-06
-9.62359e-06
1.10192e-05
3.99289e-05
7.21211e-06
-2.83466e-05
-4.29424e-06
4.33909e-06
-2.05781e-05
-1.16292e-05
2.2826e-05
4.92305e-05
3.23999e-05
3.8149e-06
1.01273e-05
1.48103e-05
-1.72053e-05
-8.33262e-06
-2.89528e-05
-7.65802e-06
1.78466e-05
-4.34985e-05
-6.94213e-06
2.57676e-05
1.77159e-05
5.21356e-06
1.69038e-06
3.9674e-05
-7.84806e-06
-1.0581e-06
-4.64241e-05
-5.81053e-05
1.27913e-05
3.90851e-05
3.51582e-05
4.22496e-05
3.55094e-05
8.83674e-06
1.92369e-05
2.45032e-05
2.0873e-05
4.54078e-05
4.49168e-06
-1.2942e-05
-9.04279e-06
-2.78495e-06
-6.03358e-05
-1.76772e-05
-1.456e-05
2.75739e-07
-9.11355e-06
-5.49919e-05
-2.51079e-05
-3.26598e-05
-6.36576e-05
-4.08802e-05
-2.68814e-05
-4.92075e-06
1.14736e-05
3.59873e-06
-7.73697e-06
-2.09068e-05
-8.77237e-06
-9.5661e-06
-1.24344e-05
-5.25334e-05
3.79437e-05
2.69892e-05
-1.53487e-05
3.31846e-05
-1.93124e-05
-2.96336e-05
-1.39598e-05
-2.60793e-05
-2.06349e-05
-4.2185e-05
-5.96711e-05
-1.41805e-05
2.85382e-05
7.09396e-06
-1.38553e-05
1.04768e-05
2.80532e-05
3.3011e-05
4.99517e-05
2.0889e-05
-3.41804e-05
-2.21815e-06
4.72886e-05
3.06176e-05
2.74465e-05
5.61263e-05
0.000105892
4.72236e-05
3.3639e-05
-7.12488e-06
-1.56407e-05
1.84751e-05
4.43928e-06
3.83804e-06
3.56471e-05
2.58561e-05
-2.05513e-05
-1.75052e-05
2.06457e-05
-1.82535e-05
-1.09337e-05
4.18739e-06
-5.32673e-06
3.92955e-05
1.61019e-05
9.24147e-05
5.45695e-05
2.23767e-05
8.45749e-06
-2.07521e-05
-5.55763e-06
-1.55392e-05
-3.20095e-05
-3.06983e-05
1.01878e-06
-1.64986e-05
1.36767e-06
1.34808e-05
6.48893e-06
5.32755e-06
-1.62281e-05
-2.33696e-06
-2.6442e-05
-3.32521e-05
-2.16659e-05
-3.66771e-05
-3.98593e-05
-3.58154e-05
-9.34199e-06
-9.52351e-07
-5.27406e-05
-2.46167e-05
1.67853e-05
2.56264e-05
2.43681e-05
5.55996e-05
-2.62113e-06
-2.12013e-06
-3.30817e-05
-2.07047e-05
-6.70045e-07
-4.83797e-06
-2.37449e-05
6.74568e-06
2.49794e-05
-8.05079e-06
1.65278e-05
3.31528e-05
1.56154e-05
-5.37082e-06
-1.88824e-05
-3.50188e-05
1.05597e-05
2.67462e-05
2.77532e-05
2.52376e-05
3.32065e-05
4.40018e-05
3.60681e-05
3.13061e-05
2.30194e-05
-1.87285e-05
-6.63546e-06
2.20269e-05
-4.44091e-07
-3.79651e-06
1.05639e-05
3.93723e-05
9.14192e-06
-1.45958e-05
-6.80974e-06
1.10187e-05
8.17772e-06
2.64246e-05
4.02368e-05
4.6715e-05
1.35011e-05
-2.74175e-05
-3.53243e-05
-4.3196e-05
-5.15698e-05
-4.77767e-05
-3.78752e-05
-3.2505e-05
-9.14322e-06
-2.36925e-06
-3.39713e-05
-1.23017e-05
-1.50861e-05
6.53434e-06
-6.44529e-06
-1.83437e-05
2.25216e-05
1.80344e-05
1.22729e-05
1.22128e-05
1.14814e-05
2.79826e-05
3.14066e-05
5.08249e-05
7.34178e-05
0.000120535
0.000189388
0.000284547
0.000481937
0.000675223
0.00100727
0.00157765
0.00256615
0.00401708
0.00641659
0.0101908
0.0160589
0.0254359
0.0401874
0.0634293
0.100129
0.157995
0.249084
0.392934
0.619359
0.97702
1.5404
2.43104
3.83563
6.05788
9.56502
15.117
23.8822
37.7589
59.661
94.3197
148.98
235.408
371.556
586.62
924.96
1459.25
2298.75
3626.23
5702.86
9006.37
14147.5
22596.5
35100.6
56636.4
83710.6
-1.64533e-05
-3.91222e-06
-6.60344e-06
1.22352e-05
-3.29289e-05
-2.15787e-05
2.05413e-05
-2.73521e-06
-5.66691e-06
-5.56475e-05
-3.84023e-05
-2.29463e-05
4.30435e-05
3.56323e-05
5.40984e-05
1.36225e-06
2.21189e-05
-1.00996e-05
-3.36525e-05
-2.98489e-05
-6.5442e-05
-5.18638e-05
-1.96572e-05
-5.63674e-05
-2.53372e-05
-5.95308e-05
-5.10203e-05
-8.44402e-05
-1.53955e-05
-3.05362e-05
-5.4459e-05
-2.48633e-05
-4.58552e-06
2.52487e-05
2.42334e-05
5.93075e-05
6.41669e-05
6.74521e-05
3.32345e-05
1.84025e-05
3.46626e-05
4.5901e-06
2.02171e-05
1.20367e-05
-4.60757e-05
-6.0121e-05
-7.34005e-06
-3.82917e-05
2.03737e-05
2.31836e-05
5.30262e-05
2.06497e-05
5.79839e-05
1.65466e-05
-1.12026e-05
3.23371e-05
1.1202e-05
-3.62519e-05
-6.08316e-05
-1.92252e-05
-4.81295e-05
-6.71388e-05
-7.43601e-05
-3.91515e-05
-4.80961e-05
-5.64607e-05
-1.21514e-05
3.17161e-05
4.5505e-05
6.87466e-05
4.95265e-05
1.53623e-05
3.28207e-05
1.44278e-05
2.33134e-05
3.83151e-05
1.47144e-05
2.73199e-05
-1.16655e-05
-2.18488e-05
-6.4775e-05
-3.15333e-05
-5.24982e-05
-1.91271e-05
1.59052e-05
-2.76935e-05
1.08909e-05
-2.15926e-05
2.15493e-05
4.18377e-05
9.3249e-06
1.92936e-06
4.45411e-06
1.07708e-06
4.19363e-07
-6.86527e-05
-2.39006e-05
-6.27e-06
2.77657e-05
-5.3029e-05
-3.0891e-05
8.29704e-06
-1.36425e-05
-2.31195e-05
-4.69161e-05
7.77506e-06
6.20888e-06
-1.18338e-05
-3.32421e-05
-1.55898e-05
-2.14153e-05
-1.85592e-05
1.05947e-05
1.57803e-05
1.37135e-05
3.73568e-05
2.86333e-06
-1.08552e-05
2.68461e-06
-1.95658e-06
7.64361e-06
1.90328e-06
-3.12707e-05
-8.39145e-06
2.40121e-05
2.48028e-07
5.62556e-05
3.15249e-05
3.29218e-05
2.91394e-05
-3.42614e-07
-5.40355e-05
-2.50338e-05
-4.94937e-05
-4.0202e-05
-1.2359e-05
-5.23735e-05
-7.02176e-05
-2.83545e-05
-2.07275e-05
-3.95905e-05
-2.36167e-05
-1.12557e-05
-3.94146e-05
-3.33288e-05
-7.75321e-06
2.73019e-05
5.94999e-05
5.91377e-05
5.22799e-05
5.35767e-05
5.06091e-05
3.68665e-05
4.29164e-05
1.41365e-05
1.0572e-05
3.18997e-05
-9.24209e-06
-1.81632e-05
-1.97191e-05
-1.77216e-05
2.42688e-05
7.72884e-05
2.19205e-05
3.94568e-05
2.39318e-05
1.94071e-05
-9.15361e-06
-1.14864e-05
6.64905e-06
4.23185e-05
5.41217e-05
8.17187e-05
1.65693e-05
2.88846e-06
1.69022e-05
1.24248e-05
-1.00337e-05
-6.35255e-05
-3.02458e-05
-2.03647e-05
1.80311e-05
4.09678e-05
1.49165e-05
1.49483e-05
3.83957e-05
8.36504e-07
2.42623e-05
-3.63888e-05
-8.47596e-05
-6.44067e-05
-8.32814e-05
-3.46743e-05
-1.95095e-05
5.45781e-05
2.67593e-05
-1.13981e-05
4.61448e-06
4.95563e-06
9.53882e-06
4.36519e-05
5.02921e-05
2.91965e-05
4.45095e-05
4.74337e-05
2.18654e-05
4.66249e-06
-3.19155e-05
-3.37472e-05
1.09354e-05
2.48022e-05
-5.76351e-06
-4.40363e-05
-4.93831e-05
-3.16074e-05
-4.78965e-05
-3.38121e-05
-3.54694e-05
-4.52933e-05
-2.93649e-05
-4.35154e-05
-4.0492e-05
-4.81477e-05
-3.00344e-05
-2.77731e-05
-5.14497e-05
-1.19158e-05
8.83614e-06
4.69842e-05
4.56155e-05
5.81652e-05
5.2853e-05
3.69821e-06
-1.25379e-05
1.81573e-05
-2.11445e-05
-3.77617e-05
-5.45853e-06
-1.49461e-05
1.20526e-06
1.76827e-05
-4.24695e-05
-3.49825e-05
-2.8898e-05
-3.27229e-05
-4.04368e-05
-1.49703e-05
7.73797e-06
2.53857e-05
-3.69327e-06
-2.74003e-06
3.9333e-05
7.47062e-05
2.70655e-05
1.16813e-05
4.8134e-05
0.000170905
0.000331638
0.00050623
0.000775079
0.00127509
0.0020611
0.00330973
0.00523288
0.0082427
0.0130583
0.020554
0.0324428
0.0512423
0.0808086
0.127374
0.200632
0.316163
0.497803
0.784256
1.23475
1.94562
3.06418
4.82993
7.6098
11.9999
18.9128
29.8305
47.0197
74.1581
116.862
184.241
290.168
457.178
719.424
1132.81
1781.1
2804.36
4401.54
6936.72
10869.1
17313.9
26790.9
43044.1
63066.6
1.21441e-06
1.04176e-05
2.04972e-05
-2.06687e-05
-7.98695e-05
-5.7525e-05
-5.06493e-05
-1.98208e-05
-6.76331e-05
-6.17784e-05
-3.01514e-05
6.72199e-06
-4.10907e-05
-2.37621e-05
3.27438e-06
1.75154e-05
-4.36487e-05
-2.159e-05
-3.02615e-05
-3.75727e-05
-4.3037e-05
-2.29451e-06
2.95547e-05
3.80758e-05
6.88852e-05
3.04889e-05
6.44528e-06
5.48189e-05
5.44128e-05
-1.01098e-05
-5.44654e-06
3.01428e-05
1.61444e-05
1.97056e-05
-1.24864e-05
-3.56082e-05
2.06348e-05
2.28576e-05
1.83468e-05
5.03414e-05
4.20803e-06
1.60153e-05
3.42733e-05
2.93322e-05
5.39832e-05
6.07958e-05
1.2846e-05
-3.96702e-05
-2.4862e-05
-2.00875e-05