/*--------------------------------*- C++ -*----------------------------------*\
| =========                 |                                                 |
| \\      /  F ield         | OpenFOAM: The Open Source CFD Toolbox           |
|  \\    /   O peration     | Version:  2412                                  |
|   \\  /    A nd           | Website:  www.openfoam.com                      |
|    \\/     M anipulation  |                                                 |
\*---------------------------------------------------------------------------*/
FoamFile
{
    version     2.0;
    format      ascii;
    arch        "LSB;label=32;scalar=64";
    class       volScalarField;
    location    "0.001";
    object      ddt0(rho,e);
}
// * * * * * * * * * * * * * * * * * * * * * * * * * * * * * * * * * * * * * //

dimensions      [1 -1 -3 0 0 0 0];

internalField   nonuniform List<scalar> 
180000
(
-9.25491e-06
1.40433e-05
1.46116e-07
-3.10837e-06
-3.58168e-05
3.21572e-05
4.95539e-05
1.66773e-05
2.24094e-05
-3.94935e-05
-4.38022e-05
3.61206e-05
4.00488e-05
-2.01927e-05
-7.45605e-05
-1.65351e-05
5.87273e-05
3.14983e-05
-2.44756e-05
3.49391e-05
5.88436e-06
-2.65212e-05
-2.20763e-05
0.00011498
1.6528e-06
-2.01145e-06
1.1463e-05
-2.58386e-05
5.31565e-05
-0.000143879
-0.000123017
7.8508e-06
6.00287e-05
5.97177e-05
-3.3347e-05
-3.49161e-05
-5.2413e-05
-2.66636e-05
7.36215e-05
6.00761e-06
7.12111e-06
-0.000103205
-2.77784e-05
8.66452e-07
-2.29167e-05
4.8954e-05
2.71499e-05
-2.60136e-05
6.32581e-05
0.000115625
6.51153e-05
-6.2374e-05
-8.12088e-05
1.91213e-05
-6.00346e-05
-8.50538e-05
3.52451e-05
-4.01609e-05
-1.22062e-05
1.79836e-05
5.58806e-05
3.57386e-05
5.78269e-05
2.43593e-06
2.4489e-06
-7.00946e-05
-8.7232e-05
-6.54078e-05
8.68745e-06
6.3178e-05
2.25887e-05
-8.67779e-05
-1.99644e-07
0.000104172
3.57987e-05
-2.34974e-05
8.52795e-05
-2.88955e-05
-5.94719e-05
-5.11721e-05
-6.01264e-05
-7.60248e-05
-7.79215e-05
4.47287e-05
0.000111623
3.18557e-05
3.00777e-05
9.30263e-05
7.06262e-05
4.71348e-05
-8.99194e-05
-7.9173e-05
-0.000108968
-8.46297e-05
2.11087e-05
-7.34491e-06
1.43094e-05
6.12294e-05
8.60537e-05
8.45997e-05
6.14962e-06
-6.75039e-05
-6.21651e-05
-3.40506e-05
-0.000102304
-7.41421e-05
-4.52178e-05
-1.15866e-05
2.65974e-05
6.73086e-05
8.82578e-05
7.32161e-06
-8.6121e-05
-1.63841e-05
-6.2351e-05
-0.000123048
-4.79033e-05
-1.70352e-05
-1.82511e-05
-0.000122615
1.18276e-05
-7.96155e-06
5.69564e-05
6.66647e-05
4.28299e-05
0.000113418
5.75624e-05
3.6815e-05
1.51543e-05
1.77651e-06
8.18965e-05
3.67575e-05
-6.12907e-05
-4.88704e-05
-2.53021e-05
-2.53801e-05
-1.63071e-05
1.59677e-05
-0.000120002
-7.14917e-05
-2.92718e-05
3.29989e-05
6.33242e-05
6.71845e-05
3.82851e-05
4.0251e-06
-9.4671e-05
-1.78135e-05
3.93966e-05
-3.30086e-05
1.80577e-05
-5.93863e-05
-2.10739e-05
-1.13142e-06
1.57356e-05
-2.55568e-05
-4.4712e-05
-4.4327e-05
-1.49008e-05
1.23509e-05
6.75448e-06
-8.20822e-05
-9.75115e-05
2.65598e-06
2.8804e-05
-2.80149e-05
-2.18627e-05
-1.38404e-05
2.81003e-06
4.50105e-05
1.5484e-05
1.05477e-05
-3.627e-05
-7.53977e-05
-6.29416e-05
3.62228e-05
-2.90216e-05
-7.60352e-06
8.81942e-05
4.21686e-05
9.95687e-05
8.24288e-05
1.0714e-05
-0.000101466
-2.09296e-05
-8.38981e-05
-0.000100088
-3.95929e-05
-5.33531e-05
4.52875e-05
5.82747e-05
3.89788e-05
4.62724e-05
1.38463e-06
6.55825e-06
2.27552e-05
-8.37637e-05
-7.57144e-06
-1.90109e-05
2.41195e-05
-2.40957e-05
3.99364e-05
5.59334e-05
8.78895e-05
9.23219e-05
8.57105e-07
6.93348e-05
5.31023e-05
7.12238e-05
-4.10426e-05
-7.91045e-05
-5.76385e-05
-0.000109436
-9.9641e-05
-0.00010122
-0.000140464
-2.23204e-05
-1.13872e-05
-4.97396e-06
7.76985e-05
4.0115e-05
7.56536e-06
-5.51108e-05
-6.68303e-05
-1.72499e-05
-0.000122038
-4.83415e-05
-9.824e-05
-1.25825e-05
-3.36807e-05
1.9907e-06
2.35559e-05
8.25809e-06
-8.23545e-05
-2.84919e-05
1.82912e-05
-0.0001173
7.78435e-06
3.73361e-05
1.61061e-05
1.25138e-05
-8.50592e-05
-1.7535e-05
0.000120469
5.98755e-05
9.71592e-05
9.16226e-05
9.55119e-05
0.000219711
0.000439986
0.000719144
0.00118014
0.00203575
0.00325108
0.00520768
0.00880002
0.0141231
0.0217445
0.0356649
0.0594714
0.091628
0.141344
0.236415
0.382323
0.573989
0.905186
1.51202
2.35338
3.51969
5.67168
9.27667
14.0568
21.3202
34.5571
55.0054
82.7093
127.535
204.823
319.556
483.571
752.458
1191.27
1843.25
2819.51
4395.83
6885.64
10659.8
16462
25679.1
40101.6
62479.4
97500.3
153330
242059
385915
619534
1.01836e+06
1.66926e+06
2.83691e+06
4.42112e+06
-4.11088e-06
1.50081e-05
2.54076e-05
-3.6032e-05
-3.36603e-05
-2.66087e-05
4.68356e-05
2.88459e-05
-2.08134e-06
-6.90009e-07
3.47402e-05
-3.41753e-06
-3.65523e-05
-6.7997e-05
-1.40972e-05
3.73685e-05
1.82927e-05
-1.2796e-05
1.39432e-05
3.93172e-05
6.66337e-05
-7.86328e-05
-0.000122205
-1.03714e-05
2.29331e-05
7.08758e-05
4.92036e-05
-3.30222e-05
-4.15145e-05
2.30319e-05
-0.000138782
-1.8822e-05
-2.24254e-06
-3.19942e-05
-7.97889e-06
-3.59935e-05
9.49586e-05
0.000106923
9.916e-05
4.72922e-05
-9.66809e-05
-3.55411e-05
6.47701e-07
-8.41539e-05
3.44655e-05
4.34805e-05
3.78949e-05
-4.06232e-05
-8.49482e-05
-8.50154e-05
-2.70069e-05
0.000101071
8.81362e-05
1.51999e-05
-3.58801e-06
3.8586e-05
2.87754e-05
-5.71922e-05
-0.000110446
-8.2155e-05
1.95649e-05
5.75403e-05
4.50164e-05
1.47725e-05
2.39156e-05
2.87646e-05
1.56771e-06
5.08455e-05
-1.42649e-05
-9.8737e-05
2.12376e-05
-1.45749e-05
-4.77941e-05
-1.30094e-05
5.56644e-05
1.36483e-05
4.30508e-05
4.94506e-05
6.06624e-05
3.08018e-05
-7.94116e-05
1.5625e-05
-8.4512e-05
-3.85521e-05
4.39026e-05
4.37574e-05
7.40606e-05
3.2894e-05
-8.461e-05
-3.57318e-05
-9.51461e-06
5.31265e-05
3.1388e-05
2.69043e-05
5.09502e-05
5.07332e-05
1.16332e-05
2.24029e-05
-3.31471e-05
-1.54507e-05
-2.94485e-05
-8.11373e-05
-0.000134627
-8.50297e-05
3.74868e-06
2.44726e-05
9.39078e-06
1.62699e-05
-5.54948e-05
5.52214e-05
-6.24047e-05
5.1557e-05
6.21995e-05
-1.76288e-05
-0.000109592
-0.000159898
2.06059e-05
5.65474e-05
2.86833e-05
-5.01357e-05
-8.20783e-05
-4.42563e-05
-2.08548e-05
4.38555e-05
3.45646e-05
3.50798e-05
3.41033e-05
1.01517e-05
7.67927e-05
0.000161445
9.73559e-05
2.42334e-05
-9.12889e-06
-4.00313e-05
2.53171e-05
1.58206e-05
8.61024e-05
6.53798e-05
1.63064e-05
-4.92701e-05
-1.21517e-05
6.58641e-05
2.98587e-05
-9.72716e-05
-7.93133e-05
-3.76361e-05
7.33009e-05
-2.29679e-06
2.72314e-06
-1.37629e-05
-8.01025e-05
3.86889e-05
5.77763e-05
5.7547e-05
9.6282e-07
-8.3106e-06
-0.000117428
-4.34358e-05
4.34992e-05
-2.06256e-05
-6.34323e-06
-7.25183e-05
-3.85924e-05
-4.1821e-05
-0.000123549
-2.8092e-05
4.40304e-05
-2.78571e-06
5.19922e-05
6.30483e-05
4.47142e-05
4.98306e-05
9.53364e-05
0.000141212
1.51248e-05
5.77958e-05
-1.14882e-05
-1.44574e-05
-4.9289e-05
-0.000153378
-0.000125409
-4.3462e-05
-1.98881e-05
-4.65687e-05
3.01321e-05
6.1939e-05
5.39516e-05
1.13876e-05
8.69038e-05
8.12362e-05
5.48972e-05
-5.58347e-05
3.04084e-05
3.66759e-05
-8.11365e-05
-6.72738e-05
-1.54576e-05
-6.75548e-05
-1.91422e-05
-5.46197e-05
-5.51386e-06
3.86179e-05
7.60125e-05
6.9027e-05
-4.10452e-05
5.85713e-06
4.66484e-05
-2.8156e-05
4.2549e-05
7.96765e-05
6.26593e-05
-2.74392e-05
-2.16968e-05
-1.18544e-05
-6.90951e-05
-5.64449e-05
2.76961e-05
6.51062e-05
2.03225e-05
4.27991e-06
3.21136e-06
6.4409e-05
-4.98677e-05
-0.000150293
-6.74496e-05
-6.82113e-05
-3.84052e-05
3.03051e-05
8.77086e-05
0.000127843
0.000108473
5.31696e-05
0.000107839
8.4121e-05
1.63223e-05
-3.63696e-05
-0.000109886
-0.00014966
-8.42546e-06
-8.97937e-05
-3.64493e-05
6.45449e-05
0.000135467
9.89488e-05
5.80588e-05
6.6378e-05
6.88165e-05
1.13783e-05
0.0002077
0.00047696
0.000730037
0.00110958
0.0019304
0.0030889
0.00499447
0.00803505
0.0130417
0.0211975
0.0334965
0.0536154
0.0870447
0.138238
0.217115
0.347123
0.55719
0.872285
1.36405
2.17555
3.44844
5.34382
8.35092
13.2432
20.7407
31.9881
49.9543
78.5917
122.07
188.104
293.159
457.775
708.207
1092.25
1697.76
2637.63
4077.82
6298.42
9773.35
15154.1
23466.9
36341.1
56464.9
87775.5
136788
213637
336097
530750
850217
1.35958e+06
2.23647e+06
3.47568e+06
-1.5756e-05
-1.6681e-05
3.33735e-05
3.68697e-05
2.87923e-06
8.88473e-06
-6.64152e-05
2.58697e-05
3.72089e-05
-5.78236e-06
-2.17033e-05
1.48752e-05
-3.58582e-06
-6.09752e-05
7.12934e-06
4.43485e-05
-9.74191e-05
4.71722e-05
4.00928e-05
8.73065e-05
5.42348e-06
-3.04296e-05
4.00688e-05
3.17033e-05
4.21783e-05
-7.42249e-05
-0.000116655
-6.15349e-05
3.59337e-05
0.000104476
2.6947e-05
-1.5688e-06
8.8289e-06
-2.95473e-07
-1.16975e-05
-9.34487e-06
9.50838e-06
4.64619e-05
3.50067e-05
-8.96602e-05
-0.000145934
-5.39823e-05
4.45939e-05
7.42498e-05
6.69191e-05
1.13332e-05
2.6754e-06
-1.69166e-05
1.18063e-05
2.13264e-05
3.10399e-05
-1.53167e-05
-0.000122397
-6.14729e-05
-7.39518e-05
-4.76829e-06
2.58114e-05
2.73223e-05
4.77551e-05
6.77767e-05
3.88552e-05
-0.00010223
-4.82797e-05
7.88055e-05
-3.23547e-05
-3.70122e-05
-7.29493e-06
2.35855e-06
5.07441e-06
-4.96965e-05
-4.90558e-05
9.0223e-06
-7.26148e-06
8.36449e-05
8.80071e-05
9.35694e-05
-4.04205e-05
5.10136e-05
2.71255e-05
-0.000116476
-3.73451e-05
-1.54349e-05
5.87455e-05
4.37686e-05
-2.22895e-05
-2.87215e-05
-1.54731e-05
-9.25269e-05
-5.73815e-05
-9.45508e-05
5.85992e-05
6.01711e-05
5.48459e-05
7.54176e-05
2.38098e-05
-2.92517e-05
-3.35638e-05
-8.58955e-05
1.27301e-05
-3.66645e-06
4.68006e-05
2.88101e-05
5.38111e-05
-1.80735e-05
-0.000117725
-0.000198065
-7.60302e-05
-1.95472e-05
-1.54502e-05
-2.76969e-06
5.37214e-06
6.21631e-05
2.09136e-05
1.51899e-05
7.25571e-05
6.96016e-06
1.6376e-05
5.68749e-05
2.49068e-05
-4.08726e-05
-4.42939e-05
-6.10782e-05
4.56101e-05
6.65374e-05
9.96421e-05
9.01509e-05
4.82526e-05
1.60936e-05
-7.92527e-05
-7.23269e-05
-0.000140956
-4.71514e-05
2.00533e-05
4.85113e-05
-5.33136e-05
2.41106e-05
1.15042e-05
4.4392e-05
2.09192e-05
0.000137665
0.000192564
9.57377e-05
5.10702e-05
-5.99446e-05
-0.000110116
9.55292e-07
5.66025e-06
-5.48968e-05
-0.000125504
-0.000108193
-0.000144475
-7.25733e-05
3.45087e-05
7.80608e-05
3.57725e-05
-5.08357e-05
2.64426e-05
7.25781e-05
0.000127191
0.000103565
3.40224e-05
1.80307e-05
9.35609e-05
4.13081e-06
-0.00011789
-7.63847e-05
-8.57072e-05
-7.67065e-05
-9.22426e-05
-9.97842e-05
-1.6322e-05
6.37406e-05
4.28417e-05
3.35956e-05
7.90582e-05
0.000169008
7.79792e-05
-1.55124e-05
3.86343e-05
2.2646e-05
-9.74694e-05
-9.1412e-05
-6.11816e-05
-9.73169e-05
-6.56051e-05
-3.35174e-05
7.82178e-05
6.8635e-05
9.22981e-06
2.95077e-05
8.35211e-05
4.92585e-05
6.30546e-05
8.16763e-05
3.03186e-05
3.06107e-05
4.12604e-05
1.57879e-05
-2.77017e-05
-1.56326e-05
-3.84526e-05
5.04642e-05
-6.69916e-05
-8.36131e-05
-5.60683e-05
1.49679e-05
-8.4663e-05
-6.16199e-05
-1.53083e-06
8.08644e-05
6.77569e-05
-5.29131e-05
-1.0774e-06
-4.22351e-05
-5.40489e-05
-2.98425e-05
1.16262e-05
6.95396e-06
-5.57536e-05
-4.01091e-05
-5.61443e-05
-3.91096e-05
6.06497e-06
1.09682e-05
-5.29858e-05
-5.8932e-05
4.22174e-05
6.89326e-05
2.92117e-05
1.74574e-05
9.82798e-06
9.20234e-05
7.17085e-05
2.63357e-05
-2.97766e-06
1.14377e-05
3.66478e-06
-2.57214e-05
-1.09493e-05
-8.6087e-05
-7.74187e-05
-3.76866e-05
1.77943e-05
3.69405e-05
5.20652e-05
2.43558e-05
8.9271e-05
0.000189749
0.000214381
0.000381257
0.000673013
0.000957516
0.00163503
0.00274869
0.00442308
0.00726062
0.0116292
0.0185172
0.0298268
0.0476289
0.0761336
0.121514
0.193777
0.307343
0.4868
0.770852
1.2188
1.91711
3.01505
4.74051
7.43805
11.6199
18.1652
28.3793
44.2458
68.7506
106.946
166.2
257.882
399.176
618.61
957.647
1481.31
2287.56
3536.51
5462.32
8436.81
13017.7
20109.7
31049.8
47991.1
74163.4
114896
178104
277509
432601
683290
1.07122e+06
1.74176e+06
2.66194e+06
-1.80589e-05
2.05086e-05
3.18814e-05
-2.06625e-05
2.67965e-05
-1.89395e-05
-3.69462e-05
3.23521e-05
-2.70831e-05
-5.86288e-05
2.2157e-05
0.000136937
3.59206e-05
-1.00756e-05
-5.62751e-05
-0.000114031
1.08523e-05
5.11083e-05
4.10603e-05
-4.32278e-05
-5.97012e-05
3.62452e-05
2.97202e-05
-7.17133e-05
-1.32115e-05
4.38364e-05
5.78516e-06
2.0139e-05
3.44332e-05
-6.43313e-05
-6.39004e-05
1.85994e-05
1.0814e-05
-0.000137264
-8.58026e-05
-3.25652e-05
4.04088e-05
6.19481e-05
5.13709e-05
0.00010825
6.80396e-05
7.79202e-05
8.48807e-06
-6.98398e-06
-7.97554e-05
-4.73511e-05
-1.58779e-05
-6.34791e-05
-2.45062e-05
-7.8878e-06
-1.73677e-05
7.12702e-05
0.00012002
5.75289e-05
3.08802e-05
2.3424e-05
-1.52829e-05
-6.7514e-05
2.7838e-06
-3.13698e-05
-1.34909e-05
-5.88042e-05
-4.82044e-05
-5.09706e-05
6.66605e-05
-2.51438e-05
2.31627e-05
4.75266e-05
5.60902e-05
2.02817e-05
1.0311e-05
1.41428e-05
5.74048e-05
2.86215e-05
-2.03142e-05
5.55194e-07
-1.86446e-06
-2.2572e-05
-1.90024e-05
3.00387e-05
3.91355e-05
5.3811e-05
0.000121899
2.80399e-05
-5.87752e-06
-2.0584e-05
-1.36789e-05
-7.21665e-05
-7.76124e-05
8.19059e-06
-3.34457e-05
1.18096e-05
2.3806e-05
-2.44553e-05
6.26597e-05
3.97667e-05
-3.85088e-06
-3.65664e-05
-5.91745e-05
-9.16573e-05
1.85232e-05
-2.77569e-05
-3.53954e-05
9.13639e-07
-1.93466e-06
1.61658e-06
4.63191e-05
-2.93464e-05
-8.53613e-05
-1.77589e-05
-5.68132e-06
-2.93671e-05
3.7e-05
7.35951e-05
-4.27441e-05
-2.58127e-05
6.06823e-05
0.000102328
5.0386e-05
5.06408e-05
0.00010735
7.92489e-07
-4.7778e-06
9.42684e-05
-4.20005e-05
4.15874e-06
-1.41409e-05
-7.29651e-06
8.47338e-05
1.27311e-06
4.69698e-05
2.61233e-05
3.86919e-05
5.75952e-05
-5.93943e-05
-8.11349e-05
-4.42884e-05
-1.94196e-05
1.12233e-05
1.32692e-06
2.15157e-05
1.46345e-06
-8.52739e-07
5.9976e-07
2.70675e-06
-1.89589e-05
5.35024e-05
-1.39512e-05
1.03231e-05
1.10574e-05
-2.75778e-05
-1.52343e-05
5.97997e-05
5.96958e-05
8.75587e-05
4.65252e-05
-4.58313e-05
-1.96258e-05
4.77665e-05
6.03332e-08
4.15325e-05
4.06476e-05
-2.43368e-05
-4.23001e-05
1.96747e-06
-4.54245e-05
-5.53956e-05
2.53406e-05
3.31017e-05
2.16887e-05
-3.02937e-05
1.84013e-05
2.45201e-05
-3.69925e-05
-3.65346e-05
-4.23457e-05
-5.11341e-07
6.26468e-05
-1.36287e-05
1.75873e-06
6.58338e-06
-2.19698e-05
1.58418e-05
-9.13949e-05
-4.72493e-05
2.77397e-05
0.000109364
5.28138e-05
-1.34293e-05
-2.5096e-06
5.36839e-05
2.27956e-05
7.18242e-05
4.64799e-06
-2.55057e-05
-3.21521e-05
-6.34458e-05
-6.24663e-05
-1.17557e-05
-5.50743e-05
6.55069e-05
1.47992e-05
3.87089e-05
6.12661e-05
4.67699e-05
4.15129e-07
1.81092e-05
8.36918e-06
-8.60165e-05
-7.93181e-05
-8.26315e-05
-5.19786e-05
4.11728e-05
-9.35161e-06
-0.000138152
2.02814e-07
-5.79362e-05
-0.000112292
-8.79625e-05
-3.80047e-05
-7.15771e-05
5.93347e-05
0.000114835
2.18843e-05
-3.71551e-05
-0.00011373
-6.28817e-05
6.93283e-05
-9.19935e-08
2.59879e-05
1.92139e-05
2.54274e-05
2.51763e-05
5.2774e-05
0.000106862
5.17074e-05
-6.98664e-06
-9.04631e-05
5.85492e-05
2.88448e-05
-3.54563e-06
-9.43431e-06
-1.05748e-05
6.40375e-06
-9.81116e-06
-2.79369e-06
0.000136617
0.000186491
0.000228187
0.000335303
0.000617677
0.000937738
0.00134434
0.00219189
0.00365906
0.00586348
0.00956686
0.0154132
0.02485
0.0397237
0.0635676
0.101454
0.161609
0.256511
0.406888
0.643593
1.01652
1.60198
2.5218
3.95781
6.20601
9.71095
15.181
23.6679
36.8812
57.3625
89.1558
138.253
214.354
331.791
513.384
792.897
1224.75
1889.17
2914.1
4488.71
6916.95
10647.3
16397
25227.3
38849.1
59788.9
92171.3
142020
219742
339411
530647
819873
1.31951e+06
1.98346e+06
1.71827e-05
2.06758e-05
-1.24422e-05
2.69483e-06
-5.88088e-07
1.81033e-05
-7.70733e-05
-5.3449e-05
0.000105637
-2.89262e-05
-2.28383e-05
-1.74693e-05
-3.33512e-05
9.20391e-06
2.60484e-05
4.1553e-05
4.51791e-05
3.00522e-06
-2.85333e-05
1.45894e-05
2.05372e-05
-6.02508e-05
-2.07492e-05
-2.23203e-05
8.63117e-06
1.22048e-05
-1.87796e-05
-5.06694e-05
-2.51751e-05
2.49635e-05
-4.89036e-05
-2.30297e-05
5.15264e-05
8.75151e-05
1.67378e-05
-2.41612e-05
3.87499e-06
-2.96766e-05
4.66857e-05
5.04562e-05
2.71763e-05
4.95124e-05
-4.37742e-05
-0.000126276
5.7856e-05
6.2467e-05
3.82539e-05
6.24968e-05
1.4488e-06
1.49441e-05
9.48624e-06
9.79578e-07
1.31166e-05
-4.36396e-05
-9.99904e-06
9.33946e-06
6.34334e-05
-5.24337e-06
-3.97093e-05
4.76979e-06
1.68284e-05
3.66486e-07
-5.43002e-05
-4.80641e-05
-5.65248e-05
-3.80228e-05
4.38595e-05
4.24678e-05
3.1663e-05
3.44161e-05
-5.06045e-05
-5.89274e-05
-6.44466e-05
-2.78272e-05
1.86636e-06
2.77617e-05
0.000127871
8.05554e-05
3.36319e-05
5.75836e-05
4.73434e-05
3.68777e-08
-3.69586e-05
-0.000121546
-5.48366e-05
-7.65643e-05
-5.20005e-05
-1.71907e-05
1.02476e-05
5.55597e-05
5.36459e-05
2.98724e-05
3.4386e-05
3.01439e-05
6.50334e-05
1.60181e-05
-5.04944e-05
6.6952e-07
-5.53702e-05
-8.35544e-05
-7.39627e-05
-0.000109695
-6.31991e-05
1.53578e-05
5.5841e-05
3.97205e-05
7.62972e-06
6.59949e-05
-4.21858e-05
-0.000104047
2.57176e-06
1.65395e-05
4.88647e-05
7.86603e-05
6.6193e-06
-4.38436e-05
-4.70291e-05
-1.39302e-05
-8.75091e-05
-5.37842e-05
4.40518e-05
4.4115e-05
2.8873e-05
1.55303e-05
8.74947e-05
6.13599e-05
2.72449e-05
7.83663e-05
1.68166e-05
-2.29161e-05
1.19206e-05
-2.81103e-05
-2.56256e-06
4.15726e-05
1.38579e-05
-7.79247e-05
-6.53296e-05
-1.60335e-05
-5.21842e-05
-3.55307e-06
6.05245e-06
7.31772e-05
1.6131e-05
4.22214e-05
-2.13674e-05
3.08904e-05
1.42916e-05
-2.33157e-05
3.13413e-05
0.000128585
2.26054e-05
-5.39162e-05
-6.80364e-08
-6.95609e-05
-5.01903e-05
1.16864e-05
1.73648e-05
-2.73455e-05
-1.22645e-05
-1.445e-05
3.47402e-05
5.14424e-05
2.31189e-05
6.79617e-05
1.48849e-05
-9.8335e-07
6.06142e-05
8.92801e-05
-4.9696e-05
-5.59216e-05
-6.47605e-05
-3.91255e-05
-8.30072e-06
8.18638e-06
7.44684e-05
7.97768e-05
5.05027e-06
1.59015e-05
8.18233e-06
-7.06149e-05
1.46475e-05
9.19357e-05
6.69644e-05
7.92076e-05
-3.46589e-05
-9.53305e-05
-8.21635e-05
2.40545e-05
1.4938e-05
-2.45977e-05
2.71387e-06
-5.99303e-06
1.18172e-05
-1.5093e-05
8.72186e-06
-1.70241e-05
5.50961e-06
4.49578e-05
-4.05411e-05
1.02901e-05
-2.71889e-05
-3.55077e-05
3.11387e-05
1.82799e-05
2.75528e-05
-4.48996e-05
-1.64643e-05
3.82514e-05
-0.000117147
-2.61249e-05
-5.61758e-05
-2.62655e-06
3.37654e-05
-8.2764e-05
1.04999e-05
-5.16726e-05
-6.32608e-05
7.93645e-05
9.99467e-05
1.39134e-06
-2.84169e-05
8.31533e-06
-4.39167e-05
3.2519e-05
-7.42167e-05
-0.000165591
-5.94258e-05
2.20395e-05
1.07083e-05
9.97619e-06
0.000106996
3.93574e-05
-1.65095e-05
-5.14527e-05
-6.85738e-05
5.56677e-05
4.67317e-05
2.3361e-05
3.26808e-05
-1.63739e-05
-5.96898e-05
2.36882e-05
-1.36162e-05
6.81435e-05
9.5125e-05
9.34251e-05
1.08603e-05
7.7544e-05
0.000155116
0.00023995
0.000435956
0.000723994
0.00100311
0.00172396
0.00278908
0.0046494
0.00758343
0.0122455
0.0196974
0.0315038
0.0502338
0.0801189
0.12778
0.203113
0.322336
0.510199
0.80635
1.27119
2.00123
3.14277
4.93018
7.71419
12.0591
18.8077
29.3093
45.5685
70.8037
109.788
170.148
263.166
406.907
628.054
969.191
1493.14
2300.3
3538.71
5444.46
8365.6
12858.3
19742
30329.4
46549.8
71539.8
109824
169193
259836
403685
617753
986991
1.46241e+06
8.72333e-06
-3.0662e-05
-3.83944e-05
2.5877e-05
2.63573e-06
-1.93159e-05
3.65221e-05
1.38017e-06
3.80899e-05
1.34066e-05
-5.09818e-05
-1.24833e-05
-1.63638e-05
-6.40797e-05
-6.93433e-05
4.43318e-05
-5.07239e-06
-1.5075e-05
3.4241e-05
3.77639e-05
1.2621e-05
2.21945e-05
4.4255e-05
5.95574e-06
3.36549e-05
3.44618e-05
-6.65847e-05
-5.08599e-05
-2.86235e-05
-9.30886e-06
4.57212e-05
1.01447e-05
-6.11133e-05
-6.46981e-05
-2.59576e-05
5.22517e-05
8.78684e-05
8.41277e-05
4.33122e-05
-2.1533e-05
2.19208e-05
-2.66716e-05
-7.7855e-05
2.05299e-05
-4.99614e-05
4.64563e-05
4.36568e-05
-4.03245e-05
-8.37305e-05
-0.000103306
-3.9693e-06
-7.73329e-05
4.57754e-05
0.000110244
8.33043e-06
5.05472e-05
-2.91505e-05
-3.04605e-05
-7.84361e-05
-4.27544e-05
1.38887e-06
-3.10874e-05
2.48844e-05
9.2324e-05
9.08303e-05
3.7008e-05
-2.93196e-05
6.99508e-05
-1.90859e-05
1.10655e-05
8.03271e-05
4.5223e-05
7.08019e-05
7.75904e-05
-7.99064e-06
1.07255e-05
-9.29291e-05
-8.28731e-05
-3.45764e-05
-1.59668e-05
7.18655e-06
-1.91124e-05
-1.47795e-05
-9.95396e-05
-2.0849e-05
3.4488e-05
1.12497e-05
3.66469e-05
-1.07134e-05
1.01656e-05
-3.16154e-05
-8.06692e-05
-5.83115e-05
-8.26476e-07
-5.6879e-07
-5.53673e-09
-5.29068e-05
-5.0603e-06
5.98718e-05
8.17718e-05
0.000122276
1.91952e-05
1.5518e-06
-2.04251e-05
-4.21654e-05
-7.69193e-05
-8.87839e-05
-1.77781e-05
7.07246e-05
3.96876e-06
9.02018e-06
2.29577e-05
-4.91855e-06
1.11205e-05
4.20095e-05
7.39754e-05
5.91138e-05
9.92174e-05
-3.20714e-05
-3.36426e-05
-5.06284e-05
-4.01689e-05
-6.34069e-06
1.22575e-05
3.22686e-05
1.76672e-05
-1.10596e-05
1.35668e-05
3.15353e-05
0.000100693
2.10124e-05
-2.06518e-05
-2.58348e-05
-0.00013072
-3.92515e-05
7.81566e-05
1.98305e-05
-1.61612e-05
7.04007e-05
1.01352e-05
6.70799e-06
-7.94908e-06
-1.12741e-05
1.87909e-05
-1.84544e-05
-6.21841e-05
-7.71239e-05
-6.1112e-05
-2.00688e-05
-9.131e-06
-3.5749e-05
4.03267e-05
4.61897e-05
1.45591e-05
0.000113108
-2.08405e-05
-6.24296e-06
3.29954e-05
3.87092e-05
4.32924e-05
0.000103969
9.59466e-05
-2.40359e-06
1.1809e-06
-1.20233e-05
5.13178e-06
-2.01883e-05
-2.0024e-05
-9.8323e-05
-0.00013552
-7.51891e-05
4.12293e-06
1.29236e-05
7.96407e-06
1.30846e-05
6.89212e-05
9.36241e-05
-4.88365e-06
-1.66678e-05
1.38791e-05
5.58032e-05
0.000119107
2.19305e-05
-5.60929e-05
9.47529e-06
8.51186e-06
2.50494e-05
4.23055e-05
0.000101024
5.65747e-05
1.56702e-05
-2.28515e-06
-9.5944e-05
-3.74493e-05
-9.37411e-05
-7.57587e-06
9.98491e-06
-2.88979e-05
-0.000111047
-2.75305e-05
2.5047e-05
-6.64406e-05
-2.20203e-05
6.40626e-05
4.80111e-05
-3.84037e-05
-4.82873e-05
2.2842e-05
5.83797e-05
-4.39251e-05
2.76083e-05
0.00010662
4.43578e-07
-2.95259e-06
-3.31089e-05
6.85121e-06
8.3778e-05
5.24801e-05
2.24744e-06
-9.4031e-06
-1.91109e-05
-4.52635e-05
-3.36185e-05
-2.39837e-05
3.28706e-05
2.56387e-05
5.3302e-05
-1.18984e-05
5.08997e-05
-1.07461e-05
-1.23496e-05
-8.55056e-05
2.15814e-05
2.73344e-05
3.57004e-05
1.93685e-05
-6.43887e-06
2.81394e-05
2.40658e-05
2.76804e-05
1.40845e-07
-7.56184e-05
-0.000102954
2.3548e-05
1.77606e-05
3.20147e-05
3.95518e-05
4.77134e-06
0.000124657
0.000189313
0.000312548
0.000583662
0.000891785
0.00131708
0.00211304
0.00349607
0.00568158
0.00906388
0.0146607
0.0236077
0.0378284
0.0603698
0.0963095
0.153254
0.243493
0.385728
0.610263
0.962799
1.51686
2.3839
3.7423
5.86017
9.1669
14.3049
22.303
34.6938
53.928
83.6435
129.656
200.575
310.144
478.669
738.546
1137.57
1751.92
2693.84
4142.21
6360.52
9768.58
14984.2
22995.1
35248.1
54089.6
82877.9
127394
195023
301926
459301
730444
1.07038e+06
-2.3894e-06
3.30156e-06
-3.32232e-05
-2.95823e-05
2.26971e-05
6.82965e-06
3.01194e-05
-3.40466e-05
-9.3823e-06
6.38094e-06
1.37791e-05
1.92517e-05
7.4197e-05
4.35545e-05
-1.32201e-05
-3.42165e-05
-5.23748e-05
-1.39645e-05
1.45145e-06
8.60173e-05
3.68645e-05
4.16269e-05
-2.11935e-05
-4.75285e-05
-3.16733e-05
3.06377e-05
4.47583e-05
-4.28663e-05
-1.22379e-05
-5.23167e-05
-2.24347e-05
-5.26126e-05
-1.19542e-05
5.15872e-05
2.11836e-05
2.53221e-06
-2.80596e-05
-2.77106e-05
-6.837e-05
-4.52383e-05
2.88699e-05
-1.15699e-06
-6.41734e-05
-7.33925e-05
6.48254e-05
5.67124e-05
-3.28099e-05
4.21754e-05
-1.75262e-05
2.05779e-05
4.04627e-05
4.74061e-05
-7.88345e-05
-7.91167e-05
-1.18303e-05
5.81577e-06
9.28769e-06
-8.89726e-05
-5.6259e-05
1.87803e-05
-4.74694e-06
2.13159e-05
4.16211e-05
2.37221e-05
9.6637e-05
0.000165608
8.29923e-05
5.46056e-05
5.48852e-06
-0.00012682
-9.7959e-05
-7.09685e-06
6.63598e-06
5.30663e-06
7.73296e-05
-2.0699e-05
-5.49391e-06
3.67562e-05
-2.43399e-05
-2.64464e-05
6.00565e-06
-3.17101e-05
-7.83207e-05
-3.94387e-05
4.90403e-05
6.471e-05
5.14136e-05
9.06918e-05
2.94818e-05
2.37473e-05
2.22938e-05
-5.19587e-05
-6.59137e-05
-9.37797e-05
-3.88309e-06
6.40793e-05
8.52209e-05
3.79399e-05
-5.27621e-06
-6.61134e-05
-8.82815e-05
-4.01436e-05
-2.76506e-06
-1.90241e-06
-1.18994e-05
1.04516e-05
5.01443e-05
-6.20398e-05
2.01953e-05
2.76978e-05
-1.83827e-06
2.22453e-05
-2.74326e-06
-3.59934e-05
2.38913e-05
8.24441e-05
9.03037e-05
1.17919e-05
5.21858e-06
4.22623e-05
2.16435e-05
5.35584e-05
9.86519e-05
4.74863e-05
4.97345e-05
4.86559e-05
5.76412e-05
-4.501e-05
-5.05652e-05
-6.98962e-05
-6.973e-05
-9.22952e-05
-6.97154e-05
8.65007e-05
0.000114176
3.4119e-05
7.21982e-05
-3.1375e-05
-7.63086e-05
-3.09294e-05
1.9122e-05
2.28243e-05
1.64581e-06
-1.2457e-05
2.29283e-05
6.16862e-06
3.75129e-05
-2.41751e-06
-6.1833e-05
-2.35943e-05
3.52038e-05
-3.92375e-05
-3.42011e-06
1.8764e-05
0.000125375
2.60017e-05
-3.23907e-05
0.000112421
0.000101853
6.47102e-05
6.15067e-05
-1.4048e-05
2.60862e-05
2.48182e-05
-2.41387e-05
-3.23218e-05
-0.000112199
-2.76907e-05
3.70099e-05
4.22442e-05
-8.46882e-06
-0.000120605
-3.74981e-05
1.73495e-05
-4.29034e-05
-9.64784e-06
2.15028e-05
2.09397e-05
9.69536e-05
2.73614e-05
-2.62694e-05
3.9944e-05
9.16993e-05
7.40977e-05
-4.50043e-05
-0.000101168
-6.76178e-06
-1.95513e-06
-4.87722e-05
-1.36535e-05
-5.32968e-05
-1.49599e-05
8.04264e-05
5.46637e-05
6.84757e-05
2.39288e-05
4.06234e-05
6.53507e-05
0.000119742
-2.34913e-06
-0.000101952
-9.73856e-05
-0.000108324
-0.000115608
-6.77669e-05
-1.04385e-05
-5.02756e-05
3.30697e-05
-4.0198e-06
8.75269e-05
3.53635e-05
-6.95643e-06
1.97515e-05
6.67886e-06
0.00013587
0.000101831
3.64463e-06
4.66175e-05
7.11312e-05
9.20177e-06
-3.4977e-05
-5.72417e-05
-7.45729e-05
-4.8133e-05
-1.44398e-05
-1.77987e-05
1.33951e-05
6.48143e-05
0.000117581
0.000115679
3.37821e-05
3.69377e-05
2.37962e-05
-3.7947e-06
1.94011e-05
-1.2372e-07
-4.57907e-06
-0.000125618
-0.000114695
-0.000165807
-5.31693e-05
-5.83197e-05
-5.24032e-05
8.26486e-05
0.000125399
0.00017205
3.61209e-05
0.000116724
0.000185171
9.20784e-05
0.00027485
0.000412006
0.000622462
0.000939487
0.00155942
0.0025479
0.00402105
0.00655043
0.010588
0.0169548
0.0271711
0.0433757
0.069359
0.110545
0.175995
0.27917
0.442174
0.698605
1.10232
1.73478
2.72652
4.27492
6.69486
10.4602
16.3265
25.4253
39.5605
61.4226
95.298
147.557
228.345
352.701
544.553
839.306
1293.26
1989.6
3060.53
4701.21
7221.88
11079.8
17004.2
26063.7
39987.1
61242.7
94075.1
143832
222356
337164
534935
777816
-1.01259e-07
-1.98751e-05
3.21671e-06
-2.5621e-05
9.10935e-06
-5.23594e-06
-5.94746e-05
-7.29515e-05
5.7676e-07
7.44137e-05
3.58776e-05
1.26605e-06
-1.89639e-05
-1.44504e-05
4.2907e-05
4.49949e-06
-2.44706e-05
-2.32391e-05
3.22625e-06
3.77229e-05
-5.14063e-05
-3.65909e-05
1.48321e-05
8.40601e-05
4.45414e-05
6.84739e-05
4.51153e-06
-4.59066e-05
-1.98642e-05
9.99027e-06
5.24038e-05
-2.96544e-05
-0.000107683
-3.37436e-05
6.48685e-05
-3.12268e-05
-4.89877e-05
6.90465e-05
-1.68122e-05
-6.44196e-06
1.14064e-06
3.58885e-06
3.08283e-05
4.90153e-05
3.4024e-05
7.01e-05
2.82385e-05
1.86656e-05
-2.58401e-05
-4.66732e-05
-7.2936e-05
-4.64017e-05
1.14427e-05
4.60019e-05
5.27888e-06
2.90318e-05
-1.04521e-05
-5.63437e-05
6.21713e-05
6.11514e-05
-1.12134e-06
-4.52707e-05
4.33381e-05
-7.69361e-06
-0.000124747
-8.2093e-05
-3.22962e-05
3.64392e-05
0.000123585
2.32583e-05
2.06154e-05
-2.26616e-05
3.23289e-05
8.39147e-05
1.21602e-05
-9.38237e-06
3.11389e-05
2.48202e-05
-7.61486e-05
-8.57456e-05
-4.93195e-05
-9.58388e-05
-7.15016e-05
4.8422e-05
0.000120229
8.35741e-05
6.30287e-05
6.98018e-05
-7.25292e-06
-9.61662e-05
-6.15066e-05
-3.09059e-05
3.13933e-05
-5.40186e-06
5.56396e-05
-1.67742e-05
-5.26604e-05
-7.93548e-07
-9.39128e-07
1.21611e-05
5.06828e-05
-1.64589e-05
-2.50851e-05
-8.27972e-06
-3.22421e-05
-1.95023e-05
-5.61902e-05
7.14571e-05
3.79143e-05
-9.57451e-05
-6.00472e-06
6.06629e-05
2.526e-05
-8.31657e-06
-7.64903e-05
-3.30366e-05
2.7006e-05
-3.41439e-05
-3.41364e-05
-3.76748e-06
5.4379e-05
7.55512e-05
0.000140259
8.86775e-05
3.51128e-05
3.90386e-05
5.58321e-05
1.0887e-05
2.74441e-05
-3.26355e-05
-0.000149802
-8.8382e-05
-4.83499e-05
4.19074e-05
-4.05035e-05
-5.91673e-06
-1.36094e-06
-6.97516e-05
-7.3823e-05
-5.88542e-05
-4.23106e-05
4.48466e-05
3.45466e-05
0.000105338
7.03908e-05
1.54221e-05
-6.73179e-05
-0.000109676
-5.53107e-06
6.56996e-05
-5.79992e-05
-1.27959e-06
6.4173e-05
8.39251e-05
8.57245e-05
-2.34168e-05
3.84687e-05
6.55488e-05
3.24672e-06
-1.11322e-05
8.33646e-06
5.58167e-05
-7.62652e-05
-1.73584e-05
8.74883e-06
-4.49406e-05
4.39715e-05
2.15341e-05
-2.6296e-05
-2.74555e-05
-1.15231e-05
-8.23979e-05
-3.69165e-05
6.34325e-05
4.50939e-05
7.30207e-05
2.32563e-05
2.79923e-05
4.09871e-05
3.70526e-05
3.85343e-05
-7.68418e-06
-4.61209e-05
-5.04005e-05
-2.27563e-05
-2.02957e-05
5.42041e-05
-1.65434e-05
-2.13574e-05
-8.37926e-05
-2.72884e-05
4.30036e-05
6.95942e-05
0.000104263
0.000101344
5.52056e-05
-4.2102e-05
-5.28738e-05
4.07689e-05
3.45794e-05
-8.48469e-05
-3.9898e-05
-8.03484e-05
-4.53137e-05
-2.88422e-05
-8.0857e-05
7.98022e-07
-1.45935e-05
-4.09543e-05
2.82133e-05
4.9652e-05
0.000136702
0.000122878
1.59003e-05
-8.18542e-05
3.21142e-05
0.00011788
-0.000106442
-5.06718e-05
-5.63922e-05
-2.71674e-05
-2.82709e-05
1.23554e-05
-3.83548e-05
-9.75891e-05
-5.06838e-05
-1.42145e-05
7.93964e-05
0.000159523
8.41341e-05
3.58804e-05
0.000117686
5.75058e-05
5.63146e-05
-1.71242e-05
2.60485e-06
3.69197e-05
3.2467e-06
-3.02014e-05
-5.92071e-05
-5.96542e-06
-7.80743e-05
-4.46814e-05
-0.000126954
4.20138e-05
9.50385e-05
2.18309e-05
0.000113036
7.98977e-05
4.8112e-05
0.000196383
0.000285964
0.000489561
0.000689059
0.00099521
0.00162242
0.00264192
0.00444894
0.007176
0.0116621
0.0187996
0.0300773
0.0481659
0.0767657
0.1223
0.194202
0.308238
0.487995
0.771456
1.21629
1.915
3.008
4.71902
7.38608
11.5481
18.0152
28.0775
43.6671
67.8587
105.241
163.111
252.327
390.148
602.197
929.173
1431.4
2204.66
3390.71
5214.73
8009.31
12304.4
18877.7
28986.3
44423.4
68274.8
104392
161381
244371
387473
560558
2.52717e-05
-5.25335e-07
-5.08803e-05
3.37461e-05
4.82793e-05
1.9702e-05
-3.0532e-05
-3.62284e-05
-4.76524e-05
7.18502e-06
5.38076e-05
-7.64321e-05
-2.78431e-05
2.89585e-05
-3.36882e-05
4.33827e-05
0.000160846
0.000107586
3.44e-06
-7.41121e-05
-2.09799e-05
6.86843e-06
-7.16679e-05
-7.5495e-05
-5.3996e-05
-1.25444e-05
-4.61113e-06
6.7113e-05
0.000171531
3.63575e-05
4.70542e-05
-2.96851e-05
-5.40681e-05
5.29193e-06
1.92644e-05
-9.63047e-05
-9.27196e-05
-2.37322e-05
4.67708e-05
-2.16163e-05
2.48085e-05
1.26332e-05
-6.8719e-05
-9.51765e-06
-3.09963e-05
-1.22495e-05
-4.11469e-05
-3.06258e-05
-5.17781e-05
-9.82586e-05
5.29423e-05
0.000120953
6.17592e-05
6.54644e-05
5.53783e-05
1.32116e-05
4.77216e-06
-5.09955e-06
2.73202e-05
3.37e-05
4.05868e-05
1.41679e-05
4.68068e-05
2.48017e-05
-7.4996e-05
-4.63852e-05
-5.11581e-05
-3.26469e-05
3.11002e-05
-7.26692e-05
-0.000111743
-4.85523e-05
2.38125e-05