/*--------------------------------*- C++ -*----------------------------------*\
| =========                 |                                                 |
| \\      /  F ield         | OpenFOAM: The Open Source CFD Toolbox           |
|  \\    /   O peration     | Version:  2412                                  |
|   \\  /    A nd           | Website:  www.openfoam.com                      |
|    \\/     M anipulation  |                                                 |
\*---------------------------------------------------------------------------*/
FoamFile
{
    version     2.0;
    format      ascii;
    arch        "LSB;label=32;scalar=64";
    class       volVectorField;
    location    "0.001";
    object      U;
}
// * * * * * * * * * * * * * * * * * * * * * * * * * * * * * * * * * * * * * //

dimensions      [0 1 -1 0 0 0 0];

internalField   nonuniform List<vector> 
180000
(
(664 -4.18665e-14 0)
(664 -7.45417e-14 0)
(664 -7.3327e-14 0)
(664 -1.08059e-13 0)
(664 -1.36117e-13 0)
(664 -1.63799e-13 0)
(664 -1.94206e-13 0)
(664 -2.16368e-13 0)
(664 -2.29341e-13 0)
(664 -2.15792e-13 0)
(664 -2.04777e-13 0)
(664 -1.97701e-13 0)
(664 -1.98814e-13 0)
(664 -2.17111e-13 0)
(664 -2.42228e-13 0)
(664 -2.57791e-13 0)
(664 -2.86219e-13 0)
(664 -3.16518e-13 0)
(664 -3.21013e-13 0)
(664 -3.16818e-13 0)
(664 -3.07254e-13 0)
(664 -3.04366e-13 0)
(664 -3.05001e-13 0)
(664 -3.09705e-13 0)
(664 -3.08047e-13 0)
(664 -3.23075e-13 0)
(664 -3.3268e-13 0)
(664 -3.39631e-13 0)
(664 -3.66452e-13 0)
(664 -3.60464e-13 0)
(664 -3.48724e-13 0)
(664 -3.70141e-13 0)
(664 -3.81509e-13 0)
(664 -3.70836e-13 0)
(664 -3.55837e-13 0)
(664 -3.58232e-13 0)
(664 -3.38946e-13 0)
(664 -3.04745e-13 0)
(664 -2.58524e-13 0)
(664 -2.19919e-13 0)
(664 -2.00993e-13 0)
(664 -2.06509e-13 0)
(664 -2.07876e-13 0)
(664 -1.97973e-13 0)
(664 -1.80463e-13 0)
(664 -1.59488e-13 0)
(664 -1.47759e-13 0)
(664 -1.58243e-13 0)
(664 -1.79169e-13 0)
(664 -1.97628e-13 0)
(664 -2.15275e-13 0)
(664 -2.5109e-13 0)
(664 -2.58898e-13 0)
(664 -2.51745e-13 0)
(664 -2.66756e-13 0)
(664 -2.77536e-13 0)
(664 -2.879e-13 0)
(664 -3.01009e-13 0)
(664 -3.33744e-13 0)
(664 -3.81375e-13 0)
(664 -3.86719e-13 0)
(664 -3.71348e-13 0)
(664 -3.50862e-13 0)
(664 -3.3646e-13 0)
(664 -3.52694e-13 0)
(664 -3.57927e-13 0)
(664 -3.37149e-13 0)
(664 -3.42481e-13 0)
(664 -3.84516e-13 0)
(664 -4.07473e-13 0)
(664 -4.1915e-13 0)
(664 -4.35111e-13 0)
(664 -4.58574e-13 0)
(664 -4.79044e-13 0)
(664 -4.9431e-13 0)
(664 -4.77836e-13 0)
(664 -4.49386e-13 0)
(664 -4.34685e-13 0)
(664 -4.11998e-13 0)
(664 -3.98054e-13 0)
(664 -4.09492e-13 0)
(664 -3.88739e-13 0)
(664 -3.92246e-13 0)
(664 -4.05346e-13 0)
(664 -3.99956e-13 0)
(664 -3.99977e-13 0)
(664 -4.12868e-13 0)
(664 -4.34269e-13 0)
(664 -4.23524e-13 0)
(664 -4.1055e-13 0)
(664 -4.07919e-13 0)
(664 -4.15766e-13 0)
(664 -4.3414e-13 0)
(664 -4.65686e-13 0)
(664 -4.89111e-13 0)
(664 -5.02619e-13 0)
(664 -5.2205e-13 0)
(664 -5.42071e-13 0)
(664 -5.73008e-13 0)
(664 -6.1478e-13 0)
(664 -6.32206e-13 0)
(664 -6.47307e-13 0)
(664 -6.70416e-13 0)
(664 -7.03741e-13 0)
(664 -7.42015e-13 0)
(664 -7.62211e-13 0)
(664 -7.69529e-13 0)
(664 -7.69408e-13 0)
(664 -7.59115e-13 0)
(664 -7.78933e-13 0)
(664 -8.0928e-13 0)
(664 -8.01759e-13 0)
(664 -8.02138e-13 0)
(664 -8.13948e-13 0)
(664 -8.17661e-13 0)
(664 -8.32065e-13 0)
(664 -8.62217e-13 0)
(664 -8.53494e-13 0)
(664 -8.31089e-13 0)
(664 -7.99018e-13 0)
(664 -7.46622e-13 0)
(664 -7.0898e-13 0)
(664 -6.84239e-13 0)
(664 -6.5977e-13 0)
(664 -6.45426e-13 0)
(664 -6.32853e-13 0)
(664 -5.98396e-13 0)
(664 -5.69918e-13 0)
(664 -5.22478e-13 0)
(664 -4.70832e-13 0)
(664 -4.15219e-13 0)
(664 -3.69592e-13 0)
(664 -3.59846e-13 0)
(664 -3.67356e-13 0)
(664 -3.85949e-13 0)
(664 -4.3185e-13 0)
(664 -4.72057e-13 0)
(664 -4.84776e-13 0)
(664 -4.90892e-13 0)
(664 -4.94529e-13 0)
(664 -4.92436e-13 0)
(664 -4.6085e-13 0)
(664 -4.25529e-13 0)
(664 -4.10713e-13 0)
(664 -4.01422e-13 0)
(664 -3.72943e-13 0)
(664 -3.46877e-13 0)
(664 -3.25126e-13 0)
(664 -3.0884e-13 0)
(664 -3.05574e-13 0)
(664 -2.81384e-13 0)
(664 -2.69333e-13 0)
(664 -2.88099e-13 0)
(664 -3.09282e-13 0)
(664 -3.18496e-13 0)
(664 -3.25808e-13 0)
(664 -3.25962e-13 0)
(664 -3.22116e-13 0)
(664 -3.27801e-13 0)
(664 -3.50078e-13 0)
(664 -3.81601e-13 0)
(664 -4.15874e-13 0)
(664 -4.72472e-13 0)
(664 -5.38902e-13 0)
(664 -5.9579e-13 0)
(664 -6.47375e-13 0)
(664 -6.65102e-13 0)
(664 -6.66532e-13 0)
(664 -6.54283e-13 0)
(664 -6.42559e-13 0)
(664 -6.45701e-13 0)
(664 -6.32899e-13 0)
(664 -6.03155e-13 0)
(664 -5.75912e-13 0)
(664 -5.78421e-13 0)
(664 -5.88621e-13 0)
(664 -5.90835e-13 0)
(664 -5.84468e-13 0)
(664 -6.00337e-13 0)
(664 -6.28996e-13 0)
(664 -6.35702e-13 0)
(664 -6.41552e-13 0)
(664 -6.50102e-13 0)
(664 -6.67277e-13 0)
(664 -7.0308e-13 0)
(664 -7.69668e-13 0)
(664 -8.49708e-13 0)
(664 -9.11467e-13 0)
(664 -9.61698e-13 0)
(664 -1.00508e-12 0)
(664 -1.02987e-12 0)
(664 -1.02025e-12 0)
(664 -1.01626e-12 0)
(664 -1.02012e-12 0)
(664 -1.01369e-12 0)
(664 -1.00209e-12 0)
(664 -9.72728e-13 0)
(664 -9.42266e-13 0)
(664 -9.00387e-13 0)
(664 -8.59961e-13 0)
(664 -8.19132e-13 0)
(664 -7.50999e-13 0)
(664 -7.08131e-13 0)
(664 -6.95093e-13 0)
(664 -6.5409e-13 0)
(664 -6.25212e-13 0)
(664 -6.28879e-13 0)
(664 -6.23038e-13 0)
(664 -6.11525e-13 0)
(664 -6.05048e-13 0)
(664 -6.00326e-13 0)
(664 -5.89789e-13 0)
(664 -5.76736e-13 0)
(664 -5.67744e-13 0)
(664 -5.80117e-13 0)
(664 -6.00823e-13 0)
(664 -6.22892e-13 0)
(664 -6.39897e-13 0)
(664 -6.29882e-13 0)
(664 -6.02038e-13 0)
(664 -5.96033e-13 0)
(664 -5.65162e-13 0)
(664 -5.07437e-13 0)
(664 -4.48765e-13 0)
(664 -4.06603e-13 0)
(664 -3.72136e-13 0)
(664 -3.45957e-13 0)
(664 -3.6249e-13 0)
(664 -3.91223e-13 0)
(664 -4.16561e-13 0)
(664 -4.37562e-13 0)
(664 -4.73582e-13 0)
(664 -5.13491e-13 0)
(664 -5.51924e-13 0)
(664 -5.82754e-13 0)
(664 -5.96335e-13 0)
(664 -6.24634e-13 0)
(664 -6.335e-13 0)
(664 -6.28634e-13 0)
(664 -6.62626e-13 0)
(664 -6.89498e-13 0)
(664 -6.70842e-13 0)
(664 -5.98109e-13 0)
(664 -5.0944e-13 0)
(664 -3.75313e-13 0)
(664 -1.51133e-13 0)
(664 2.4633e-13 0)
(664 9.74882e-13 0)
(664 2.23038e-12 0)
(664 4.36288e-12 0)
(664 8.04289e-12 0)
(664 1.44006e-11 0)
(664 2.53659e-11 0)
(664 4.42912e-11 0)
(664 7.69791e-11 0)
(664 1.33447e-10 0)
(664 2.31043e-10 0)
(664 3.999e-10 0)
(664 6.92262e-10 0)
(664 1.19871e-09 0)
(664 2.07673e-09 0)
(664 3.60006e-09 0)
(664 6.24532e-09 0)
(664 1.08424e-08 0)
(664 1.88395e-08 0)
(664 3.2763e-08 0)
(664 5.70304e-08 0)
(664 9.93659e-08 0)
(664 1.73306e-07 0)
(664 3.02575e-07 0)
(664 5.28854e-07 0)
(664 9.2538e-07 0)
(664 1.62115e-06 0)
(664 2.84347e-06 0)
(664 4.9938e-06 0)
(664 8.78159e-06 0)
(664 1.54637e-05 0)
(663.999 2.72678e-05 0)
(663.999 4.81532e-05 0)
(663.998 8.51599e-05 0)
(663.997 0.000150841 0)
(663.995 0.000267593 0)
(663.992 0.000475486 0)
(663.986 0.000846264 0)
(663.975 0.00150874 0)
(663.958 0.00269435 0)
(663.928 0.00482009 0)
(663.877 0.00863787 0)
(663.789 0.0155084 0)
(663.639 0.0278926 0)
(663.38 0.0502589 0)
(662.937 0.0906998 0)
(662.173 0.164023 0)
(660.858 0.297146 0)
(658.597 0.539808 0)
(654.713 0.980634 0)
(648.061 1.785 0)
(636.573 3.24547 0)
(617.065 5.94826 0)
(585.724 10.8078 0)
(664 -9.75741e-15 0)
(664 -1.98314e-14 0)
(664 -3.09655e-14 0)
(664 -6.95369e-14 0)
(664 -9.57347e-14 0)
(664 -9.99379e-14 0)
(664 -9.53259e-14 0)
(664 -6.25307e-14 0)
(664 -2.84588e-14 0)
(664 -9.14272e-15 0)
(664 -1.00705e-14 0)
(664 -1.93274e-14 0)
(664 -3.57933e-14 0)
(664 -4.717e-14 0)
(664 -6.67601e-14 0)
(664 -9.39499e-14 0)
(664 -1.12172e-13 0)
(664 -1.06162e-13 0)
(664 -9.82862e-14 0)
(664 -7.27429e-14 0)
(664 -2.92554e-14 0)
(664 6.77822e-15 0)
(664 2.59221e-14 0)
(664 4.03367e-14 0)
(664 6.11193e-14 0)
(664 4.49337e-14 0)
(664 1.76627e-14 0)
(664 -3.21664e-15 0)
(664 -1.79721e-14 0)
(664 -5.41947e-15 0)
(664 7.26809e-15 0)
(664 -8.41443e-15 0)
(664 -5.09951e-14 0)
(664 -9.06043e-14 0)
(664 -9.32612e-14 0)
(664 -9.86875e-14 0)
(664 -1.07332e-13 0)
(664 -1.13233e-13 0)
(664 -9.74016e-14 0)
(664 -6.33527e-14 0)
(664 -4.20105e-14 0)
(664 -3.83485e-14 0)
(664 -2.63278e-14 0)
(664 -1.16282e-14 0)
(664 1.43965e-14 0)
(664 3.42183e-14 0)
(664 2.91829e-14 0)
(664 -1.78046e-15 0)
(664 -3.48007e-14 0)
(664 -7.40594e-14 0)
(664 -1.23497e-13 0)
(664 -1.58745e-13 0)
(664 -1.72789e-13 0)
(664 -2.00369e-13 0)
(664 -2.39772e-13 0)
(664 -2.62683e-13 0)
(664 -2.95212e-13 0)
(664 -3.27196e-13 0)
(664 -3.43893e-13 0)
(664 -3.44596e-13 0)
(664 -3.52819e-13 0)
(664 -3.41486e-13 0)
(664 -3.43266e-13 0)
(664 -3.68737e-13 0)
(664 -4.00447e-13 0)
(664 -4.34748e-13 0)
(664 -4.5006e-13 0)
(664 -4.89177e-13 0)
(664 -5.33589e-13 0)
(664 -5.65343e-13 0)
(664 -5.85099e-13 0)
(664 -6.16472e-13 0)
(664 -6.71555e-13 0)
(664 -7.25068e-13 0)
(664 -7.6722e-13 0)
(664 -7.92255e-13 0)
(664 -8.02241e-13 0)
(664 -8.08853e-13 0)
(664 -7.80911e-13 0)
(664 -7.52733e-13 0)
(664 -7.29958e-13 0)
(664 -6.97068e-13 0)
(664 -6.65817e-13 0)
(664 -6.28461e-13 0)
(664 -6.08389e-13 0)
(664 -5.91774e-13 0)
(664 -6.00261e-13 0)
(664 -6.20086e-13 0)
(664 -6.2588e-13 0)
(664 -6.40108e-13 0)
(664 -6.39854e-13 0)
(664 -6.45823e-13 0)
(664 -6.70828e-13 0)
(664 -6.83938e-13 0)
(664 -6.90479e-13 0)
(664 -7.06452e-13 0)
(664 -6.98883e-13 0)
(664 -6.69784e-13 0)
(664 -6.82771e-13 0)
(664 -7.17592e-13 0)
(664 -7.55629e-13 0)
(664 -8.14319e-13 0)
(664 -8.85277e-13 0)
(664 -9.44701e-13 0)
(664 -1.01399e-12 0)
(664 -1.08397e-12 0)
(664 -1.13752e-12 0)
(664 -1.16846e-12 0)
(664 -1.1797e-12 0)
(664 -1.16648e-12 0)
(664 -1.15317e-12 0)
(664 -1.16803e-12 0)
(664 -1.17113e-12 0)
(664 -1.14945e-12 0)
(664 -1.12814e-12 0)
(664 -1.14159e-12 0)
(664 -1.16843e-12 0)
(664 -1.1649e-12 0)
(664 -1.13467e-12 0)
(664 -1.10175e-12 0)
(664 -1.07479e-12 0)
(664 -1.03607e-12 0)
(664 -9.97282e-13 0)
(664 -9.41322e-13 0)
(664 -8.91736e-13 0)
(664 -8.60837e-13 0)
(664 -8.49429e-13 0)
(664 -8.33221e-13 0)
(664 -8.19014e-13 0)
(664 -7.98054e-13 0)
(664 -7.71892e-13 0)
(664 -7.559e-13 0)
(664 -7.46921e-13 0)
(664 -7.34314e-13 0)
(664 -7.4447e-13 0)
(664 -7.67171e-13 0)
(664 -7.74672e-13 0)
(664 -7.56865e-13 0)
(664 -7.0182e-13 0)
(664 -6.76707e-13 0)
(664 -6.70096e-13 0)
(664 -6.47929e-13 0)
(664 -6.18004e-13 0)
(664 -5.97521e-13 0)
(664 -5.68392e-13 0)
(664 -5.42311e-13 0)
(664 -5.26026e-13 0)
(664 -5.34931e-13 0)
(664 -5.52749e-13 0)
(664 -5.51043e-13 0)
(664 -5.47373e-13 0)
(664 -5.13116e-13 0)
(664 -5.17115e-13 0)
(664 -5.39734e-13 0)
(664 -5.3338e-13 0)
(664 -5.15676e-13 0)
(664 -5.01524e-13 0)
(664 -5.0222e-13 0)
(664 -5.05234e-13 0)
(664 -5.07558e-13 0)
(664 -5.20617e-13 0)
(664 -5.37587e-13 0)
(664 -5.36592e-13 0)
(664 -5.29237e-13 0)
(664 -5.14904e-13 0)
(664 -5.3106e-13 0)
(664 -5.3968e-13 0)
(664 -5.13841e-13 0)
(664 -4.76075e-13 0)
(664 -4.78821e-13 0)
(664 -5.09228e-13 0)
(664 -5.25812e-13 0)
(664 -5.38609e-13 0)
(664 -5.74421e-13 0)
(664 -6.1975e-13 0)
(664 -6.58046e-13 0)
(664 -7.04825e-13 0)
(664 -7.33996e-13 0)
(664 -7.35868e-13 0)
(664 -7.30421e-13 0)
(664 -7.28797e-13 0)
(664 -7.35317e-13 0)
(664 -7.62685e-13 0)
(664 -7.84243e-13 0)
(664 -7.95835e-13 0)
(664 -8.03074e-13 0)
(664 -8.11689e-13 0)
(664 -8.14494e-13 0)
(664 -8.11503e-13 0)
(664 -8.09603e-13 0)
(664 -8.177e-13 0)
(664 -8.35843e-13 0)
(664 -8.49404e-13 0)
(664 -8.78193e-13 0)
(664 -9.12642e-13 0)
(664 -9.28757e-13 0)
(664 -9.40884e-13 0)
(664 -9.47866e-13 0)
(664 -9.2169e-13 0)
(664 -8.95055e-13 0)
(664 -8.58306e-13 0)
(664 -7.93798e-13 0)
(664 -7.5663e-13 0)
(664 -7.17233e-13 0)
(664 -6.62532e-13 0)
(664 -6.36783e-13 0)
(664 -6.44372e-13 0)
(664 -6.44534e-13 0)
(664 -6.23734e-13 0)
(664 -6.18586e-13 0)
(664 -6.14933e-13 0)
(664 -6.02636e-13 0)
(664 -5.97793e-13 0)
(664 -5.91591e-13 0)
(664 -5.86605e-13 0)
(664 -6.1102e-13 0)
(664 -6.47329e-13 0)
(664 -6.87561e-13 0)
(664 -7.02067e-13 0)
(664 -6.91156e-13 0)
(664 -6.8509e-13 0)
(664 -6.9025e-13 0)
(664 -6.86847e-13 0)
(664 -6.64455e-13 0)
(664 -6.58602e-13 0)
(664 -6.65368e-13 0)
(664 -6.74883e-13 0)
(664 -6.8404e-13 0)
(664 -7.08435e-13 0)
(664 -7.21371e-13 0)
(664 -7.35297e-13 0)
(664 -7.53958e-13 0)
(664 -7.66391e-13 0)
(664 -7.49784e-13 0)
(664 -7.13827e-13 0)
(664 -6.80307e-13 0)
(664 -6.59972e-13 0)
(664 -6.45061e-13 0)
(664 -6.0198e-13 0)
(664 -5.48786e-13 0)
(664 -4.7171e-13 0)
(664 -3.5634e-13 0)
(664 -1.73182e-13 0)
(664 9.59501e-14 0)
(664 5.28724e-13 0)
(664 1.22703e-12 0)
(664 2.39525e-12 0)
(664 4.40068e-12 0)
(664 7.85118e-12 0)
(664 1.37572e-11 0)
(664 2.38467e-11 0)
(664 4.12067e-11 0)
(664 7.11085e-11 0)
(664 1.22548e-10 0)
(664 2.11093e-10 0)
(664 3.63586e-10 0)
(664 6.26337e-10 0)
(664 1.07925e-09 0)
(664 1.86042e-09 0)
(664 3.20824e-09 0)
(664 5.53513e-09 0)
(664 9.55411e-09 0)
(664 1.65002e-08 0)
(664 2.85109e-08 0)
(664 4.92934e-08 0)
(664 8.52727e-08 0)
(664 1.47607e-07 0)
(664 2.5566e-07 0)
(664 4.43113e-07 0)
(664 7.685e-07 0)
(664 1.33379e-06 0)
(664 2.31646e-06 0)
(664 4.02621e-06 0)
(664 7.003e-06 0)
(664 1.21905e-05 0)
(664 2.12373e-05 0)
(664 3.70293e-05 0)
(663.999 6.46172e-05 0)
(663.999 0.000112861 0)
(663.999 0.000197295 0)
(663.998 0.000345223 0)
(663.996 0.000604618 0)
(663.993 0.00105997 0)
(663.988 0.00186005 0)
(663.98 0.00326746 0)
(663.966 0.00574549 0)
(663.943 0.0101138 0)
(663.904 0.0178216 0)
(663.838 0.0314397 0)
(663.726 0.0555229 0)
(663.539 0.0981668 0)
(663.223 0.173721 0)
(662.694 0.307795 0)
(661.805 0.545899 0)
(660.319 0.969736 0)
(657.848 1.72201 0)
(653.757 3.0582 0)
(647.024 5.4179 0)
(635.977 9.62089 0)
(619.253 16.917 0)
(664 1.4373e-15 0)
(664 9.51068e-15 0)
(664 1.57532e-15 0)
(664 -1.59369e-14 0)
(664 -2.82465e-14 0)
(664 -4.01238e-14 0)
(664 -3.98867e-14 0)
(664 -2.84912e-14 0)
(664 -1.61536e-14 0)
(664 -3.01859e-14 0)
(664 -9.08675e-14 0)
(664 -1.80094e-13 0)
(664 -2.35925e-13 0)
(664 -2.70059e-13 0)
(664 -3.17096e-13 0)
(664 -3.42086e-13 0)
(664 -3.54644e-13 0)
(664 -3.3671e-13 0)
(664 -2.94526e-13 0)
(664 -2.77192e-13 0)
(664 -2.92803e-13 0)
(664 -3.1282e-13 0)
(664 -3.18141e-13 0)
(664 -3.29022e-13 0)
(664 -3.18671e-13 0)
(664 -3.05126e-13 0)
(664 -3.15769e-13 0)
(664 -3.16648e-13 0)
(664 -3.19496e-13 0)
(664 -3.24697e-13 0)
(664 -3.33135e-13 0)
(664 -3.29662e-13 0)
(664 -3.23212e-13 0)
(664 -3.17934e-13 0)
(664 -3.30857e-13 0)
(664 -3.28994e-13 0)
(664 -3.44501e-13 0)
(664 -3.71632e-13 0)
(664 -4.10281e-13 0)
(664 -4.41373e-13 0)
(664 -4.51404e-13 0)
(664 -4.3886e-13 0)
(664 -4.32854e-13 0)
(664 -4.3977e-13 0)
(664 -4.40376e-13 0)
(664 -4.5312e-13 0)
(664 -4.75522e-13 0)
(664 -4.69107e-13 0)
(664 -4.58336e-13 0)
(664 -4.6301e-13 0)
(664 -4.79549e-13 0)
(664 -4.86469e-13 0)
(664 -4.88388e-13 0)
(664 -4.91102e-13 0)
(664 -5.02389e-13 0)
(664 -5.2495e-13 0)
(664 -5.28345e-13 0)
(664 -5.2026e-13 0)
(664 -5.04579e-13 0)
(664 -4.76437e-13 0)
(664 -4.48346e-13 0)
(664 -4.39015e-13 0)
(664 -4.48933e-13 0)
(664 -4.71466e-13 0)
(664 -4.9535e-13 0)
(664 -5.03671e-13 0)
(664 -5.23938e-13 0)
(664 -5.31228e-13 0)
(664 -5.2466e-13 0)
(664 -5.0617e-13 0)
(664 -4.81826e-13 0)
(664 -4.6158e-13 0)
(664 -4.35322e-13 0)
(664 -4.24937e-13 0)
(664 -4.21035e-13 0)
(664 -4.28333e-13 0)
(664 -4.50349e-13 0)
(664 -4.62555e-13 0)
(664 -4.6073e-13 0)
(664 -4.54755e-13 0)
(664 -4.66806e-13 0)
(664 -5.06307e-13 0)
(664 -5.21373e-13 0)
(664 -5.14385e-13 0)
(664 -5.20611e-13 0)
(664 -5.4664e-13 0)
(664 -5.52874e-13 0)
(664 -5.76379e-13 0)
(664 -6.37933e-13 0)
(664 -6.80175e-13 0)
(664 -7.08918e-13 0)
(664 -7.47257e-13 0)
(664 -7.58976e-13 0)
(664 -7.4522e-13 0)
(664 -7.35047e-13 0)
(664 -7.45781e-13 0)
(664 -7.55298e-13 0)
(664 -7.66889e-13 0)
(664 -7.92952e-13 0)
(664 -8.07605e-13 0)
(664 -8.50029e-13 0)
(664 -8.72519e-13 0)
(664 -8.85721e-13 0)
(664 -9.10029e-13 0)
(664 -9.31855e-13 0)
(664 -9.47368e-13 0)
(664 -9.64759e-13 0)
(664 -9.77077e-13 0)
(664 -9.81339e-13 0)
(664 -9.80221e-13 0)
(664 -9.55966e-13 0)
(664 -9.2018e-13 0)
(664 -8.83956e-13 0)
(664 -8.52853e-13 0)
(664 -8.52155e-13 0)
(664 -8.66605e-13 0)
(664 -8.33572e-13 0)
(664 -8.0484e-13 0)
(664 -8.0463e-13 0)
(664 -8.20623e-13 0)
(664 -8.47581e-13 0)
(664 -8.64099e-13 0)
(664 -8.54463e-13 0)
(664 -8.22989e-13 0)
(664 -7.63751e-13 0)
(664 -7.09527e-13 0)
(664 -6.97639e-13 0)
(664 -7.24721e-13 0)
(664 -7.84945e-13 0)
(664 -8.43737e-13 0)
(664 -8.89602e-13 0)
(664 -9.31184e-13 0)
(664 -9.40811e-13 0)
(664 -9.15275e-13 0)
(664 -8.60475e-13 0)
(664 -8.12686e-13 0)
(664 -7.69427e-13 0)
(664 -7.21812e-13 0)
(664 -6.69355e-13 0)
(664 -6.06401e-13 0)
(664 -5.65164e-13 0)
(664 -5.19321e-13 0)
(664 -4.79116e-13 0)
(664 -4.72338e-13 0)
(664 -4.53448e-13 0)
(664 -4.18786e-13 0)
(664 -3.86273e-13 0)
(664 -3.6735e-13 0)
(664 -3.85035e-13 0)
(664 -4.24798e-13 0)
(664 -4.61119e-13 0)
(664 -5.00891e-13 0)
(664 -5.25286e-13 0)
(664 -5.45986e-13 0)
(664 -5.64516e-13 0)
(664 -5.86566e-13 0)
(664 -5.86552e-13 0)
(664 -5.85464e-13 0)
(664 -6.09105e-13 0)
(664 -6.12227e-13 0)
(664 -6.00865e-13 0)
(664 -6.03372e-13 0)
(664 -5.91447e-13 0)
(664 -5.57799e-13 0)
(664 -5.19809e-13 0)
(664 -4.98318e-13 0)
(664 -5.04231e-13 0)
(664 -5.13574e-13 0)
(664 -5.34861e-13 0)
(664 -5.71417e-13 0)
(664 -6.16386e-13 0)
(664 -6.65653e-13 0)
(664 -7.12157e-13 0)
(664 -7.50186e-13 0)
(664 -7.79864e-13 0)
(664 -8.0152e-13 0)
(664 -8.18175e-13 0)
(664 -8.19914e-13 0)
(664 -8.17227e-13 0)
(664 -8.12899e-13 0)
(664 -8.02844e-13 0)
(664 -7.8969e-13 0)
(664 -7.91565e-13 0)
(664 -8.0045e-13 0)
(664 -8.21234e-13 0)
(664 -8.22445e-13 0)
(664 -8.10252e-13 0)
(664 -7.92587e-13 0)
(664 -7.60357e-13 0)
(664 -7.29771e-13 0)
(664 -6.99645e-13 0)
(664 -6.95717e-13 0)
(664 -7.27398e-13 0)
(664 -7.55746e-13 0)
(664 -7.58837e-13 0)
(664 -7.74351e-13 0)
(664 -8.03333e-13 0)
(664 -8.28544e-13 0)
(664 -8.51513e-13 0)
(664 -8.73261e-13 0)
(664 -8.87994e-13 0)
(664 -8.99945e-13 0)
(664 -8.96408e-13 0)
(664 -9.02953e-13 0)
(664 -9.18955e-13 0)
(664 -8.93643e-13 0)
(664 -8.60106e-13 0)
(664 -8.34584e-13 0)
(664 -8.01502e-13 0)
(664 -7.59904e-13 0)
(664 -7.29556e-13 0)
(664 -7.1656e-13 0)
(664 -6.95994e-13 0)
(664 -6.44784e-13 0)
(664 -5.90144e-13 0)
(664 -5.54403e-13 0)
(664 -5.34694e-13 0)
(664 -5.34976e-13 0)
(664 -5.48134e-13 0)
(664 -5.63923e-13 0)
(664 -5.85799e-13 0)
(664 -6.25111e-13 0)
(664 -6.88784e-13 0)
(664 -7.30253e-13 0)
(664 -7.45272e-13 0)
(664 -7.6901e-13 0)
(664 -7.83453e-13 0)
(664 -7.59156e-13 0)
(664 -7.27224e-13 0)
(664 -6.97012e-13 0)
(664 -6.49535e-13 0)
(664 -6.281e-13 0)
(664 -6.31524e-13 0)
(664 -6.25634e-13 0)
(664 -6.20517e-13 0)
(664 -6.10485e-13 0)
(664 -5.87897e-13 0)
(664 -5.46947e-13 0)
(664 -4.92139e-13 0)
(664 -3.93088e-13 0)
(664 -2.94255e-13 0)
(664 -1.66815e-13 0)
(664 4.09527e-14 0)
(664 4.05277e-13 0)
(664 1.00914e-12 0)
(664 2.00641e-12 0)
(664 3.70861e-12 0)
(664 6.57986e-12 0)
(664 1.14323e-11 0)
(664 1.97608e-11 0)
(664 3.40345e-11 0)
(664 5.84373e-11 0)
(664 1.00234e-10 0)
(664 1.71836e-10 0)
(664 2.94553e-10 0)
(664 5.04927e-10 0)
(664 8.65657e-10 0)
(664 1.48418e-09 0)
(664 2.54511e-09 0)
(664 4.36526e-09 0)
(664 7.48899e-09 0)
(664 1.28506e-08 0)
(664 2.20567e-08 0)
(664 3.7866e-08 0)
(664 6.50242e-08 0)
(664 1.11685e-07 0)
(664 1.91879e-07 0)
(664 3.29727e-07 0)
(664 5.66756e-07 0)
(664 9.74373e-07 0)
(664 1.67558e-06 0)
(664 2.88195e-06 0)
(664 4.95805e-06 0)
(664 8.53119e-06 0)
(664 1.46826e-05 0)
(664 2.5273e-05 0)
(664 4.35104e-05 0)
(664 7.49161e-05 0)
(663.999 0.000129009 0)
(663.999 0.000222174 0)
(663.998 0.000382653 0)
(663.997 0.000659048 0)
(663.995 0.00113512 0)
(663.991 0.00195492 0)
(663.985 0.0033666 0)
(663.975 0.00579663 0)
(663.958 0.00997889 0)
(663.93 0.0171732 0)
(663.884 0.0295446 0)
(663.807 0.050804 0)
(663.678 0.0873148 0)
(663.465 0.149948 0)
(663.112 0.257277 0)
(662.528 0.440961 0)
(661.565 0.754878 0)
(659.988 1.28979 0)
(657.413 2.19672 0)
(653.241 3.7262 0)
(646.48 6.29048 0)
(636.278 10.5572 0)
(664 6.78485e-15 0)
(664 -2.01705e-15 0)
(664 -2.7695e-14 0)
(664 -2.91628e-14 0)
(664 -2.79012e-14 0)
(664 -3.51673e-14 0)
(664 -6.30775e-14 0)
(664 -7.47974e-14 0)
(664 -7.02664e-14 0)
(664 -8.01504e-14 0)
(664 -6.97086e-14 0)
(664 -4.66595e-14 0)
(664 -1.39284e-14 0)
(664 -8.60698e-15 0)
(664 4.55283e-16 0)
(664 7.39283e-15 0)
(664 3.31254e-15 0)
(664 -5.28371e-14 0)
(664 -1.22409e-13 0)
(664 -2.07337e-13 0)
(664 -3.06333e-13 0)
(664 -3.89899e-13 0)
(664 -4.71239e-13 0)
(664 -5.28012e-13 0)
(664 -5.93811e-13 0)
(664 -6.32624e-13 0)
(664 -6.47456e-13 0)
(664 -6.42447e-13 0)
(664 -6.19441e-13 0)
(664 -6.03962e-13 0)
(664 -5.94241e-13 0)
(664 -5.91015e-13 0)
(664 -5.4155e-13 0)
(664 -4.88601e-13 0)
(664 -4.60463e-13 0)
(664 -4.49469e-13 0)
(664 -4.28595e-13 0)
(664 -4.12765e-13 0)
(664 -4.10829e-13 0)
(664 -4.27774e-13 0)
(664 -4.48352e-13 0)
(664 -4.65236e-13 0)
(664 -4.76436e-13 0)
(664 -4.94054e-13 0)
(664 -5.38857e-13 0)
(664 -5.84602e-13 0)
(664 -5.85607e-13 0)
(664 -5.68173e-13 0)
(664 -5.46258e-13 0)
(664 -5.08026e-13 0)
(664 -4.79701e-13 0)
(664 -4.83557e-13 0)
(664 -4.95795e-13 0)
(664 -5.03529e-13 0)
(664 -5.01725e-13 0)
(664 -4.87294e-13 0)
(664 -4.74271e-13 0)
(664 -4.73878e-13 0)
(664 -4.64733e-13 0)
(664 -4.46959e-13 0)
(664 -4.15709e-13 0)
(664 -3.97637e-13 0)
(664 -3.74957e-13 0)
(664 -3.41653e-13 0)
(664 -2.9069e-13 0)
(664 -2.59306e-13 0)
(664 -2.44946e-13 0)
(664 -2.47076e-13 0)
(664 -2.74905e-13 0)
(664 -3.12606e-13 0)
(664 -3.17219e-13 0)
(664 -3.19398e-13 0)
(664 -3.45731e-13 0)
(664 -3.66648e-13 0)
(664 -3.82307e-13 0)
(664 -3.98567e-13 0)
(664 -4.21207e-13 0)
(664 -4.46381e-13 0)
(664 -5.02235e-13 0)
(664 -5.64888e-13 0)
(664 -6.18741e-13 0)
(664 -6.85905e-13 0)
(664 -7.6924e-13 0)
(664 -8.60778e-13 0)
(664 -9.33753e-13 0)
(664 -1.00758e-12 0)
(664 -1.08288e-12 0)
(664 -1.10456e-12 0)
(664 -1.11783e-12 0)
(664 -1.12311e-12 0)
(664 -1.10789e-12 0)
(664 -1.07864e-12 0)
(664 -1.07215e-12 0)
(664 -1.07168e-12 0)
(664 -1.07137e-12 0)
(664 -1.07555e-12 0)
(664 -1.1109e-12 0)
(664 -1.15661e-12 0)
(664 -1.16804e-12 0)
(664 -1.16694e-12 0)
(664 -1.13826e-12 0)
(664 -1.10707e-12 0)
(664 -1.07824e-12 0)
(664 -1.05551e-12 0)
(664 -1.0382e-12 0)
(664 -1.00339e-12 0)
(664 -9.6716e-13 0)
(664 -9.60469e-13 0)
(664 -9.58287e-13 0)
(664 -9.46882e-13 0)
(664 -9.46261e-13 0)
(664 -9.37456e-13 0)
(664 -9.24419e-13 0)
(664 -9.51485e-13 0)
(664 -9.6949e-13 0)
(664 -9.74687e-13 0)
(664 -9.90974e-13 0)
(664 -1.00918e-12 0)
(664 -1.00876e-12 0)
(664 -1.02421e-12 0)
(664 -1.03545e-12 0)
(664 -1.03309e-12 0)
(664 -1.01024e-12 0)
(664 -1.02171e-12 0)
(664 -1.03844e-12 0)
(664 -1.01477e-12 0)
(664 -9.65591e-13 0)
(664 -9.41088e-13 0)
(664 -9.24379e-13 0)
(664 -8.95206e-13 0)
(664 -8.5753e-13 0)
(664 -7.91224e-13 0)
(664 -7.20071e-13 0)
(664 -6.67556e-13 0)
(664 -6.03851e-13 0)
(664 -5.37407e-13 0)
(664 -4.84158e-13 0)
(664 -4.36555e-13 0)
(664 -4.27928e-13 0)
(664 -4.03607e-13 0)
(664 -3.26482e-13 0)
(664 -2.77992e-13 0)
(664 -2.67013e-13 0)
(664 -2.41519e-13 0)
(664 -2.19174e-13 0)
(664 -2.19839e-13 0)
(664 -2.33514e-13 0)
(664 -2.52844e-13 0)
(664 -2.51502e-13 0)
(664 -2.50745e-13 0)
(664 -2.67877e-13 0)
(664 -3.05205e-13 0)
(664 -3.46853e-13 0)
(664 -3.85968e-13 0)
(664 -4.20648e-13 0)
(664 -4.80543e-13 0)
(664 -5.46213e-13 0)
(664 -5.8418e-13 0)
(664 -6.03863e-13 0)
(664 -6.33048e-13 0)
(664 -6.78219e-13 0)
(664 -7.28826e-13 0)
(664 -7.80777e-13 0)
(664 -8.2785e-13 0)
(664 -8.49129e-13 0)
(664 -8.52414e-13 0)
(664 -8.61658e-13 0)
(664 -8.73052e-13 0)
(664 -8.67668e-13 0)
(664 -8.64268e-13 0)
(664 -8.23711e-13 0)
(664 -7.74889e-13 0)
(664 -7.44635e-13 0)
(664 -7.28001e-13 0)
(664 -7.01657e-13 0)
(664 -6.55688e-13 0)
(664 -6.46614e-13 0)
(664 -6.71778e-13 0)
(664 -6.9766e-13 0)
(664 -7.1384e-13 0)
(664 -7.35704e-13 0)
(664 -7.48935e-13 0)
(664 -7.65317e-13 0)
(664 -7.69525e-13 0)
(664 -7.82371e-13 0)
(664 -8.22325e-13 0)
(664 -8.69156e-13 0)
(664 -9.23256e-13 0)
(664 -9.58867e-13 0)
(664 -9.87974e-13 0)
(664 -1.03056e-12 0)
(664 -1.06876e-12 0)
(664 -1.08966e-12 0)
(664 -1.0981e-12 0)
(664 -1.10677e-12 0)
(664 -1.09812e-12 0)
(664 -1.08063e-12 0)
(664 -1.07525e-12 0)
(664 -1.08171e-12 0)
(664 -1.07882e-12 0)
(664 -1.0731e-12 0)
(664 -1.09567e-12 0)
(664 -1.12191e-12 0)
(664 -1.12135e-12 0)
(664 -1.12435e-12 0)
(664 -1.12764e-12 0)
(664 -1.11646e-12 0)
(664 -1.09683e-12 0)
(664 -1.07529e-12 0)
(664 -1.03441e-12 0)
(664 -1.00224e-12 0)
(664 -9.84288e-13 0)
(664 -9.54878e-13 0)
(664 -9.09253e-13 0)
(664 -8.37615e-13 0)
(664 -7.72467e-13 0)
(664 -7.21276e-13 0)
(664 -6.76864e-13 0)
(664 -6.31749e-13 0)
(664 -6.25159e-13 0)
(664 -6.24628e-13 0)
(664 -6.20493e-13 0)
(664 -6.28722e-13 0)
(664 -6.34451e-13 0)
(664 -6.4085e-13 0)
(664 -6.53243e-13 0)
(664 -6.7017e-13 0)
(664 -7.18553e-13 0)
(664 -7.49074e-13 0)
(664 -7.71634e-13 0)
(664 -7.86287e-13 0)
(664 -7.67281e-13 0)
(664 -7.57143e-13 0)
(664 -7.63161e-13 0)
(664 -7.79105e-13 0)
(664 -7.8245e-13 0)
(664 -7.51413e-13 0)
(664 -7.09441e-13 0)
(664 -6.81783e-13 0)
(664 -6.2608e-13 0)
(664 -5.34762e-13 0)
(664 -4.04559e-13 0)
(664 -1.78603e-13 0)
(664 2.26749e-13 0)
(664 9.10866e-13 0)
(664 2.03729e-12 0)
(664 3.94415e-12 0)
(664 7.16376e-12 0)
(664 1.26453e-11 0)
(664 2.19769e-11 0)
(664 3.78665e-11 0)
(664 6.49136e-11 0)
(664 1.10986e-10 0)
(664 1.89511e-10 0)
(664 3.23392e-10 0)
(664 5.51679e-10 0)
(664 9.41002e-10 0)
(664 1.60493e-09 0)
(664 2.73726e-09 0)
(664 4.66835e-09 0)
(664 7.96208e-09 0)
(664 1.35795e-08 0)
(664 2.31611e-08 0)
(664 3.95029e-08 0)
(664 6.73771e-08 0)
(664 1.14916e-07 0)
(664 1.96e-07 0)
(664 3.34279e-07 0)
(664 5.70106e-07 0)
(664 9.72225e-07 0)
(664 1.6579e-06 0)
(664 2.82684e-06 0)
(664 4.81955e-06 0)
(664 8.21569e-06 0)
(664 1.40031e-05 0)
(664 2.38625e-05 0)
(664 4.06561e-05 0)
(664 6.92498e-05 0)
(664 0.000117924 0)
(663.999 0.000200741 0)
(663.999 0.000341606 0)
(663.998 0.000581067 0)
(663.996 0.000987959 0)
(663.994 0.00167887 0)
(663.99 0.00285137 0)
(663.983 0.00483947 0)
(663.972 0.00820798 0)
(663.953 0.0139094 0)
(663.922 0.0235501 0)
(663.872 0.0398313 0)
(663.788 0.0672912 0)
(663.652 0.113528 0)
(663.427 0.191241 0)
(663.059 0.321601 0)
(662.458 0.539739 0)
(661.481 0.903612 0)
(659.897 1.50722 0)
(657.34 2.50375 0)
(653.188 4.13573 0)
(646.863 6.79418 0)
(664 -5.88488e-15 0)
(664 -8.88251e-15 0)
(664 -5.99635e-15 0)
(664 2.16909e-14 0)
(664 2.56931e-14 0)
(664 3.52417e-14 0)
(664 5.84164e-14 0)
(664 5.46191e-14 0)
(664 6.2542e-14 0)
(664 9.4979e-14 0)
(664 1.38874e-13 0)
(664 1.86892e-13 0)
(664 2.05537e-13 0)
(664 2.11708e-13 0)
(664 2.07021e-13 0)
(664 2.02683e-13 0)
(664 1.86769e-13 0)
(664 1.27784e-13 0)
(664 4.18422e-14 0)
(664 -3.32295e-14 0)
(664 -8.7723e-14 0)
(664 -1.36928e-13 0)
(664 -1.79059e-13 0)
(664 -2.27595e-13 0)
(664 -2.82803e-13 0)
(664 -3.36739e-13 0)
(664 -3.78987e-13 0)
(664 -4.24568e-13 0)
(664 -4.52789e-13 0)
(664 -4.83973e-13 0)
(664 -4.96372e-13 0)
(664 -5.06232e-13 0)
(664 -5.35977e-13 0)
(664 -5.74965e-13 0)
(664 -6.27541e-13 0)
(664 -6.64543e-13 0)
(664 -6.51637e-13 0)
(664 -6.13488e-13 0)
(664 -6.08013e-13 0)
(664 -6.08353e-13 0)
(664 -5.89754e-13 0)
(664 -5.83013e-13 0)
(664 -5.95181e-13 0)
(664 -6.06551e-13 0)
(664 -6.03669e-13 0)
(664 -6.12162e-13 0)
(664 -6.35e-13 0)
(664 -6.32749e-13 0)
(664 -6.24275e-13 0)
(664 -6.16035e-13 0)
(664 -5.6844e-13 0)
(664 -5.28419e-13 0)
(664 -5.16817e-13 0)
(664 -5.265e-13 0)
(664 -5.24551e-13 0)
(664 -5.0855e-13 0)
(664 -4.82224e-13 0)
(664 -4.73205e-13 0)
(664 -4.8388e-13 0)
(664 -4.78903e-13 0)
(664 -4.85107e-13 0)
(664 -4.8933e-13 0)
(664 -5.13104e-13 0)
(664 -5.68069e-13 0)
(664 -6.01516e-13 0)
(664 -6.11803e-13 0)
(664 -6.24723e-13 0)
(664 -6.33382e-13 0)
(664 -6.44846e-13 0)
(664 -6.60643e-13 0)
(664 -6.78293e-13 0)
(664 -7.09274e-13 0)
(664 -7.35675e-13 0)
(664 -7.3847e-13 0)
(664 -7.15155e-13 0)
(664 -6.93072e-13 0)
(664 -6.61218e-13 0)
(664 -6.3111e-13 0)
(664 -6.27188e-13 0)
(664 -6.27228e-13 0)
(664 -6.07187e-13 0)
(664 -5.6606e-13 0)
(664 -5.28525e-13 0)
(664 -5.36597e-13 0)
(664 -5.71679e-13 0)
(664 -6.08323e-13 0)
(664 -6.27142e-13 0)
(664 -6.42993e-13 0)
(664 -6.47798e-13 0)
(664 -6.46147e-13 0)
(664 -6.43248e-13 0)
(664 -6.44032e-13 0)
(664 -6.51374e-13 0)
(664 -6.72981e-13 0)
(664 -6.87246e-13 0)
(664 -7.02184e-13 0)
(664 -7.21712e-13 0)
(664 -7.31018e-13 0)
(664 -7.4831e-13 0)
(664 -7.70817e-13 0)
(664 -7.97199e-13 0)
(664 -8.25536e-13 0)
(664 -8.39227e-13 0)
(664 -8.59039e-13 0)
(664 -8.73893e-13 0)
(664 -8.84046e-13 0)
(664 -8.74076e-13 0)
(664 -8.6458e-13 0)
(664 -8.6711e-13 0)
(664 -8.56187e-13 0)
(664 -8.44298e-13 0)
(664 -8.57584e-13 0)
(664 -8.68697e-13 0)
(664 -8.54731e-13 0)
(664 -8.51594e-13 0)
(664 -8.54325e-13 0)
(664 -8.91378e-13 0)
(664 -9.31666e-13 0)
(664 -9.44006e-13 0)
(664 -9.36762e-13 0)
(664 -9.15133e-13 0)
(664 -9.01473e-13 0)
(664 -9.16459e-13 0)
(664 -9.1995e-13 0)
(664 -9.12016e-13 0)
(664 -8.97846e-13 0)
(664 -8.52041e-13 0)
(664 -7.8602e-13 0)
(664 -7.16002e-13 0)
(664 -6.37051e-13 0)
(664 -5.71353e-13 0)
(664 -5.16005e-13 0)
(664 -4.65907e-13 0)
(664 -4.27699e-13 0)
(664 -4.243e-13 0)
(664 -4.30059e-13 0)
(664 -4.24548e-13 0)
(664 -4.3859e-13 0)
(664 -4.39246e-13 0)
(664 -4.43545e-13 0)
(664 -4.63274e-13 0)
(664 -4.84488e-13 0)
(664 -5.04031e-13 0)
(664 -5.24342e-13 0)
(664 -5.2593e-13 0)
(664 -5.28186e-13 0)
(664 -5.64542e-13 0)
(664 -5.92654e-13 0)
(664 -6.01857e-13 0)
(664 -5.90123e-13 0)
(664 -5.6322e-13 0)
(664 -5.36322e-13 0)
(664 -4.94508e-13 0)
(664 -4.49144e-13 0)
(664 -4.44248e-13 0)
(664 -4.52959e-13 0)
(664 -4.78958e-13 0)
(664 -5.1393e-13 0)
(664 -5.37404e-13 0)
(664 -5.71456e-13 0)
(664 -6.01991e-13 0)
(664 -6.24518e-13 0)
(664 -6.43509e-13 0)
(664 -6.69781e-13 0)
(664 -6.82767e-13 0)
(664 -7.10797e-13 0)
(664 -7.3776e-13 0)
(664 -7.52318e-13 0)
(664 -7.76307e-13 0)
(664 -7.64064e-13 0)
(664 -7.56307e-13 0)
(664 -7.32236e-13 0)
(664 -6.87097e-13 0)
(664 -6.47384e-13 0)
(664 -5.99549e-13 0)
(664 -5.68298e-13 0)
(664 -5.42368e-13 0)
(664 -5.19357e-13 0)
(664 -4.82661e-13 0)
(664 -4.43005e-13 0)
(664 -4.12283e-13 0)
(664 -4.02131e-13 0)
(664 -3.5403e-13 0)
(664 -3.14566e-13 0)
(664 -2.98838e-13 0)
(664 -2.92767e-13 0)
(664 -2.98909e-13 0)
(664 -3.26947e-13 0)
(664 -3.7692e-13 0)
(664 -4.47862e-13 0)
(664 -5.14709e-13 0)
(664 -5.85398e-13 0)
(664 -6.37559e-13 0)
(664 -6.78657e-13 0)
(664 -7.13519e-13 0)
(664 -7.22772e-13 0)