/*--------------------------------*- C++ -*----------------------------------*\
| =========                 |                                                 |
| \\      /  F ield         | OpenFOAM: The Open Source CFD Toolbox           |
|  \\    /   O peration     | Version:  2412                                  |
|   \\  /    A nd           | Website:  www.openfoam.com                      |
|    \\/     M anipulation  |                                                 |
\*---------------------------------------------------------------------------*/
FoamFile
{
    version     2.0;
    format      ascii;
    arch        "LSB;label=32;scalar=64";
    class       volVectorField;
    location    "0.001";
    object      U;
}
// * * * * * * * * * * * * * * * * * * * * * * * * * * * * * * * * * * * * * //

dimensions      [0 1 -1 0 0 0 0];

internalField   nonuniform List<vector> 
180000
(
(664 1.10378e-14 0)
(664 2.57875e-14 0)
(664 3.71018e-14 0)
(664 2.85912e-14 0)
(664 -2.42212e-14 0)
(664 -1.05518e-13 0)
(664 -1.9938e-13 0)
(664 -2.29947e-13 0)
(664 -2.18572e-13 0)
(664 -2.38856e-13 0)
(664 -2.4797e-13 0)
(664 -2.49655e-13 0)
(664 -3.06871e-13 0)
(664 -4.44593e-13 0)
(664 -5.59259e-13 0)
(664 -5.76918e-13 0)
(664 -6.44811e-13 0)
(664 -7.94267e-13 0)
(664 -8.28991e-13 0)
(664 -7.26326e-13 0)
(664 -6.21538e-13 0)
(664 -5.80488e-13 0)
(664 -6.15746e-13 0)
(664 -6.83326e-13 0)
(664 -6.89806e-13 0)
(664 -5.70674e-13 0)
(664 -4.44197e-13 0)
(664 -4.03554e-13 0)
(664 -4.33369e-13 0)
(664 -4.95702e-13 0)
(664 -5.34504e-13 0)
(664 -5.53863e-13 0)
(664 -6.40371e-13 0)
(664 -6.6469e-13 0)
(664 -6.52626e-13 0)
(664 -6.17669e-13 0)
(664 -6.41889e-13 0)
(664 -7.23578e-13 0)
(664 -7.85418e-13 0)
(664 -8.3564e-13 0)
(664 -8.41793e-13 0)
(664 -8.22257e-13 0)
(664 -8.01866e-13 0)
(664 -8.22631e-13 0)
(664 -8.68582e-13 0)
(664 -8.76637e-13 0)
(664 -8.64867e-13 0)
(664 -8.86826e-13 0)
(664 -8.39926e-13 0)
(664 -7.13165e-13 0)
(664 -6.22534e-13 0)
(664 -5.53326e-13 0)
(664 -4.25796e-13 0)
(664 -2.6782e-13 0)
(664 -1.91045e-13 0)
(664 -2.50635e-13 0)
(664 -4.52223e-13 0)
(664 -6.22175e-13 0)
(664 -6.79559e-13 0)
(664 -6.66535e-13 0)
(664 -7.2304e-13 0)
(664 -7.43391e-13 0)
(664 -8.07967e-13 0)
(664 -9.36912e-13 0)
(664 -1.05469e-12 0)
(664 -1.04094e-12 0)
(664 -8.48947e-13 0)
(664 -5.33505e-13 0)
(664 -2.36425e-13 0)
(664 -6.68228e-15 0)
(664 8.44668e-14 0)
(664 8.58478e-14 0)
(664 7.0771e-14 0)
(664 -1.75001e-14 0)
(664 -1.08134e-13 0)
(664 -9.66642e-14 0)
(664 -1.34671e-14 0)
(664 7.60417e-14 0)
(664 1.18417e-13 0)
(664 9.74657e-14 0)
(664 1.94966e-14 0)
(664 4.71059e-15 0)
(664 9.2792e-14 0)
(664 2.19384e-13 0)
(664 2.43083e-13 0)
(664 2.21013e-13 0)
(664 1.86851e-13 0)
(664 7.15531e-14 0)
(664 -1.4274e-13 0)
(664 -3.43597e-13 0)
(664 -4.0592e-13 0)
(664 -3.8506e-13 0)
(664 -4.15057e-13 0)
(664 -4.29738e-13 0)
(664 -4.69644e-13 0)
(664 -4.36153e-13 0)
(664 -4.12594e-13 0)
(664 -4.8711e-13 0)
(664 -6.23991e-13 0)
(664 -7.5391e-13 0)
(664 -8.23844e-13 0)
(664 -8.70688e-13 0)
(664 -9.13689e-13 0)
(664 -9.18367e-13 0)
(664 -9.21969e-13 0)
(664 -1.01485e-12 0)
(664 -1.12842e-12 0)
(664 -1.16832e-12 0)
(664 -1.04579e-12 0)
(664 -8.23933e-13 0)
(664 -6.6974e-13 0)
(664 -6.49951e-13 0)
(664 -6.7507e-13 0)
(664 -7.35624e-13 0)
(664 -8.71897e-13 0)
(664 -1.00326e-12 0)
(664 -1.10081e-12 0)
(664 -1.13136e-12 0)
(664 -1.03408e-12 0)
(664 -8.58911e-13 0)
(664 -6.68866e-13 0)
(664 -5.88496e-13 0)
(664 -6.72879e-13 0)
(664 -7.93855e-13 0)
(664 -8.39064e-13 0)
(664 -7.32898e-13 0)
(664 -5.99036e-13 0)
(664 -5.05927e-13 0)
(664 -3.86433e-13 0)
(664 -2.12871e-13 0)
(664 -8.08887e-14 0)
(664 -1.25594e-13 0)
(664 -2.08218e-13 0)
(664 -1.57244e-13 0)
(664 2.20649e-14 0)
(664 1.36287e-13 0)
(664 2.14814e-13 0)
(664 3.19824e-13 0)
(664 5.03664e-13 0)
(664 6.60867e-13 0)
(664 7.54306e-13 0)
(664 7.63509e-13 0)
(664 7.74972e-13 0)
(664 8.16353e-13 0)
(664 8.27779e-13 0)
(664 8.15909e-13 0)
(664 8.01703e-13 0)
(664 7.69638e-13 0)
(664 6.84131e-13 0)
(664 4.23347e-13 0)
(664 8.49139e-14 0)
(664 -2.08393e-13 0)
(664 -3.76184e-13 0)
(664 -4.31477e-13 0)
(664 -5.32203e-13 0)
(664 -6.45617e-13 0)
(664 -6.36691e-13 0)
(664 -4.80407e-13 0)
(664 -2.39798e-13 0)
(664 -2.89233e-14 0)
(664 5.39722e-14 0)
(664 2.67477e-14 0)
(664 4.02982e-14 0)
(664 8.43034e-14 0)
(664 8.8229e-14 0)
(664 4.94162e-14 0)
(664 5.21378e-14 0)
(664 1.71316e-14 0)
(664 -8.45465e-14 0)
(664 -1.73312e-13 0)
(664 -2.19748e-13 0)
(664 -1.78888e-13 0)
(664 -7.03444e-14 0)
(664 -2.10009e-14 0)
(664 2.57554e-14 0)
(664 5.68777e-14 0)
(664 3.34639e-14 0)
(664 7.64775e-15 0)
(664 1.87434e-14 0)
(664 8.58476e-14 0)
(664 1.65186e-13 0)
(664 2.03056e-13 0)
(664 1.93931e-13 0)
(664 2.14374e-13 0)
(664 2.00379e-13 0)
(664 2.08219e-13 0)
(664 1.99934e-13 0)
(664 1.26703e-13 0)
(664 1.83934e-15 0)
(664 -3.01837e-14 0)
(664 -7.74657e-14 0)
(664 -1.61292e-13 0)
(664 -2.34369e-13 0)
(664 -2.65617e-13 0)
(664 -1.66834e-13 0)
(664 -1.62051e-15 0)
(664 1.27698e-13 0)
(664 2.3199e-13 0)
(664 3.99421e-13 0)
(664 5.18322e-13 0)
(664 5.95964e-13 0)
(664 5.76726e-13 0)
(664 4.12323e-13 0)
(664 9.35124e-14 0)
(664 -1.72244e-13 0)
(664 -3.34728e-13 0)
(664 -3.99639e-13 0)
(664 -4.28764e-13 0)
(664 -5.075e-13 0)
(664 -5.99978e-13 0)
(664 -5.60067e-13 0)
(664 -4.21279e-13 0)
(664 -2.47593e-13 0)
(664 -5.65264e-14 0)
(664 7.88088e-14 0)
(664 2.28571e-13 0)
(664 4.27586e-13 0)
(664 5.89192e-13 0)
(664 6.1039e-13 0)
(664 5.73171e-13 0)
(664 4.12741e-13 0)
(664 1.84789e-13 0)
(664 -4.58527e-14 0)
(664 -1.89629e-13 0)
(664 -2.49624e-13 0)
(664 -1.6655e-13 0)
(664 -7.40013e-14 0)
(664 -3.01513e-14 0)
(664 7.15008e-14 0)
(664 1.93881e-13 0)
(664 2.43507e-13 0)
(664 3.27469e-13 0)
(664 4.19398e-13 0)
(664 5.0034e-13 0)
(664 5.24391e-13 0)
(664 4.12678e-13 0)
(664 1.9691e-13 0)
(664 3.81083e-14 0)
(664 -2.86551e-14 0)
(664 -1.02589e-13 0)
(664 -4.24353e-14 0)
(664 8.38517e-14 0)
(664 2.40108e-13 0)
(664 3.98958e-13 0)
(664 6.81556e-13 0)
(664 1.41347e-12 0)
(664 2.85523e-12 0)
(664 5.34453e-12 0)
(664 9.68948e-12 0)
(664 1.71309e-11 0)
(664 2.98532e-11 0)
(664 5.1454e-11 0)
(664 8.83316e-11 0)
(664 1.51415e-10 0)
(664 2.59309e-10 0)
(664 4.44009e-10 0)
(664 7.59933e-10 0)
(664 1.29973e-09 0)
(664 2.22163e-09 0)
(664 3.79529e-09 0)
(664 6.47967e-09 0)
(664 1.10567e-08 0)
(664 1.88592e-08 0)
(664 3.21553e-08 0)
(664 5.48072e-08 0)
(664 9.33963e-08 0)
(664 1.5914e-07 0)
(664 2.71142e-07 0)
(664 4.61978e-07 0)
(664 7.87239e-07 0)
(664 1.34182e-06 0)
(664 2.28771e-06 0)
(664 3.90193e-06 0)
(664 6.65849e-06 0)
(664 1.13691e-05 0)
(664 1.94252e-05 0)
(663.999 3.32153e-05 0)
(663.999 5.68441e-05 0)
(663.998 9.73748e-05 0)
(663.997 0.000166977 0)
(663.995 0.000286653 0)
(663.991 0.000492703 0)
(663.985 0.000847965 0)
(663.976 0.00146139 0)
(663.96 0.00252226 0)
(663.934 0.00435989 0)
(663.89 0.00754844 0)
(663.817 0.0130906 0)
(663.697 0.0227412 0)
(663.497 0.0395764 0)
(663.164 0.0690029 0)
(662.61 0.120533 0)
(661.688 0.210973 0)
(660.152 0.36998 0)
(657.591 0.650356 0)
(653.319 1.14529 0)
(646.211 2.02323 0)
(634.392 3.57697 0)
(615.041 6.35405 0)
(584.36 11.2219 0)
(664 6.53977e-15 0)
(664 -3.4514e-15 0)
(664 -1.22341e-14 0)
(664 -4.19008e-14 0)
(664 -2.83045e-14 0)
(664 -7.4792e-14 0)
(664 -1.58404e-13 0)
(664 -2.1106e-13 0)
(664 -2.23127e-13 0)
(664 -2.69202e-13 0)
(664 -3.14587e-13 0)
(664 -3.90165e-13 0)
(664 -4.62003e-13 0)
(664 -5.15576e-13 0)
(664 -5.54163e-13 0)
(664 -5.21349e-13 0)
(664 -5.51226e-13 0)
(664 -6.66708e-13 0)
(664 -6.64714e-13 0)
(664 -5.28625e-13 0)
(664 -4.65219e-13 0)
(664 -4.98399e-13 0)
(664 -5.47248e-13 0)
(664 -6.20585e-13 0)
(664 -7.34271e-13 0)
(664 -7.77409e-13 0)
(664 -7.33699e-13 0)
(664 -6.71975e-13 0)
(664 -6.5713e-13 0)
(664 -7.0094e-13 0)
(664 -7.44376e-13 0)
(664 -8.31223e-13 0)
(664 -9.2507e-13 0)
(664 -8.46465e-13 0)
(664 -6.35501e-13 0)
(664 -4.19924e-13 0)
(664 -2.97659e-13 0)
(664 -3.23762e-13 0)
(664 -4.00034e-13 0)
(664 -3.8164e-13 0)
(664 -2.7453e-13 0)
(664 -1.65017e-13 0)
(664 -1.27442e-13 0)
(664 -1.98838e-13 0)
(664 -4.07088e-13 0)
(664 -6.04444e-13 0)
(664 -7.45249e-13 0)
(664 -8.51455e-13 0)
(664 -8.78648e-13 0)
(664 -8.11803e-13 0)
(664 -7.86181e-13 0)
(664 -8.24346e-13 0)
(664 -7.97599e-13 0)
(664 -7.73037e-13 0)
(664 -7.51261e-13 0)
(664 -7.62766e-13 0)
(664 -7.7465e-13 0)
(664 -7.55838e-13 0)
(664 -6.61595e-13 0)
(664 -6.15384e-13 0)
(664 -6.65344e-13 0)
(664 -7.55253e-13 0)
(664 -8.6443e-13 0)
(664 -9.39376e-13 0)
(664 -9.77363e-13 0)
(664 -9.49318e-13 0)
(664 -8.81931e-13 0)
(664 -7.634e-13 0)
(664 -6.78165e-13 0)
(664 -6.36558e-13 0)
(664 -5.88633e-13 0)
(664 -5.32058e-13 0)
(664 -4.88674e-13 0)
(664 -4.61013e-13 0)
(664 -4.60442e-13 0)
(664 -3.6614e-13 0)
(664 -1.80347e-13 0)
(664 5.07754e-14 0)
(664 2.72445e-13 0)
(664 3.1918e-13 0)
(664 1.64657e-13 0)
(664 2.48913e-14 0)
(664 -4.17562e-14 0)
(664 -1.58836e-13 0)
(664 -3.63101e-13 0)
(664 -5.89248e-13 0)
(664 -7.64288e-13 0)
(664 -8.89977e-13 0)
(664 -1.0122e-12 0)
(664 -1.01748e-12 0)
(664 -8.4353e-13 0)
(664 -6.44726e-13 0)
(664 -5.19207e-13 0)
(664 -5.19109e-13 0)
(664 -5.41473e-13 0)
(664 -5.9971e-13 0)
(664 -6.84703e-13 0)
(664 -8.1447e-13 0)
(664 -9.77737e-13 0)
(664 -1.127e-12 0)
(664 -1.18706e-12 0)
(664 -1.17627e-12 0)
(664 -1.12212e-12 0)
(664 -1.11185e-12 0)
(664 -1.18051e-12 0)
(664 -1.26604e-12 0)
(664 -1.28364e-12 0)
(664 -1.18988e-12 0)
(664 -1.05482e-12 0)
(664 -8.7583e-13 0)
(664 -7.03745e-13 0)
(664 -6.32971e-13 0)
(664 -6.32225e-13 0)
(664 -6.35459e-13 0)
(664 -6.29302e-13 0)
(664 -5.74144e-13 0)
(664 -5.38175e-13 0)
(664 -6.17282e-13 0)
(664 -7.40951e-13 0)
(664 -7.3723e-13 0)
(664 -6.39708e-13 0)
(664 -6.02654e-13 0)
(664 -6.69244e-13 0)
(664 -7.55194e-13 0)
(664 -7.55853e-13 0)
(664 -6.58763e-13 0)
(664 -5.25503e-13 0)
(664 -4.89501e-13 0)
(664 -4.63934e-13 0)
(664 -3.48256e-13 0)
(664 -2.7641e-13 0)
(664 -3.67314e-13 0)
(664 -5.31651e-13 0)
(664 -5.5406e-13 0)
(664 -4.51198e-13 0)
(664 -3.9974e-13 0)
(664 -4.43125e-13 0)
(664 -4.29945e-13 0)
(664 -2.85918e-13 0)
(664 -8.77677e-14 0)
(664 1.26365e-13 0)
(664 2.58284e-13 0)
(664 2.69846e-13 0)
(664 1.42367e-13 0)
(664 3.40242e-14 0)
(664 4.10325e-14 0)
(664 8.68229e-14 0)
(664 1.62643e-13 0)
(664 2.33695e-13 0)
(664 2.97283e-13 0)
(664 2.9805e-13 0)
(664 2.26233e-13 0)
(664 1.27482e-13 0)
(664 1.90699e-14 0)
(664 -1.35707e-13 0)
(664 -3.29344e-13 0)
(664 -4.40909e-13 0)
(664 -4.36493e-13 0)
(664 -3.38321e-13 0)
(664 -1.96849e-13 0)
(664 -3.89244e-14 0)
(664 7.15438e-14 0)
(664 1.66965e-13 0)
(664 3.76189e-13 0)
(664 5.84745e-13 0)
(664 6.90328e-13 0)
(664 7.20645e-13 0)
(664 6.22621e-13 0)
(664 5.09779e-13 0)
(664 5.23246e-13 0)
(664 5.78424e-13 0)
(664 5.75515e-13 0)
(664 5.78297e-13 0)
(664 5.59284e-13 0)
(664 5.02079e-13 0)
(664 4.02503e-13 0)
(664 3.30885e-13 0)
(664 3.56626e-13 0)
(664 4.02211e-13 0)
(664 3.81793e-13 0)
(664 3.19127e-13 0)
(664 2.44767e-13 0)
(664 1.9947e-13 0)
(664 1.92442e-13 0)
(664 2.23558e-13 0)
(664 2.17829e-13 0)
(664 1.39422e-13 0)
(664 2.34771e-14 0)
(664 -1.75929e-13 0)
(664 -3.38635e-13 0)
(664 -4.71613e-13 0)
(664 -5.80623e-13 0)
(664 -6.76242e-13 0)
(664 -6.87588e-13 0)
(664 -6.08123e-13 0)
(664 -4.96107e-13 0)
(664 -4.40564e-13 0)
(664 -4.2458e-13 0)
(664 -3.84224e-13 0)
(664 -2.96811e-13 0)
(664 -2.63193e-13 0)
(664 -2.4716e-13 0)
(664 -1.32232e-13 0)
(664 -2.18827e-14 0)
(664 2.20849e-14 0)
(664 9.92698e-14 0)
(664 1.15732e-13 0)
(664 1.05569e-14 0)
(664 -2.33989e-13 0)
(664 -4.24463e-13 0)
(664 -4.46358e-13 0)
(664 -4.13794e-13 0)
(664 -4.2406e-13 0)
(664 -3.81865e-13 0)
(664 -2.07953e-13 0)
(664 1.52346e-14 0)
(664 2.60537e-13 0)
(664 4.93764e-13 0)
(664 6.86637e-13 0)
(664 7.74749e-13 0)
(664 7.23166e-13 0)
(664 5.48846e-13 0)
(664 3.52029e-13 0)
(664 1.11774e-13 0)
(664 -4.22304e-14 0)
(664 -1.3778e-13 0)
(664 -2.09748e-13 0)
(664 -2.1269e-13 0)
(664 -1.00705e-13 0)
(664 5.85961e-14 0)
(664 1.84965e-13 0)
(664 3.21038e-13 0)
(664 4.87541e-13 0)
(664 6.49668e-13 0)
(664 7.04211e-13 0)
(664 6.38985e-13 0)
(664 5.64735e-13 0)
(664 5.58488e-13 0)
(664 5.92377e-13 0)
(664 5.88366e-13 0)
(664 6.02378e-13 0)
(664 7.00382e-13 0)
(664 1.05852e-12 0)
(664 1.79652e-12 0)
(664 3.04059e-12 0)
(664 5.23584e-12 0)
(664 9.04205e-12 0)
(664 1.55941e-11 0)
(664 2.69634e-11 0)
(664 4.65706e-11 0)
(664 8.02444e-11 0)
(664 1.38032e-10 0)
(664 2.37029e-10 0)
(664 4.06363e-10 0)
(664 6.95686e-10 0)
(664 1.18964e-09 0)
(664 2.03234e-09 0)
(664 3.46855e-09 0)
(664 5.9147e-09 0)
(664 1.00773e-08 0)
(664 1.71558e-08 0)
(664 2.91837e-08 0)
(664 4.96119e-08 0)
(664 8.42865e-08 0)
(664 1.43116e-07 0)
(664 2.42884e-07 0)
(664 4.12034e-07 0)
(664 6.98721e-07 0)
(664 1.18453e-06 0)
(664 2.00763e-06 0)
(664 3.40218e-06 0)
(664 5.76478e-06 0)
(664 9.76779e-06 0)
(664 1.6551e-05 0)
(664 2.80479e-05 0)
(664 4.75385e-05 0)
(663.999 8.05922e-05 0)
(663.999 0.000136669 0)
(663.998 0.000231848 0)
(663.997 0.000393476 0)
(663.996 0.000668105 0)
(663.993 0.00113503 0)
(663.988 0.00192943 0)
(663.98 0.00328198 0)
(663.967 0.00558667 0)
(663.946 0.00951698 0)
(663.912 0.0162255 0)
(663.856 0.0276866 0)
(663.764 0.0472862 0)
(663.613 0.0808359 0)
(663.368 0.138325 0)
(662.968 0.236934 0)
(662.317 0.406263 0)
(661.259 0.697268 0)
(659.543 1.19801 0)
(656.775 2.05963 0)
(652.324 3.54417 0)
(645.253 6.09199 0)
(634.119 10.4656 0)
(617.813 17.8083 0)
(664 -1.75726e-14 0)
(664 -3.56332e-14 0)
(664 -5.57755e-14 0)
(664 -4.30018e-14 0)
(664 -2.70858e-14 0)
(664 1.38004e-14 0)
(664 3.45208e-14 0)
(664 -5.01227e-14 0)
(664 -6.43158e-14 0)
(664 -1.20931e-15 0)
(664 -1.76614e-14 0)
(664 -1.03493e-13 0)
(664 -1.49079e-13 0)
(664 -1.47874e-13 0)
(664 -1.35465e-13 0)
(664 -1.78964e-13 0)
(664 -2.70052e-13 0)
(664 -3.25281e-13 0)
(664 -3.881e-13 0)
(664 -4.42707e-13 0)
(664 -5.46856e-13 0)
(664 -6.4139e-13 0)
(664 -6.1927e-13 0)
(664 -5.79216e-13 0)
(664 -6.3445e-13 0)
(664 -7.10958e-13 0)
(664 -6.50002e-13 0)
(664 -5.85999e-13 0)
(664 -6.00148e-13 0)
(664 -5.89125e-13 0)
(664 -6.00137e-13 0)
(664 -6.36665e-13 0)
(664 -6.13028e-13 0)
(664 -5.57127e-13 0)
(664 -4.54734e-13 0)
(664 -3.62503e-13 0)
(664 -2.49283e-13 0)
(664 -1.99712e-13 0)
(664 -2.14539e-13 0)
(664 -1.98953e-13 0)
(664 -1.71167e-13 0)
(664 -1.51197e-13 0)
(664 -1.53883e-13 0)
(664 -1.76978e-13 0)
(664 -2.21969e-13 0)
(664 -3.15962e-13 0)
(664 -4.22749e-13 0)
(664 -4.33221e-13 0)
(664 -4.13965e-13 0)
(664 -4.16136e-13 0)
(664 -4.5268e-13 0)
(664 -5.34485e-13 0)
(664 -6.29062e-13 0)
(664 -7.16616e-13 0)
(664 -8.10531e-13 0)
(664 -8.96778e-13 0)
(664 -8.69956e-13 0)
(664 -7.85555e-13 0)
(664 -7.95596e-13 0)
(664 -8.212e-13 0)
(664 -8.1078e-13 0)
(664 -8.18937e-13 0)
(664 -8.22077e-13 0)
(664 -8.6168e-13 0)
(664 -8.68104e-13 0)
(664 -9.05317e-13 0)
(664 -9.56674e-13 0)
(664 -1.04534e-12 0)
(664 -1.04338e-12 0)
(664 -9.14654e-13 0)
(664 -7.30625e-13 0)
(664 -6.23023e-13 0)
(664 -5.93952e-13 0)
(664 -5.23371e-13 0)
(664 -4.07252e-13 0)
(664 -2.71971e-13 0)
(664 -1.32442e-13 0)
(664 -5.93695e-14 0)
(664 -8.82769e-14 0)
(664 -9.90432e-14 0)
(664 -1.02073e-14 0)
(664 1.63453e-13 0)
(664 2.947e-13 0)
(664 3.38389e-13 0)
(664 3.7923e-13 0)
(664 3.38827e-13 0)
(664 2.13716e-13 0)
(664 -1.36299e-14 0)
(664 -2.32181e-13 0)
(664 -3.33105e-13 0)
(664 -3.49088e-13 0)
(664 -4.38257e-13 0)
(664 -6.06796e-13 0)
(664 -7.54656e-13 0)
(664 -8.29033e-13 0)
(664 -8.31604e-13 0)
(664 -7.72324e-13 0)
(664 -6.35809e-13 0)
(664 -5.4357e-13 0)
(664 -5.31255e-13 0)
(664 -5.63553e-13 0)
(664 -5.97837e-13 0)
(664 -5.71225e-13 0)
(664 -5.25547e-13 0)
(664 -5.01212e-13 0)
(664 -5.42374e-13 0)
(664 -6.54587e-13 0)
(664 -8.80572e-13 0)
(664 -1.13664e-12 0)
(664 -1.32745e-12 0)
(664 -1.34939e-12 0)
(664 -1.30217e-12 0)
(664 -1.18893e-12 0)
(664 -9.63296e-13 0)
(664 -7.00778e-13 0)
(664 -5.68381e-13 0)
(664 -5.45843e-13 0)
(664 -5.13628e-13 0)
(664 -5.2414e-13 0)
(664 -5.98806e-13 0)
(664 -6.19593e-13 0)
(664 -5.27763e-13 0)
(664 -4.0874e-13 0)
(664 -3.1776e-13 0)
(664 -1.92999e-13 0)
(664 -1.02424e-13 0)
(664 -7.21233e-14 0)
(664 -1.33032e-14 0)
(664 7.27885e-14 0)
(664 1.87735e-13 0)
(664 2.74886e-13 0)
(664 2.94635e-13 0)
(664 2.43783e-13 0)
(664 9.54078e-14 0)
(664 -6.75038e-14 0)
(664 -1.57471e-13 0)
(664 -2.37814e-13 0)
(664 -3.23568e-13 0)
(664 -3.79905e-13 0)
(664 -4.42045e-13 0)
(664 -4.63077e-13 0)
(664 -4.74237e-13 0)
(664 -5.84865e-13 0)
(664 -7.79592e-13 0)
(664 -9.68804e-13 0)
(664 -9.85895e-13 0)
(664 -8.37909e-13 0)
(664 -6.9429e-13 0)
(664 -5.72937e-13 0)
(664 -3.6819e-13 0)
(664 -4.84499e-14 0)
(664 2.90161e-13 0)
(664 4.2798e-13 0)
(664 3.68589e-13 0)
(664 3.31183e-13 0)
(664 3.51999e-13 0)
(664 2.85484e-13 0)
(664 1.38083e-13 0)
(664 -3.56455e-14 0)
(664 -1.36732e-13 0)
(664 -1.74799e-13 0)
(664 -2.45933e-13 0)
(664 -3.16856e-13 0)
(664 -3.62806e-13 0)
(664 -3.3279e-13 0)
(664 -1.98207e-13 0)
(664 -1.40462e-13 0)
(664 -1.25362e-13 0)
(664 -3.4638e-14 0)
(664 1.26066e-13 0)
(664 1.75955e-13 0)
(664 1.11424e-13 0)
(664 4.99176e-14 0)
(664 9.88918e-14 0)
(664 1.57625e-13 0)
(664 9.48051e-14 0)
(664 -2.76251e-14 0)
(664 -1.48456e-13 0)
(664 -2.05809e-13 0)
(664 -2.37741e-13 0)
(664 -2.18611e-13 0)
(664 -8.97683e-14 0)
(664 3.4552e-14 0)
(664 9.43233e-14 0)
(664 9.44783e-14 0)
(664 6.60669e-14 0)
(664 7.01616e-14 0)
(664 1.01458e-13 0)
(664 1.21175e-13 0)
(664 1.04299e-13 0)
(664 1.97611e-13 0)
(664 3.90903e-13 0)
(664 4.84094e-13 0)
(664 4.28846e-13 0)
(664 2.82057e-13 0)
(664 1.05812e-13 0)
(664 3.22978e-15 0)
(664 -9.71756e-14 0)
(664 -1.40346e-13 0)
(664 -2.40356e-13 0)
(664 -2.92125e-13 0)
(664 -2.31011e-13 0)
(664 -5.18727e-14 0)
(664 2.20236e-13 0)
(664 3.96648e-13 0)
(664 3.98744e-13 0)
(664 3.23643e-13 0)
(664 1.84189e-13 0)
(664 8.74843e-14 0)
(664 3.48292e-14 0)
(664 -1.7899e-14 0)
(664 -8.49461e-14 0)
(664 -1.27998e-13 0)
(664 -1.4542e-13 0)
(664 -1.3517e-13 0)
(664 -1.03521e-13 0)
(664 6.3131e-15 0)
(664 1.24016e-13 0)
(664 2.28336e-13 0)
(664 3.7557e-13 0)
(664 5.54514e-13 0)
(664 5.84141e-13 0)
(664 5.04536e-13 0)
(664 3.78763e-13 0)
(664 1.87539e-13 0)
(664 -7.81199e-16 0)
(664 -1.25334e-13 0)
(664 -2.1309e-13 0)
(664 -3.27453e-13 0)
(664 -3.74121e-13 0)
(664 -3.7241e-13 0)
(664 -3.83259e-13 0)
(664 -3.63373e-13 0)
(664 -3.30483e-13 0)
(664 -2.43528e-13 0)
(664 -2.54881e-14 0)
(664 2.44931e-13 0)
(664 4.7432e-13 0)
(664 6.13353e-13 0)
(664 7.23429e-13 0)
(664 8.39957e-13 0)
(664 1.05801e-12 0)
(664 1.63975e-12 0)
(664 2.73191e-12 0)
(664 4.62917e-12 0)
(664 7.74685e-12 0)
(664 1.29863e-11 0)
(664 2.20589e-11 0)
(664 3.76597e-11 0)
(664 6.44375e-11 0)
(664 1.10331e-10 0)
(664 1.88973e-10 0)
(664 3.23499e-10 0)
(664 5.53079e-10 0)
(664 9.44471e-10 0)
(664 1.6107e-09 0)
(664 2.74346e-09 0)
(664 4.66706e-09 0)
(664 7.93033e-09 0)
(664 1.34598e-08 0)
(664 2.28209e-08 0)
(664 3.86524e-08 0)
(664 6.54043e-08 0)
(664 1.10568e-07 0)
(664 1.86758e-07 0)
(664 3.15183e-07 0)
(664 5.31504e-07 0)
(664 8.95615e-07 0)
(664 1.50812e-06 0)
(664 2.53778e-06 0)
(664 4.26782e-06 0)
(664 7.17296e-06 0)
(664 1.20491e-05 0)
(664 2.02292e-05 0)
(664 3.39464e-05 0)
(664 5.69384e-05 0)
(664 9.54616e-05 0)
(663.999 0.000159981 0)
(663.999 0.000268001 0)
(663.998 0.00044878 0)
(663.997 0.000751219 0)
(663.994 0.001257 0)
(663.991 0.0021025 0)
(663.985 0.00351534 0)
(663.976 0.00587518 0)
(663.96 0.00981486 0)
(663.936 0.0163887 0)
(663.896 0.0273513 0)
(663.831 0.0456208 0)
(663.726 0.0760441 0)
(663.557 0.126662 0)
(663.286 0.210792 0)
(662.849 0.350444 0)
(662.149 0.581918 0)
(661.03 0.964818 0)
(659.249 1.5967 0)
(656.426 2.63542 0)
(652 4.3351 0)
(645.09 7.08844 0)
(634.99 11.4983 0)
(664 -1.75743e-14 0)
(664 -2.24003e-14 0)
(664 -1.30656e-14 0)
(664 1.96166e-14 0)
(664 8.30638e-15 0)
(664 -4.00965e-15 0)
(664 -3.393e-14 0)
(664 -9.67927e-14 0)
(664 -1.37964e-13 0)
(664 -1.53315e-13 0)
(664 -1.62762e-13 0)
(664 -2.23503e-13 0)
(664 -2.8612e-13 0)
(664 -3.73639e-13 0)
(664 -4.5804e-13 0)
(664 -5.9412e-13 0)
(664 -7.19309e-13 0)
(664 -7.21101e-13 0)
(664 -6.82805e-13 0)
(664 -6.47103e-13 0)
(664 -5.90685e-13 0)
(664 -5.70226e-13 0)
(664 -5.53517e-13 0)
(664 -4.64817e-13 0)
(664 -3.35623e-13 0)
(664 -2.74402e-13 0)
(664 -2.06504e-13 0)
(664 -1.44495e-13 0)
(664 -8.93813e-14 0)
(664 -9.81526e-14 0)
(664 -1.25331e-13 0)
(664 -1.39857e-13 0)
(664 -1.9575e-13 0)
(664 -3.01593e-13 0)
(664 -3.6944e-13 0)
(664 -3.32098e-13 0)
(664 -2.43454e-13 0)
(664 -1.47082e-13 0)
(664 -9.00099e-14 0)
(664 -9.77374e-14 0)
(664 -1.8363e-13 0)
(664 -2.80171e-13 0)
(664 -3.08964e-13 0)
(664 -2.53557e-13 0)
(664 -1.32735e-13 0)
(664 1.91057e-14 0)
(664 1.81826e-13 0)
(664 2.30787e-13 0)
(664 1.7709e-13 0)
(664 7.31204e-15 0)
(664 -1.19955e-13 0)
(664 -1.54686e-13 0)
(664 -1.92618e-13 0)
(664 -2.45056e-13 0)
(664 -3.1954e-13 0)
(664 -4.24874e-13 0)
(664 -5.96959e-13 0)
(664 -7.76836e-13 0)
(664 -9.61326e-13 0)
(664 -1.11974e-12 0)
(664 -1.18126e-12 0)
(664 -1.14503e-12 0)
(664 -1.08932e-12 0)
(664 -1.09991e-12 0)
(664 -1.23824e-12 0)
(664 -1.35239e-12 0)
(664 -1.30983e-12 0)
(664 -1.13649e-12 0)
(664 -9.04631e-13 0)
(664 -6.70056e-13 0)
(664 -4.86283e-13 0)
(664 -3.77977e-13 0)
(664 -3.74251e-13 0)
(664 -4.69496e-13 0)
(664 -5.65777e-13 0)
(664 -6.25046e-13 0)
(664 -7.39836e-13 0)
(664 -9.66107e-13 0)
(664 -1.17258e-12 0)
(664 -1.21148e-12 0)
(664 -1.02262e-12 0)
(664 -8.48479e-13 0)
(664 -7.49782e-13 0)
(664 -6.51227e-13 0)
(664 -5.28198e-13 0)
(664 -3.20633e-13 0)
(664 -1.38691e-13 0)
(664 -8.84135e-14 0)
(664 -1.83661e-13 0)
(664 -3.66619e-13 0)
(664 -6.26938e-13 0)
(664 -8.83098e-13 0)
(664 -1.03898e-12 0)
(664 -1.0841e-12 0)
(664 -1.04727e-12 0)
(664 -9.58475e-13 0)
(664 -7.70582e-13 0)
(664 -5.43218e-13 0)
(664 -3.15605e-13 0)
(664 -1.89922e-13 0)
(664 -2.14047e-13 0)
(664 -2.48656e-13 0)
(664 -3.24176e-13 0)
(664 -3.11318e-13 0)
(664 -1.48025e-13 0)
(664 -5.64485e-14 0)
(664 -1.3691e-13 0)
(664 -3.13834e-13 0)
(664 -4.70776e-13 0)
(664 -5.84055e-13 0)
(664 -6.77061e-13 0)
(664 -6.41174e-13 0)
(664 -5.50669e-13 0)
(664 -5.42049e-13 0)
(664 -6.11083e-13 0)
(664 -7.95052e-13 0)
(664 -1.01711e-12 0)
(664 -1.094e-12 0)
(664 -1.01518e-12 0)
(664 -8.98977e-13 0)
(664 -8.37023e-13 0)
(664 -7.83397e-13 0)
(664 -7.36969e-13 0)
(664 -7.64402e-13 0)
(664 -8.20168e-13 0)
(664 -8.36873e-13 0)
(664 -8.174e-13 0)
(664 -7.2727e-13 0)
(664 -5.34081e-13 0)
(664 -3.76228e-13 0)
(664 -2.13351e-13 0)
(664 3.81556e-14 0)
(664 2.1882e-13 0)
(664 1.99024e-13 0)
(664 4.59162e-14 0)
(664 -1.2253e-13 0)
(664 -2.5287e-13 0)
(664 -3.80379e-13 0)
(664 -4.90761e-13 0)
(664 -5.74455e-13 0)
(664 -6.05414e-13 0)
(664 -6.1398e-13 0)
(664 -5.33773e-13 0)
(664 -3.51083e-13 0)
(664 -1.71722e-13 0)
(664 -8.54127e-14 0)
(664 -2.16673e-14 0)
(664 1.46037e-13 0)
(664 3.4039e-13 0)
(664 4.4886e-13 0)
(664 4.81972e-13 0)
(664 5.29879e-13 0)
(664 5.03956e-13 0)
(664 3.75912e-13 0)
(664 1.60033e-13 0)
(664 2.24694e-14 0)
(664 5.61927e-14 0)
(664 1.50653e-14 0)
(664 -1.31907e-13 0)
(664 -2.8203e-13 0)
(664 -4.00812e-13 0)
(664 -4.84723e-13 0)
(664 -4.71009e-13 0)
(664 -3.71525e-13 0)
(664 -1.72039e-13 0)
(664 7.13309e-14 0)
(664 3.77799e-13 0)
(664 6.89756e-13 0)
(664 8.60377e-13 0)
(664 7.07509e-13 0)
(664 3.36134e-13 0)
(664 -5.60142e-14 0)
(664 -3.70601e-13 0)
(664 -5.34823e-13 0)
(664 -6.03533e-13 0)
(664 -6.51517e-13 0)
(664 -7.46243e-13 0)
(664 -8.17853e-13 0)
(664 -8.07044e-13 0)
(664 -7.68013e-13 0)
(664 -6.58951e-13 0)
(664 -4.59638e-13 0)
(664 -2.7399e-13 0)
(664 -1.27588e-13 0)
(664 -4.19778e-14 0)
(664 3.34016e-14 0)
(664 8.66804e-14 0)
(664 1.13547e-13 0)
(664 2.281e-13 0)
(664 4.24024e-13 0)
(664 5.4866e-13 0)
(664 5.29933e-13 0)
(664 4.63169e-13 0)
(664 3.83815e-13 0)
(664 2.27799e-13 0)
(664 7.98781e-14 0)
(664 -4.19434e-14 0)
(664 -8.2755e-14 0)
(664 -9.49641e-14 0)
(664 -7.73927e-14 0)
(664 -2.16739e-14 0)
(664 8.87975e-14 0)
(664 1.1321e-13 0)
(664 4.07615e-14 0)
(664 -6.78141e-14 0)
(664 -2.07324e-13 0)
(664 -3.42357e-13 0)
(664 -4.30513e-13 0)
(664 -5.13836e-13 0)
(664 -6.23531e-13 0)
(664 -7.60787e-13 0)
(664 -6.67295e-13 0)
(664 -4.28608e-13 0)
(664 -1.90034e-13 0)
(664 -8.66537e-14 0)
(664 2.62269e-14 0)
(664 2.08212e-13 0)
(664 2.19025e-13 0)
(664 4.30745e-14 0)
(664 -1.25808e-13 0)
(664 -1.87879e-13 0)
(664 -1.82402e-13 0)
(664 -1.06541e-13 0)
(664 2.66092e-14 0)
(664 2.05205e-13 0)
(664 3.69351e-13 0)
(664 5.14814e-13 0)
(664 6.21491e-13 0)
(664 6.85721e-13 0)
(664 6.52176e-13 0)
(664 5.40544e-13 0)
(664 3.86325e-13 0)
(664 2.52854e-13 0)
(664 9.50508e-14 0)
(664 1.98402e-14 0)
(664 4.7755e-16 0)
(664 7.54406e-14 0)
(664 1.70195e-13 0)
(664 3.00639e-13 0)
(664 5.46803e-13 0)
(664 9.81047e-13 0)
(664 1.5522e-12 0)
(664 2.16996e-12 0)
(664 3.12364e-12 0)
(664 4.9239e-12 0)
(664 8.23427e-12 0)
(664 1.39549e-11 0)
(664 2.37519e-11 0)
(664 4.05113e-11 0)
(664 6.92066e-11 0)
(664 1.18233e-10 0)
(664 2.01841e-10 0)
(664 3.44243e-10 0)
(664 5.86442e-10 0)
(664 9.97932e-10 0)
(664 1.69597e-09 0)
(664 2.87851e-09 0)
(664 4.87903e-09 0)
(664 8.25929e-09 0)
(664 1.39631e-08 0)
(664 2.3577e-08 0)
(664 3.97607e-08 0)
(664 6.69743e-08 0)
(664 1.1268e-07 0)
(664 1.89366e-07 0)
(664 3.17887e-07 0)
(664 5.33069e-07 0)
(664 8.9297e-07 0)
(664 1.49437e-06 0)
(664 2.4983e-06 0)
(664 4.17274e-06 0)
(664 6.96286e-06 0)
(664 1.16081e-05 0)
(664 1.9335e-05 0)
(664 3.21774e-05 0)
(664 5.35031e-05 0)
(664 8.88872e-05 0)
(663.999 0.000147547 0)
(663.999 0.000244711 0)
(663.999 0.000405517 0)
(663.998 0.00067142 0)
(663.996 0.00111071 0)
(663.994 0.0018358 0)
(663.99 0.00303144 0)
(663.983 0.00500111 0)
(663.973 0.00824239 0)
(663.956 0.0135704 0)
(663.929 0.0223178 0)
(663.886 0.0366611 0)
(663.818 0.0601468 0)
(663.708 0.0985433 0)
(663.532 0.16121 0)
(663.252 0.26329 0)
(662.807 0.429212 0)
(662.101 0.698165 0)
(660.986 1.13284 0)
(659.227 1.83213 0)
(656.48 2.9521 0)
(652.181 4.72751 0)
(645.847 7.52201 0)
(664 3.11731e-14 0)
(664 5.69524e-14 0)
(664 5.25593e-14 0)
(664 5.00306e-14 0)
(664 1.01863e-13 0)
(664 1.27892e-13 0)
(664 1.0739e-13 0)
(664 1.24173e-13 0)
(664 8.12103e-14 0)
(664 -5.29843e-15 0)
(664 -5.36679e-14 0)
(664 -7.90563e-14 0)
(664 -1.33588e-13 0)
(664 -1.64651e-13 0)
(664 -1.70149e-13 0)
(664 -1.17547e-13 0)
(664 -5.67971e-14 0)
(664 -1.82138e-14 0)
(664 -8.67883e-15 0)
(664 -3.83736e-14 0)
(664 -4.61492e-14 0)
(664 -5.4535e-14 0)
(664 -4.90891e-14 0)
(664 -3.52143e-14 0)
(664 -3.5538e-14 0)
(664 -1.18849e-13 0)
(664 -2.47889e-13 0)
(664 -2.84278e-13 0)
(664 -3.05292e-13 0)
(664 -3.56588e-13 0)
(664 -4.04844e-13 0)
(664 -3.89223e-13 0)
(664 -3.39678e-13 0)
(664 -3.44291e-13 0)
(664 -4.22117e-13 0)
(664 -5.46059e-13 0)
(664 -6.52811e-13 0)
(664 -6.64484e-13 0)
(664 -6.96116e-13 0)
(664 -7.75926e-13 0)
(664 -8.18084e-13 0)
(664 -8.01666e-13 0)
(664 -7.64775e-13 0)
(664 -7.44363e-13 0)
(664 -7.48522e-13 0)
(664 -6.68387e-13 0)
(664 -5.39918e-13 0)
(664 -4.77228e-13 0)
(664 -5.2639e-13 0)
(664 -6.94196e-13 0)
(664 -8.33375e-13 0)
(664 -8.40909e-13 0)
(664 -8.05786e-13 0)
(664 -8.03787e-13 0)
(664 -7.40901e-13 0)
(664 -6.82022e-13 0)
(664 -6.90407e-13 0)
(664 -7.56323e-13 0)
(664 -8.13881e-13 0)
(664 -8.28311e-13 0)
(664 -8.7461e-13 0)
(664 -9.08249e-13 0)
(664 -9.22254e-13 0)
(664 -8.58479e-13 0)
(664 -8.15791e-13 0)
(664 -6.82274e-13 0)
(664 -4.52032e-13 0)
(664 -1.29461e-13 0)
(664 5.26172e-14 0)
(664 1.06722e-13 0)
(664 1.62121e-13 0)
(664 2.02908e-13 0)
(664 2.29097e-13 0)
(664 1.89286e-13 0)
(664 1.41822e-13 0)
(664 2.43246e-14 0)
(664 -1.22172e-13 0)
(664 -2.10593e-13 0)
(664 -2.49465e-13 0)
(664 -2.29844e-13 0)
(664 -2.36463e-13 0)
(664 -3.08069e-13 0)
(664 -5.3337e-13 0)
(664 -8.0174e-13 0)
(664 -1.02559e-12 0)
(664 -1.09922e-12 0)
(664 -1.03333e-12 0)
(664 -9.1455e-13 0)
(664 -7.50354e-13 0)
(664 -5.88645e-13 0)
(664 -4.84904e-13 0)
(664 -3.55683e-13 0)
(664 -1.68038e-13 0)
(664 -2.64387e-15 0)
(664 9.60653e-15 0)
(664 -2.24044e-13 0)
(664 -5.62857e-13 0)
(664 -8.21714e-13 0)
(664 -9.53341e-13 0)
(664 -9.42257e-13 0)
(664 -8.89347e-13 0)
(664 -8.72913e-13 0)
(664 -8.40058e-13 0)
(664 -7.60248e-13 0)
(664 -5.79716e-13 0)
(664 -2.94665e-13 0)
(664 1.06006e-13 0)
(664 5.31069e-13 0)
(664 8.36393e-13 0)
(664 9.52871e-13 0)
(664 9.07514e-13 0)
(664 7.30641e-13 0)
(664 5.26548e-13 0)
(664 2.87887e-13 0)
(664 7.10414e-14 0)
(664 -4.07888e-14 0)
(664 -9.00125e-14 0)
(664 -2.29524e-13 0)
(664 -4.17542e-13 0)
(664 -5.21475e-13 0)
(664 -6.15007e-13 0)
(664 -6.8409e-13 0)
(664 -7.22913e-13 0)
(664 -6.49433e-13 0)
(664 -5.96041e-13 0)
(664 -5.73032e-13 0)
(664 -5.65983e-13 0)
(664 -6.51065e-13 0)
(664 -7.46217e-13 0)
(664 -8.30248e-13 0)
(664 -9.03424e-13 0)
(664 -9.20502e-13 0)
(664 -9.43955e-13 0)
(664 -9.39111e-13 0)
(664 -9.51646e-13 0)
(664 -9.61445e-13 0)
(664 -8.3593e-13 0)
(664 -7.04584e-13 0)
(664 -6.55075e-13 0)
(664 -5.79911e-13 0)
(664 -4.63781e-13 0)
(664 -3.59713e-13 0)
(664 -2.661e-13 0)
(664 -1.68506e-13 0)
(664 -1.5566e-14 0)
(664 -1.57535e-14 0)
(664 -1.51697e-13 0)
(664 -2.6885e-13 0)
(664 -2.4199e-13 0)
(664 -9.37786e-14 0)
(664 8.30559e-15 0)
(664 -2.91812e-14 0)
(664 -1.05893e-13 0)
(664 -2.58499e-13 0)
(664 -4.04129e-13 0)
(664 -4.27504e-13 0)
(664 -3.76614e-13 0)
(664 -3.31725e-13 0)
(664 -2.94229e-13 0)
(664 -3.58713e-13 0)
(664 -4.7753e-13 0)
(664 -5.33479e-13 0)
(664 -5.1092e-13 0)
(664 -4.52938e-13 0)
(664 -4.55764e-13 0)
(664 -5.02016e-13 0)
(664 -4.6066e-13 0)
(664 -3.17468e-13 0)
(664 -2.11023e-13 0)
(664 -1.28471e-13 0)
(664 -5.90455e-14 0)
(664 -5.45237e-14 0)
(664 -1.09546e-13 0)
(664 -2.45203e-13 0)
(664 -3.08168e-13 0)
(664 -2.39115e-13 0)
(664 -3.60257e-14 0)
(664 2.36799e-13 0)
(664 3.90925e-13 0)
(664 4.53905e-13 0)
(664 4.31609e-13 0)
(664 3.1998e-13 0)
(664 2.5168e-13 0)
(664 2.04299e-13 0)
(664 1.18817e-13 0)
(664 7.58598e-14 0)
(664 7.92078e-14 0)
(664 1.197e-13 0)
(664 1.34321e-13 0)
(664 1.45743e-13 0)
(664 6.81746e-14 0)
(664 -1.09959e-13 0)
(664 -2.67429e-13 0)
(664 -3.61889e-13 0)
(664 -3.61037e-13 0)
(664 -3.31208e-13 0)
(664 -3.48186e-13 0)
(664 -3.7928e-13 0)
(664 -3.71754e-13 0)
(664 -2.72486e-13 0)
(664 -1.38869e-13 0)
(664 -3.52013e-14 0)
(664 -1.89646e-14 0)
(664 -3.99389e-14 0)
(664 -2.41873e-14 0)
(664 -1.25331e-14 0)
(664 -9.39215e-15 0)
(664 4.2325e-15 0)
(664 3.02598e-14 0)
(664 4.41445e-14 0)
(664 1.50765e-13 0)
(664 2.76645e-13 0)