/*--------------------------------*- C++ -*----------------------------------*\
| =========                 |                                                 |
| \\      /  F ield         | OpenFOAM: The Open Source CFD Toolbox           |
|  \\    /   O peration     | Version:  2412                                  |
|   \\  /    A nd           | Website:  www.openfoam.com                      |
|    \\/     M anipulation  |                                                 |
\*---------------------------------------------------------------------------*/
FoamFile
{
    version     2.0;
    format      ascii;
    arch        "LSB;label=32;scalar=64";
    class       volVectorField;
    location    "0.001";
    object      U_0;
}
// * * * * * * * * * * * * * * * * * * * * * * * * * * * * * * * * * * * * * //

dimensions      [0 1 -1 0 0 0 0];

internalField   nonuniform List<vector> 
180000
(
(664 8.91247e-15 0)
(664 -7.14263e-15 0)
(664 -2.16456e-14 0)
(664 -4.08377e-14 0)
(664 -6.2246e-14 0)
(664 -7.34956e-14 0)
(664 -7.59867e-14 0)
(664 -8.17906e-14 0)
(664 -8.75796e-14 0)
(664 -9.94093e-14 0)
(664 -1.08043e-13 0)
(664 -1.27598e-13 0)
(664 -1.74816e-13 0)
(664 -2.17703e-13 0)
(664 -2.80296e-13 0)
(664 -3.35923e-13 0)
(664 -3.71639e-13 0)
(664 -4.01399e-13 0)
(664 -4.1819e-13 0)
(664 -4.23867e-13 0)
(664 -4.16911e-13 0)
(664 -3.96712e-13 0)
(664 -3.77225e-13 0)
(664 -3.51607e-13 0)
(664 -3.21495e-13 0)
(664 -2.97158e-13 0)
(664 -2.74855e-13 0)
(664 -2.57072e-13 0)
(664 -2.27759e-13 0)
(664 -1.96529e-13 0)
(664 -1.65343e-13 0)
(664 -1.31088e-13 0)
(664 -1.01457e-13 0)
(664 -6.51473e-14 0)
(664 -3.82095e-14 0)
(664 -1.93052e-14 0)
(664 -3.50992e-14 0)
(664 -6.2086e-14 0)
(664 -9.21275e-14 0)
(664 -1.22732e-13 0)
(664 -1.62658e-13 0)
(664 -2.1207e-13 0)
(664 -2.48016e-13 0)
(664 -2.60602e-13 0)
(664 -2.57124e-13 0)
(664 -2.40556e-13 0)
(664 -2.05361e-13 0)
(664 -1.7771e-13 0)
(664 -1.64981e-13 0)
(664 -1.43615e-13 0)
(664 -1.31774e-13 0)
(664 -1.15245e-13 0)
(664 -1.0507e-13 0)
(664 -8.67739e-14 0)
(664 -6.35242e-14 0)
(664 -6.61471e-14 0)
(664 -6.29119e-14 0)
(664 -6.61039e-14 0)
(664 -6.75018e-14 0)
(664 -5.88987e-14 0)
(664 -6.32686e-14 0)
(664 -7.88902e-14 0)
(664 -1.25744e-13 0)
(664 -1.73476e-13 0)
(664 -1.88728e-13 0)
(664 -1.96991e-13 0)
(664 -1.9859e-13 0)
(664 -2.11302e-13 0)
(664 -2.46398e-13 0)
(664 -2.7984e-13 0)
(664 -3.09168e-13 0)
(664 -3.57273e-13 0)
(664 -3.93052e-13 0)
(664 -4.07792e-13 0)
(664 -4.32787e-13 0)
(664 -4.66425e-13 0)
(664 -4.94806e-13 0)
(664 -5.00332e-13 0)
(664 -5.31499e-13 0)
(664 -5.67209e-13 0)
(664 -6.06558e-13 0)
(664 -6.64635e-13 0)
(664 -7.08314e-13 0)
(664 -7.53192e-13 0)
(664 -8.01629e-13 0)
(664 -8.18386e-13 0)
(664 -8.13574e-13 0)
(664 -7.92119e-13 0)
(664 -7.75073e-13 0)
(664 -7.64807e-13 0)
(664 -7.60121e-13 0)
(664 -7.76558e-13 0)
(664 -7.76762e-13 0)
(664 -7.59826e-13 0)
(664 -7.51911e-13 0)
(664 -7.42361e-13 0)
(664 -7.26738e-13 0)
(664 -7.29994e-13 0)
(664 -7.46548e-13 0)
(664 -7.82474e-13 0)
(664 -8.05704e-13 0)
(664 -8.075e-13 0)
(664 -7.85855e-13 0)
(664 -7.69654e-13 0)
(664 -7.55611e-13 0)
(664 -7.63798e-13 0)
(664 -7.6177e-13 0)
(664 -7.39795e-13 0)
(664 -6.9786e-13 0)
(664 -6.51172e-13 0)
(664 -6.0278e-13 0)
(664 -5.81715e-13 0)
(664 -5.60084e-13 0)
(664 -5.43925e-13 0)
(664 -5.45521e-13 0)
(664 -5.28493e-13 0)
(664 -5.18976e-13 0)
(664 -5.29007e-13 0)
(664 -5.27661e-13 0)
(664 -5.27262e-13 0)
(664 -5.2391e-13 0)
(664 -5.12072e-13 0)
(664 -5.32239e-13 0)
(664 -5.6683e-13 0)
(664 -6.01277e-13 0)
(664 -6.38525e-13 0)
(664 -6.69119e-13 0)
(664 -6.78184e-13 0)
(664 -6.86912e-13 0)
(664 -6.92947e-13 0)
(664 -6.80562e-13 0)
(664 -6.76901e-13 0)
(664 -6.71225e-13 0)
(664 -6.76133e-13 0)
(664 -7.0005e-13 0)
(664 -7.14538e-13 0)
(664 -7.46434e-13 0)
(664 -7.94874e-13 0)
(664 -8.45114e-13 0)
(664 -8.9125e-13 0)
(664 -9.36493e-13 0)
(664 -9.70289e-13 0)
(664 -9.86878e-13 0)
(664 -1.01171e-12 0)
(664 -1.03668e-12 0)
(664 -1.0442e-12 0)
(664 -1.05441e-12 0)
(664 -1.03141e-12 0)
(664 -9.92701e-13 0)
(664 -9.55413e-13 0)
(664 -9.19436e-13 0)
(664 -8.97785e-13 0)
(664 -8.80062e-13 0)
(664 -8.56195e-13 0)
(664 -8.32489e-13 0)
(664 -8.19821e-13 0)
(664 -7.93197e-13 0)
(664 -7.68739e-13 0)
(664 -7.60637e-13 0)
(664 -7.46438e-13 0)
(664 -7.36174e-13 0)
(664 -7.41913e-13 0)
(664 -7.49616e-13 0)
(664 -7.78617e-13 0)
(664 -8.0953e-13 0)
(664 -8.44806e-13 0)
(664 -8.79865e-13 0)
(664 -9.15807e-13 0)
(664 -9.40378e-13 0)
(664 -9.58012e-13 0)
(664 -9.81101e-13 0)
(664 -9.9967e-13 0)
(664 -1.00848e-12 0)
(664 -9.96702e-13 0)
(664 -9.8957e-13 0)
(664 -9.77853e-13 0)
(664 -9.94127e-13 0)
(664 -1.02156e-12 0)
(664 -1.04676e-12 0)
(664 -1.09432e-12 0)
(664 -1.13463e-12 0)
(664 -1.16163e-12 0)
(664 -1.18504e-12 0)
(664 -1.18957e-12 0)
(664 -1.1651e-12 0)
(664 -1.14927e-12 0)
(664 -1.09356e-12 0)
(664 -1.02408e-12 0)
(664 -9.53848e-13 0)
(664 -8.83378e-13 0)
(664 -8.21368e-13 0)
(664 -7.76068e-13 0)
(664 -7.38841e-13 0)
(664 -7.09488e-13 0)
(664 -6.76808e-13 0)
(664 -6.57461e-13 0)
(664 -6.40971e-13 0)
(664 -6.22993e-13 0)
(664 -5.85608e-13 0)
(664 -5.45838e-13 0)
(664 -5.08195e-13 0)
(664 -4.63342e-13 0)
(664 -4.4201e-13 0)
(664 -4.54059e-13 0)
(664 -4.80842e-13 0)
(664 -5.02706e-13 0)
(664 -5.25107e-13 0)
(664 -5.56313e-13 0)
(664 -5.89621e-13 0)
(664 -6.38528e-13 0)
(664 -6.72257e-13 0)
(664 -6.98855e-13 0)
(664 -7.30829e-13 0)
(664 -7.60944e-13 0)
(664 -7.84394e-13 0)
(664 -7.95666e-13 0)
(664 -8.09061e-13 0)
(664 -8.11063e-13 0)
(664 -8.23304e-13 0)
(664 -8.3571e-13 0)
(664 -8.34916e-13 0)
(664 -8.62766e-13 0)
(664 -8.8076e-13 0)
(664 -8.91676e-13 0)
(664 -9.12482e-13 0)
(664 -9.18234e-13 0)
(664 -9.25639e-13 0)
(664 -9.47668e-13 0)
(664 -9.43179e-13 0)
(664 -9.32906e-13 0)
(664 -9.18662e-13 0)
(664 -8.95728e-13 0)
(664 -8.62321e-13 0)
(664 -8.39788e-13 0)
(664 -7.99348e-13 0)
(664 -7.33668e-13 0)
(664 -7.05076e-13 0)
(664 -6.74078e-13 0)
(664 -6.38076e-13 0)
(664 -6.1974e-13 0)
(664 -5.71342e-13 0)
(664 -4.70142e-13 0)
(664 -2.62097e-13 0)
(664 1.07886e-13 0)
(664 7.20905e-13 0)
(664 1.70824e-12 0)
(664 3.35863e-12 0)
(664 6.12362e-12 0)
(664 1.07716e-11 0)
(664 1.86005e-11 0)
(664 3.17483e-11 0)
(664 5.38344e-11 0)
(664 9.09075e-11 0)
(664 1.53222e-10 0)
(664 2.58033e-10 0)
(664 4.34392e-10 0)
(664 7.31359e-10 0)
(664 1.23172e-09 0)
(664 2.07543e-09 0)
(664 3.49914e-09 0)
(664 5.90363e-09 0)
(664 9.96752e-09 0)
(664 1.68424e-08 0)
(664 2.84818e-08 0)
(664 4.82075e-08 0)
(664 8.16657e-08 0)
(664 1.38478e-07 0)
(664 2.35038e-07 0)
(664 3.99343e-07 0)
(664 6.79212e-07 0)
(664 1.15652e-06 0)
(664 1.97148e-06 0)
(664 3.36482e-06 0)
(664 5.74991e-06 0)
(664 9.83855e-06 0)
(664 1.68567e-05 0)
(663.999 2.89219e-05 0)
(663.999 4.96928e-05 0)
(663.998 8.55097e-05 0)
(663.997 0.000147364 0)
(663.995 0.000254366 0)
(663.992 0.000439764 0)
(663.986 0.000761575 0)
(663.977 0.00132108 0)
(663.962 0.0022957 0)
(663.937 0.00399626 0)
(663.895 0.00696927 0)
(663.825 0.0121758 0)
(663.708 0.0213123 0)
(663.512 0.0373724 0)
(663.186 0.0656633 0)
(662.639 0.115575 0)
(661.723 0.203846 0)
(660.186 0.360152 0)
(657.609 0.637939 0)
(653.286 1.1312 0)
(646.065 2.01152 0)
(633.94 3.57373 0)
(613.871 6.39221 0)
(582.101 11.3571 0)
(664 -2.75905e-15 0)
(664 -8.76519e-15 0)
(664 -1.43837e-14 0)
(664 -3.26233e-14 0)
(664 -3.02929e-14 0)
(664 -1.9291e-14 0)
(664 -5.10366e-14 0)
(664 -8.65303e-14 0)
(664 -1.5514e-13 0)
(664 -2.3068e-13 0)
(664 -2.93383e-13 0)
(664 -3.7134e-13 0)
(664 -4.47089e-13 0)
(664 -5.24079e-13 0)
(664 -5.83967e-13 0)
(664 -6.49905e-13 0)
(664 -6.97573e-13 0)
(664 -7.25738e-13 0)
(664 -7.51257e-13 0)
(664 -7.5054e-13 0)
(664 -7.35051e-13 0)
(664 -7.00399e-13 0)
(664 -6.6575e-13 0)
(664 -6.46141e-13 0)
(664 -6.21847e-13 0)
(664 -5.74824e-13 0)
(664 -5.33863e-13 0)
(664 -4.99487e-13 0)
(664 -4.76416e-13 0)
(664 -4.4952e-13 0)
(664 -4.26868e-13 0)
(664 -3.99084e-13 0)
(664 -3.43729e-13 0)
(664 -2.91886e-13 0)
(664 -2.39315e-13 0)
(664 -1.97451e-13 0)
(664 -1.82385e-13 0)
(664 -1.76391e-13 0)
(664 -1.84215e-13 0)
(664 -2.12387e-13 0)
(664 -2.3325e-13 0)
(664 -2.49735e-13 0)
(664 -2.59735e-13 0)
(664 -2.71578e-13 0)
(664 -2.7908e-13 0)
(664 -2.83316e-13 0)
(664 -2.809e-13 0)
(664 -2.69852e-13 0)
(664 -2.73101e-13 0)
(664 -2.71639e-13 0)
(664 -2.81384e-13 0)
(664 -3.06625e-13 0)
(664 -3.28962e-13 0)
(664 -3.68841e-13 0)
(664 -4.19318e-13 0)
(664 -4.70183e-13 0)
(664 -4.95815e-13 0)
(664 -5.14565e-13 0)
(664 -5.23898e-13 0)
(664 -5.27832e-13 0)
(664 -5.30171e-13 0)
(664 -5.30556e-13 0)
(664 -5.50059e-13 0)
(664 -5.53386e-13 0)
(664 -5.61057e-13 0)
(664 -5.72634e-13 0)
(664 -6.00637e-13 0)
(664 -6.36248e-13 0)
(664 -6.66025e-13 0)
(664 -6.98359e-13 0)
(664 -7.453e-13 0)
(664 -7.96533e-13 0)
(664 -8.35914e-13 0)
(664 -8.63092e-13 0)
(664 -8.72854e-13 0)
(664 -8.83203e-13 0)
(664 -8.64635e-13 0)
(664 -8.344e-13 0)
(664 -8.30501e-13 0)
(664 -8.20644e-13 0)
(664 -8.06374e-13 0)
(664 -7.96597e-13 0)
(664 -7.90284e-13 0)
(664 -7.84559e-13 0)
(664 -7.71269e-13 0)
(664 -7.57737e-13 0)
(664 -7.47022e-13 0)
(664 -7.31012e-13 0)
(664 -7.10135e-13 0)
(664 -6.98235e-13 0)
(664 -7.00539e-13 0)
(664 -6.9787e-13 0)
(664 -6.93262e-13 0)
(664 -7.11007e-13 0)
(664 -7.07376e-13 0)
(664 -7.18129e-13 0)
(664 -7.213e-13 0)
(664 -7.46158e-13 0)
(664 -8.18808e-13 0)
(664 -8.78314e-13 0)
(664 -9.29371e-13 0)
(664 -9.58371e-13 0)
(664 -9.55184e-13 0)
(664 -9.50176e-13 0)
(664 -9.44433e-13 0)
(664 -9.5802e-13 0)
(664 -9.67935e-13 0)
(664 -9.80903e-13 0)
(664 -9.55026e-13 0)
(664 -9.35034e-13 0)
(664 -9.32358e-13 0)
(664 -9.19552e-13 0)
(664 -9.08681e-13 0)
(664 -9.05543e-13 0)
(664 -8.97604e-13 0)
(664 -8.81346e-13 0)
(664 -8.85404e-13 0)
(664 -8.99951e-13 0)
(664 -9.21959e-13 0)
(664 -9.34401e-13 0)
(664 -9.29135e-13 0)
(664 -9.14269e-13 0)
(664 -8.97956e-13 0)
(664 -8.84257e-13 0)
(664 -8.76659e-13 0)
(664 -8.70683e-13 0)
(664 -8.43035e-13 0)
(664 -8.17746e-13 0)
(664 -7.94139e-13 0)
(664 -7.58769e-13 0)
(664 -7.34291e-13 0)
(664 -7.29412e-13 0)
(664 -7.41806e-13 0)
(664 -7.8053e-13 0)
(664 -8.19608e-13 0)
(664 -8.61872e-13 0)
(664 -9.11318e-13 0)
(664 -9.5222e-13 0)
(664 -9.8092e-13 0)
(664 -9.93806e-13 0)
(664 -1.00266e-12 0)
(664 -9.79485e-13 0)
(664 -9.5986e-13 0)
(664 -9.69192e-13 0)
(664 -9.68094e-13 0)
(664 -9.52631e-13 0)
(664 -9.25171e-13 0)
(664 -8.89221e-13 0)
(664 -8.78823e-13 0)
(664 -8.83467e-13 0)
(664 -8.94662e-13 0)
(664 -9.12479e-13 0)
(664 -9.47273e-13 0)
(664 -9.51837e-13 0)
(664 -9.63882e-13 0)
(664 -9.87462e-13 0)
(664 -9.87226e-13 0)
(664 -9.83942e-13 0)
(664 -9.94506e-13 0)
(664 -1.02167e-12 0)
(664 -1.05262e-12 0)
(664 -1.08398e-12 0)
(664 -1.10828e-12 0)
(664 -1.11194e-12 0)
(664 -1.11301e-12 0)
(664 -1.12852e-12 0)
(664 -1.14848e-12 0)
(664 -1.1648e-12 0)
(664 -1.16343e-12 0)
(664 -1.1682e-12 0)
(664 -1.17436e-12 0)
(664 -1.16577e-12 0)
(664 -1.16624e-12 0)
(664 -1.15688e-12 0)
(664 -1.13094e-12 0)
(664 -1.0926e-12 0)
(664 -1.04906e-12 0)
(664 -1.02207e-12 0)
(664 -1.00583e-12 0)
(664 -9.9445e-13 0)
(664 -9.47723e-13 0)
(664 -8.96569e-13 0)
(664 -8.67812e-13 0)
(664 -8.5105e-13 0)
(664 -8.5509e-13 0)
(664 -8.37245e-13 0)
(664 -8.18076e-13 0)
(664 -7.93222e-13 0)
(664 -7.86737e-13 0)
(664 -7.86174e-13 0)
(664 -7.74502e-13 0)
(664 -7.44206e-13 0)
(664 -6.99571e-13 0)
(664 -6.56928e-13 0)
(664 -6.12804e-13 0)
(664 -5.86389e-13 0)
(664 -5.53715e-13 0)
(664 -5.26638e-13 0)
(664 -5.06602e-13 0)
(664 -4.80483e-13 0)
(664 -4.7739e-13 0)
(664 -4.75256e-13 0)
(664 -4.62689e-13 0)
(664 -4.59972e-13 0)
(664 -4.50489e-13 0)
(664 -4.49011e-13 0)
(664 -4.46873e-13 0)
(664 -4.51146e-13 0)
(664 -4.62258e-13 0)
(664 -4.8634e-13 0)
(664 -5.19555e-13 0)
(664 -5.42421e-13 0)
(664 -5.82568e-13 0)
(664 -6.2308e-13 0)
(664 -6.5722e-13 0)
(664 -6.95993e-13 0)
(664 -7.32319e-13 0)
(664 -7.53068e-13 0)
(664 -7.88911e-13 0)
(664 -8.16031e-13 0)
(664 -8.57733e-13 0)
(664 -8.96106e-13 0)
(664 -9.28572e-13 0)
(664 -9.58638e-13 0)
(664 -9.73428e-13 0)
(664 -9.67406e-13 0)
(664 -9.38516e-13 0)
(664 -9.10951e-13 0)
(664 -8.69797e-13 0)
(664 -8.15922e-13 0)
(664 -7.49282e-13 0)
(664 -6.57682e-13 0)
(664 -5.8416e-13 0)
(664 -5.32661e-13 0)
(664 -4.5891e-13 0)
(664 -4.00585e-13 0)
(664 -3.69426e-13 0)
(664 -3.48418e-13 0)
(664 -3.18576e-13 0)
(664 -2.1734e-13 0)
(664 -1.47011e-14 0)
(664 3.40366e-13 0)
(664 9.18192e-13 0)
(664 1.89159e-12 0)
(664 3.54467e-12 0)
(664 6.29162e-12 0)
(664 1.09055e-11 0)
(664 1.86207e-11 0)
(664 3.14982e-11 0)
(664 5.3073e-11 0)
(664 8.92008e-11 0)
(664 1.4973e-10 0)
(664 2.51212e-10 0)
(664 4.21375e-10 0)
(664 7.06797e-10 0)
(664 1.18566e-09 0)
(664 1.9895e-09 0)
(664 3.33934e-09 0)
(664 5.60743e-09 0)
(664 9.42004e-09 0)
(664 1.58331e-08 0)
(664 2.66249e-08 0)
(664 4.47979e-08 0)
(664 7.5415e-08 0)
(664 1.27035e-07 0)
(664 2.14109e-07 0)
(664 3.61101e-07 0)
(664 6.09381e-07 0)
(664 1.02908e-06 0)
(664 1.73898e-06 0)
(664 2.94074e-06 0)
(664 4.97652e-06 0)
(664 8.42816e-06 0)
(664 1.42845e-05 0)
(664 2.42302e-05 0)
(664 4.11335e-05 0)
(663.999 6.98901e-05 0)
(663.999 0.000118851 0)
(663.998 0.0002023 0)
(663.997 0.000344649 0)
(663.996 0.000587739 0)
(663.993 0.00100323 0)
(663.988 0.00171423 0)
(663.981 0.00293201 0)
(663.969 0.00502034 0)
(663.949 0.00860501 0)
(663.915 0.0147659 0)
(663.861 0.0253649 0)
(663.771 0.043623 0)
(663.624 0.0751061 0)
(663.383 0.129467 0)
(662.987 0.223412 0)
(662.339 0.386001 0)
(661.279 0.667555 0)
(659.551 1.15607 0)
(656.744 2.0027 0)
(652.209 3.47222 0)
(644.936 6.00699 0)
(633.332 10.4051 0)
(616.177 17.8604 0)
(664 -8.72024e-15 0)
(664 -1.6718e-14 0)
(664 -1.10479e-14 0)
(664 -3.9162e-15 0)
(664 1.12541e-14 0)
(664 2.99435e-14 0)
(664 2.8757e-14 0)
(664 2.02376e-14 0)
(664 7.38475e-15 0)
(664 -1.21372e-14 0)
(664 -4.31696e-14 0)
(664 -6.30188e-14 0)
(664 -6.89182e-14 0)
(664 -8.00319e-14 0)
(664 -7.10752e-14 0)
(664 -6.13075e-14 0)
(664 -7.4302e-14 0)
(664 -9.07687e-14 0)
(664 -1.2323e-13 0)
(664 -1.63044e-13 0)
(664 -2.02241e-13 0)
(664 -2.57727e-13 0)
(664 -3.10668e-13 0)
(664 -3.60779e-13 0)
(664 -4.00827e-13 0)
(664 -4.27987e-13 0)
(664 -4.64005e-13 0)
(664 -4.7369e-13 0)
(664 -4.63248e-13 0)
(664 -4.52963e-13 0)
(664 -4.36485e-13 0)
(664 -4.16431e-13 0)
(664 -4.11239e-13 0)
(664 -3.87518e-13 0)
(664 -3.67333e-13 0)
(664 -3.49223e-13 0)
(664 -3.0184e-13 0)
(664 -2.57729e-13 0)
(664 -2.09945e-13 0)
(664 -1.65808e-13 0)
(664 -1.21312e-13 0)
(664 -7.38878e-14 0)
(664 -6.37242e-14 0)
(664 -7.38564e-14 0)
(664 -9.28383e-14 0)
(664 -1.31074e-13 0)
(664 -1.722e-13 0)
(664 -1.93676e-13 0)
(664 -1.98867e-13 0)
(664 -2.28309e-13 0)
(664 -2.55899e-13 0)
(664 -2.73916e-13 0)
(664 -3.22599e-13 0)
(664 -3.76791e-13 0)
(664 -4.26408e-13 0)
(664 -4.51868e-13 0)
(664 -4.50147e-13 0)
(664 -4.44386e-13 0)
(664 -4.39649e-13 0)
(664 -4.57472e-13 0)
(664 -4.90771e-13 0)
(664 -5.12121e-13 0)
(664 -5.44197e-13 0)
(664 -5.58988e-13 0)
(664 -5.7122e-13 0)
(664 -5.92688e-13 0)
(664 -6.25699e-13 0)
(664 -6.58513e-13 0)
(664 -6.79182e-13 0)
(664 -6.90662e-13 0)
(664 -6.82853e-13 0)
(664 -6.45767e-13 0)
(664 -6.24029e-13 0)
(664 -6.0688e-13 0)
(664 -6.02806e-13 0)
(664 -6.04768e-13 0)
(664 -6.24625e-13 0)
(664 -6.47906e-13 0)
(664 -6.68398e-13 0)
(664 -6.82018e-13 0)
(664 -6.96034e-13 0)
(664 -7.20364e-13 0)
(664 -7.50934e-13 0)
(664 -7.89208e-13 0)
(664 -8.23452e-13 0)
(664 -8.61006e-13 0)
(664 -8.88073e-13 0)
(664 -8.92441e-13 0)
(664 -8.98549e-13 0)
(664 -8.85433e-13 0)
(664 -8.62219e-13 0)
(664 -8.20172e-13 0)
(664 -7.80895e-13 0)
(664 -7.49679e-13 0)
(664 -7.34057e-13 0)
(664 -7.11542e-13 0)
(664 -6.90565e-13 0)
(664 -6.68023e-13 0)
(664 -6.59841e-13 0)
(664 -6.60103e-13 0)
(664 -6.54603e-13 0)
(664 -6.67043e-13 0)
(664 -6.84767e-13 0)
(664 -6.89103e-13 0)
(664 -6.98638e-13 0)
(664 -6.92786e-13 0)
(664 -7.08196e-13 0)
(664 -7.08901e-13 0)
(664 -7.17434e-13 0)
(664 -7.34216e-13 0)
(664 -7.55592e-13 0)
(664 -7.6458e-13 0)
(664 -7.73683e-13 0)
(664 -7.90037e-13 0)
(664 -7.86788e-13 0)
(664 -7.91445e-13 0)
(664 -8.13854e-13 0)
(664 -8.35647e-13 0)
(664 -8.60543e-13 0)
(664 -8.77735e-13 0)
(664 -8.84895e-13 0)
(664 -8.76374e-13 0)
(664 -8.57645e-13 0)
(664 -8.28806e-13 0)
(664 -8.15028e-13 0)
(664 -8.19797e-13 0)
(664 -8.2607e-13 0)
(664 -8.4443e-13 0)
(664 -8.49024e-13 0)
(664 -8.36172e-13 0)
(664 -8.27601e-13 0)
(664 -8.29493e-13 0)
(664 -8.63305e-13 0)
(664 -8.94257e-13 0)
(664 -9.30918e-13 0)
(664 -9.62055e-13 0)
(664 -9.89472e-13 0)
(664 -1.03548e-12 0)
(664 -1.07971e-12 0)
(664 -1.12626e-12 0)
(664 -1.154e-12 0)
(664 -1.16887e-12 0)
(664 -1.15847e-12 0)
(664 -1.14348e-12 0)
(664 -1.10622e-12 0)
(664 -1.05816e-12 0)
(664 -1.02344e-12 0)
(664 -1.01034e-12 0)
(664 -1.02373e-12 0)
(664 -1.05558e-12 0)
(664 -1.10263e-12 0)
(664 -1.1247e-12 0)
(664 -1.10351e-12 0)
(664 -1.09205e-12 0)
(664 -1.07004e-12 0)
(664 -1.07615e-12 0)
(664 -1.12569e-12 0)
(664 -1.17398e-12 0)
(664 -1.23159e-12 0)
(664 -1.29102e-12 0)
(664 -1.33408e-12 0)
(664 -1.36569e-12 0)
(664 -1.38766e-12 0)
(664 -1.37631e-12 0)
(664 -1.36977e-12 0)
(664 -1.36526e-12 0)
(664 -1.35768e-12 0)
(664 -1.34694e-12 0)
(664 -1.34966e-12 0)
(664 -1.34935e-12 0)
(664 -1.3586e-12 0)
(664 -1.3696e-12 0)
(664 -1.34441e-12 0)
(664 -1.32531e-12 0)
(664 -1.29411e-12 0)
(664 -1.26305e-12 0)
(664 -1.24345e-12 0)
(664 -1.19863e-12 0)
(664 -1.14355e-12 0)
(664 -1.08049e-12 0)
(664 -1.04002e-12 0)
(664 -1.01444e-12 0)
(664 -9.76089e-13 0)
(664 -9.48069e-13 0)
(664 -9.07941e-13 0)
(664 -8.68219e-13 0)
(664 -8.29192e-13 0)
(664 -7.90127e-13 0)
(664 -7.56622e-13 0)
(664 -7.32644e-13 0)
(664 -7.17229e-13 0)
(664 -7.04379e-13 0)
(664 -6.90538e-13 0)
(664 -6.69531e-13 0)
(664 -6.44115e-13 0)
(664 -6.1107e-13 0)
(664 -6.02638e-13 0)
(664 -5.9965e-13 0)
(664 -6.03886e-13 0)
(664 -6.41157e-13 0)
(664 -6.85173e-13 0)
(664 -7.37419e-13 0)
(664 -7.68302e-13 0)
(664 -7.9238e-13 0)
(664 -8.0621e-13 0)
(664 -8.13758e-13 0)
(664 -8.19447e-13 0)
(664 -8.15865e-13 0)
(664 -7.78216e-13 0)
(664 -7.16666e-13 0)
(664 -6.62156e-13 0)
(664 -5.96743e-13 0)
(664 -5.45117e-13 0)
(664 -5.03421e-13 0)
(664 -4.78251e-13 0)
(664 -4.76479e-13 0)
(664 -4.80595e-13 0)
(664 -5.09019e-13 0)
(664 -5.18644e-13 0)
(664 -5.32722e-13 0)
(664 -5.48333e-13 0)
(664 -5.62492e-13 0)
(664 -5.8618e-13 0)
(664 -5.95769e-13 0)
(664 -6.13787e-13 0)
(664 -6.19715e-13 0)
(664 -6.12448e-13 0)
(664 -6.09689e-13 0)
(664 -6.05721e-13 0)
(664 -5.85153e-13 0)
(664 -5.72013e-13 0)
(664 -5.48027e-13 0)
(664 -5.2522e-13 0)
(664 -4.88695e-13 0)
(664 -4.56526e-13 0)
(664 -4.15643e-13 0)
(664 -3.569e-13 0)
(664 -2.77949e-13 0)
(664 -1.63917e-13 0)
(664 9.59584e-15 0)
(664 2.94123e-13 0)
(664 7.73122e-13 0)
(664 1.60392e-12 0)
(664 2.9907e-12 0)
(664 5.35037e-12 0)
(664 9.32054e-12 0)
(664 1.59681e-11 0)
(664 2.70523e-11 0)
(664 4.55446e-11 0)
(664 7.63848e-11 0)
(664 1.27841e-10 0)
(664 2.13684e-10 0)
(664 3.56984e-10 0)
(664 5.96216e-10 0)
(664 9.95731e-10 0)
(664 1.663e-09 0)
(664 2.77786e-09 0)
(664 4.64082e-09 0)
(664 7.75492e-09 0)
(664 1.29612e-08 0)
(664 2.16685e-08 0)
(664 3.62335e-08 0)
(664 6.06058e-08 0)
(664 1.01395e-07 0)
(664 1.69687e-07 0)
(664 2.8404e-07 0)
(664 4.75593e-07 0)
(664 7.9651e-07 0)
(664 1.33435e-06 0)
(664 2.23587e-06 0)
(664 3.74752e-06 0)
(664 6.28249e-06 0)
(664 1.0535e-05 0)
(664 1.76693e-05 0)
(664 2.96423e-05 0)
(664 4.97369e-05 0)
(664 8.34716e-05 0)
(663.999 0.000140107 0)
(663.999 0.000235211 0)
(663.998 0.000394908 0)
(663.997 0.000663119 0)
(663.995 0.00111353 0)
(663.991 0.00187 0)
(663.986 0.00314026 0)
(663.976 0.00527327 0)
(663.961 0.00885391 0)
(663.937 0.0148639 0)
(663.898 0.0249469 0)
(663.833 0.0418581 0)
(663.729 0.0702027 0)
(663.56 0.117684 0)
(663.285 0.197146 0)
(662.842 0.329996 0)
(662.128 0.551788 0)
(660.978 0.921476 0)
(659.138 1.53615 0)
(656.206 2.55406 0)
(651.568 4.23074 0)
(644.245 6.97247 0)
(633.454 11.4157 0)
(664 8.87671e-15 0)
(664 3.4342e-14 0)
(664 3.58046e-14 0)
(664 5.51447e-14 0)
(664 6.42144e-14 0)
(664 6.60822e-14 0)
(664 9.16964e-14 0)
(664 1.14742e-13 0)
(664 1.33484e-13 0)
(664 1.63745e-13 0)
(664 2.07152e-13 0)
(664 2.53747e-13 0)
(664 2.70478e-13 0)
(664 2.80868e-13 0)
(664 2.56989e-13 0)
(664 2.27552e-13 0)
(664 1.77939e-13 0)
(664 1.24253e-13 0)
(664 7.94771e-14 0)
(664 1.60889e-14 0)
(664 -7.33513e-14 0)
(664 -1.65501e-13 0)
(664 -2.57394e-13 0)
(664 -3.51248e-13 0)
(664 -4.35051e-13 0)
(664 -5.23784e-13 0)
(664 -6.15461e-13 0)
(664 -6.82456e-13 0)
(664 -7.46392e-13 0)
(664 -7.94157e-13 0)
(664 -8.13797e-13 0)
(664 -8.40464e-13 0)
(664 -8.74931e-13 0)
(664 -9.02834e-13 0)
(664 -9.27553e-13 0)
(664 -9.30717e-13 0)
(664 -9.1699e-13 0)
(664 -8.93511e-13 0)
(664 -8.7852e-13 0)
(664 -8.45357e-13 0)
(664 -8.07476e-13 0)
(664 -7.94661e-13 0)
(664 -7.91857e-13 0)
(664 -8.05745e-13 0)
(664 -8.28569e-13 0)
(664 -8.37306e-13 0)
(664 -8.37934e-13 0)
(664 -8.14659e-13 0)
(664 -7.86277e-13 0)
(664 -7.51323e-13 0)
(664 -7.07091e-13 0)
(664 -6.48585e-13 0)
(664 -5.75421e-13 0)
(664 -4.92385e-13 0)
(664 -4.09476e-13 0)
(664 -3.34931e-13 0)
(664 -2.7926e-13 0)
(664 -2.20691e-13 0)
(664 -1.91273e-13 0)
(664 -1.69484e-13 0)
(664 -1.50912e-13 0)
(664 -1.55031e-13 0)
(664 -1.43621e-13 0)
(664 -1.56618e-13 0)
(664 -1.73141e-13 0)
(664 -1.84455e-13 0)
(664 -1.88548e-13 0)
(664 -2.01435e-13 0)
(664 -2.30543e-13 0)
(664 -2.79172e-13 0)
(664 -3.16148e-13 0)
(664 -3.51312e-13 0)
(664 -3.66037e-13 0)
(664 -3.8912e-13 0)
(664 -4.16588e-13 0)
(664 -4.29264e-13 0)
(664 -4.76564e-13 0)
(664 -5.22357e-13 0)
(664 -5.46152e-13 0)
(664 -5.86163e-13 0)
(664 -6.36998e-13 0)
(664 -6.66076e-13 0)
(664 -7.06943e-13 0)
(664 -7.49556e-13 0)
(664 -8.05392e-13 0)
(664 -8.66777e-13 0)
(664 -9.32752e-13 0)
(664 -9.8949e-13 0)
(664 -1.02248e-12 0)
(664 -1.06057e-12 0)
(664 -1.08735e-12 0)
(664 -1.12523e-12 0)
(664 -1.17489e-12 0)
(664 -1.20673e-12 0)
(664 -1.23647e-12 0)
(664 -1.27373e-12 0)
(664 -1.31104e-12 0)
(664 -1.33255e-12 0)
(664 -1.33969e-12 0)
(664 -1.33712e-12 0)
(664 -1.3272e-12 0)
(664 -1.32264e-12 0)
(664 -1.3262e-12 0)
(664 -1.31015e-12 0)
(664 -1.30074e-12 0)
(664 -1.27364e-12 0)
(664 -1.23894e-12 0)
(664 -1.21449e-12 0)
(664 -1.20316e-12 0)
(664 -1.1839e-12 0)
(664 -1.1603e-12 0)
(664 -1.13851e-12 0)
(664 -1.11414e-12 0)
(664 -1.07177e-12 0)
(664 -1.02999e-12 0)
(664 -9.84447e-13 0)
(664 -9.23313e-13 0)
(664 -8.60916e-13 0)
(664 -7.87258e-13 0)
(664 -7.12582e-13 0)
(664 -6.69268e-13 0)
(664 -6.53645e-13 0)
(664 -6.55209e-13 0)
(664 -6.90087e-13 0)
(664 -7.15549e-13 0)
(664 -7.50731e-13 0)
(664 -8.25369e-13 0)
(664 -8.96661e-13 0)
(664 -9.70528e-13 0)
(664 -1.02286e-12 0)
(664 -1.04633e-12 0)
(664 -1.0586e-12 0)
(664 -1.04545e-12 0)
(664 -1.02928e-12 0)
(664 -1.00483e-12 0)
(664 -9.73925e-13 0)
(664 -9.64361e-13 0)
(664 -9.59273e-13 0)
(664 -9.6961e-13 0)
(664 -9.91988e-13 0)
(664 -1.01346e-12 0)
(664 -1.02187e-12 0)
(664 -1.02343e-12 0)
(664 -9.99105e-13 0)
(664 -9.7367e-13 0)
(664 -9.52584e-13 0)
(664 -9.35814e-13 0)
(664 -9.25676e-13 0)
(664 -9.20937e-13 0)
(664 -9.20791e-13 0)
(664 -9.13662e-13 0)
(664 -9.09599e-13 0)
(664 -9.11189e-13 0)
(664 -8.9738e-13 0)
(664 -8.82873e-13 0)
(664 -8.74923e-13 0)
(664 -8.68609e-13 0)
(664 -8.76112e-13 0)
(664 -8.79891e-13 0)
(664 -8.88629e-13 0)
(664 -8.97071e-13 0)
(664 -9.21501e-13 0)
(664 -9.53246e-13 0)
(664 -9.98039e-13 0)
(664 -1.05482e-12 0)
(664 -1.08583e-12 0)
(664 -1.1006e-12 0)
(664 -1.12281e-12 0)
(664 -1.14118e-12 0)
(664 -1.17418e-12 0)
(664 -1.21478e-12 0)
(664 -1.25012e-12 0)
(664 -1.28979e-12 0)
(664 -1.30431e-12 0)
(664 -1.32634e-12 0)
(664 -1.35487e-12 0)
(664 -1.38841e-12 0)
(664 -1.43645e-12 0)
(664 -1.46137e-12 0)
(664 -1.48072e-12 0)
(664 -1.49223e-12 0)
(664 -1.46116e-12 0)
(664 -1.43245e-12 0)
(664 -1.36845e-12 0)
(664 -1.28629e-12 0)
(664 -1.22231e-12 0)
(664 -1.14876e-12 0)
(664 -1.07165e-12 0)
(664 -9.81162e-13 0)
(664 -8.85132e-13 0)
(664 -8.06483e-13 0)
(664 -7.59656e-13 0)
(664 -7.31058e-13 0)
(664 -6.88459e-13 0)
(664 -6.39317e-13 0)
(664 -5.91106e-13 0)
(664 -5.69889e-13 0)
(664 -5.74407e-13 0)
(664 -5.86066e-13 0)
(664 -6.13098e-13 0)
(664 -6.47951e-13 0)
(664 -6.68017e-13 0)
(664 -7.10118e-13 0)
(664 -7.30173e-13 0)
(664 -7.69089e-13 0)
(664 -8.18522e-13 0)
(664 -8.47264e-13 0)
(664 -8.6694e-13 0)
(664 -9.06282e-13 0)
(664 -9.40561e-13 0)
(664 -9.63949e-13 0)
(664 -9.65086e-13 0)
(664 -9.14493e-13 0)
(664 -8.77922e-13 0)
(664 -8.319e-13 0)
(664 -7.85197e-13 0)
(664 -7.51426e-13 0)
(664 -7.20597e-13 0)
(664 -6.85793e-13 0)
(664 -6.47852e-13 0)
(664 -6.17791e-13 0)
(664 -5.94985e-13 0)
(664 -5.62878e-13 0)
(664 -5.5077e-13 0)
(664 -5.42668e-13 0)
(664 -5.53268e-13 0)
(664 -5.85682e-13 0)
(664 -6.04435e-13 0)
(664 -6.43391e-13 0)
(664 -6.91496e-13 0)
(664 -7.36628e-13 0)
(664 -8.00847e-13 0)
(664 -8.48651e-13 0)
(664 -8.92592e-13 0)
(664 -9.23681e-13 0)
(664 -9.25007e-13 0)
(664 -9.02121e-13 0)
(664 -8.21042e-13 0)
(664 -6.71809e-13 0)
(664 -4.43363e-13 0)
(664 -7.46763e-14 0)
(664 5.17787e-13 0)
(664 1.51928e-12 0)
(664 3.17594e-12 0)
(664 5.93359e-12 0)
(664 1.05357e-11 0)
(664 1.81459e-11 0)
(664 3.0772e-11 0)
(664 5.17595e-11 0)
(664 8.66221e-11 0)
(664 1.44541e-10 0)
(664 2.40811e-10 0)
(664 4.00756e-10 0)
(664 6.66494e-10 0)
(664 1.10814e-09 0)
(664 1.84207e-09 0)
(664 3.06198e-09 0)
(664 5.08957e-09 0)
(664 8.46015e-09 0)
(664 1.4063e-08 0)
(664 2.33782e-08 0)
(664 3.88643e-08 0)
(664 6.46132e-08 0)
(664 1.07423e-07 0)
(664 1.78607e-07 0)
(664 2.96959e-07 0)
(664 4.93755e-07 0)
(664 8.20949e-07 0)
(664 1.36498e-06 0)
(664 2.26941e-06 0)
(664 3.77306e-06 0)
(664 6.27244e-06 0)
(664 1.04269e-05 0)
(664 1.7331e-05 0)
(664 2.88036e-05 0)
(664 4.78625e-05 0)
(664 7.95207e-05 0)
(663.999 0.000132088 0)
(663.999 0.00021936 0)
(663.999 0.000364183 0)
(663.998 0.000604445 0)
(663.996 0.00100283 0)
(663.994 0.00166315 0)
(663.99 0.00275691 0)
(663.983 0.00456771 0)
(663.973 0.00756322 0)
(663.956 0.0125152 0)
(663.929 0.0206933 0)
(663.885 0.0341873 0)
(663.815 0.0564254 0)
(663.703 0.0930297 0)
(663.522 0.153187 0)
(663.233 0.251886 0)
(662.77 0.41349 0)
(662.032 0.677445 0)
(660.859 1.10729 0)
(659.001 1.80392 0)
(656.072 2.92722 0)
(651.439 4.72345 0)
(644.547 7.57713 0)
(664 1.45649e-14 0)
(664 1.96011e-14 0)
(664 2.52408e-14 0)
(664 2.89899e-14 0)
(664 3.54772e-14 0)
(664 4.53393e-14 0)
(664 6.39393e-14 0)
(664 8.63454e-14 0)
(664 1.13874e-13 0)
(664 1.49669e-13 0)
(664 1.83986e-13 0)
(664 2.19802e-13 0)
(664 2.72715e-13 0)
(664 3.18477e-13 0)
(664 3.54302e-13 0)
(664 3.89227e-13 0)
(664 4.26124e-13 0)
(664 4.62498e-13 0)
(664 4.79848e-13 0)
(664 4.90164e-13 0)
(664 5.02018e-13 0)
(664 5.02026e-13 0)
(664 5.01122e-13 0)
(664 4.69136e-13 0)
(664 4.13802e-13 0)
(664 3.59076e-13 0)
(664 3.07102e-13 0)
(664 2.48754e-13 0)
(664 2.0933e-13 0)
(664 1.61499e-13 0)
(664 1.15341e-13 0)
(664 7.92193e-14 0)
(664 6.03627e-14 0)
(664 3.74771e-14 0)
(664 1.07347e-14 0)
(664 -3.19042e-15 0)
(664 -3.05421e-14 0)
(664 -6.39691e-14 0)
(664 -1.15368e-13 0)
(664 -1.79865e-13 0)
(664 -2.50259e-13 0)
(664 -3.28619e-13 0)
(664 -4.04528e-13 0)
(664 -4.58749e-13 0)
(664 -5.10418e-13 0)
(664 -5.60481e-13 0)
(664 -5.83362e-13 0)
(664 -6.34058e-13 0)
(664 -6.69236e-13 0)
(664 -6.69829e-13 0)
(664 -6.4057e-13 0)
(664 -6.37725e-13 0)
(664 -6.30247e-13 0)
(664 -6.26609e-13 0)
(664 -6.25088e-13 0)
(664 -6.35468e-13 0)
(664 -6.62907e-13 0)
(664 -7.09506e-13 0)
(664 -7.46598e-13 0)
(664 -7.64608e-13 0)
(664 -7.53155e-13 0)
(664 -7.25857e-13 0)
(664 -6.77347e-13 0)
(664 -6.53157e-13 0)
(664 -6.33987e-13 0)
(664 -6.22261e-13 0)
(664 -6.01051e-13 0)
(664 -5.75444e-13 0)
(664 -5.37359e-13 0)
(664 -4.94659e-13 0)
(664 -4.86046e-13 0)
(664 -4.89659e-13 0)
(664 -5.05499e-13 0)
(664 -5.24311e-13 0)
(664 -5.46322e-13 0)
(664 -5.72918e-13 0)
(664 -5.91393e-13 0)
(664 -6.10442e-13 0)
(664 -6.27939e-13 0)
(664 -6.60873e-13 0)
(664 -6.712e-13 0)
(664 -6.95464e-13 0)
(664 -7.09677e-13 0)
(664 -7.29923e-13 0)
(664 -7.63432e-13 0)
(664 -8.03132e-13 0)
(664 -8.5586e-13 0)
(664 -9.30952e-13 0)
(664 -9.89419e-13 0)
(664 -1.04358e-12 0)
(664 -1.09168e-12 0)
(664 -1.12784e-12 0)
(664 -1.16244e-12 0)
(664 -1.1859e-12 0)
(664 -1.21693e-12 0)
(664 -1.25371e-12 0)
(664 -1.29328e-12 0)
(664 -1.33394e-12 0)
(664 -1.36437e-12 0)
(664 -1.38594e-12 0)
(664 -1.39404e-12 0)
(664 -1.37694e-12 0)
(664 -1.34075e-12 0)
(664 -1.31042e-12 0)
(664 -1.27738e-12 0)
(664 -1.25192e-12 0)
(664 -1.22532e-12 0)
(664 -1.21872e-12 0)
(664 -1.22595e-12 0)
(664 -1.22035e-12 0)
(664 -1.22732e-12 0)
(664 -1.25802e-12 0)
(664 -1.27204e-12 0)
(664 -1.27571e-12 0)
(664 -1.26441e-12 0)
(664 -1.25741e-12 0)
(664 -1.25104e-12 0)
(664 -1.24278e-12 0)
(664 -1.23935e-12 0)
(664 -1.24751e-12 0)
(664 -1.24005e-12 0)
(664 -1.25067e-12 0)
(664 -1.26171e-12 0)
(664 -1.26159e-12 0)
(664 -1.26896e-12 0)
(664 -1.27228e-12 0)
(664 -1.27739e-12 0)
(664 -1.2872e-12 0)
(664 -1.30049e-12 0)
(664 -1.33388e-12 0)
(664 -1.37328e-12 0)
(664 -1.42223e-12 0)
(664 -1.44078e-12 0)
(664 -1.44581e-12 0)
(664 -1.43568e-12 0)
(664 -1.40787e-12 0)
(664 -1.36287e-12 0)
(664 -1.31201e-12 0)
(664 -1.24888e-12 0)
(664 -1.16859e-12 0)
(664 -1.1052e-12 0)
(664 -1.04462e-12 0)
(664 -9.9683e-13 0)
(664 -9.80977e-13 0)
(664 -9.81804e-13 0)
(664 -9.98109e-13 0)
(664 -1.01694e-12 0)
(664 -1.03643e-12 0)
(664 -1.03068e-12 0)
(664 -1.02361e-12 0)
(664 -9.91011e-13 0)
(664 -9.57666e-13 0)
(664 -9.57327e-13 0)
(664 -9.74039e-13 0)
(664 -1.00724e-12 0)
(664 -1.03247e-12 0)
(664 -1.03825e-12 0)
(664 -1.04523e-12 0)
(664 -1.05131e-12 0)
(664 -1.08091e-12 0)
(664 -1.12637e-12 0)
(664 -1.16407e-12 0)
(664 -1.20767e-12 0)
(664 -1.25088e-12 0)
(664 -1.28134e-12 0)
(664 -1.29866e-12 0)
(664 -1.31805e-12 0)
(664 -1.31139e-12 0)
(664 -1.2842e-12 0)
(664 -1.23554e-12 0)
(664 -1.18883e-12 0)
(664 -1.14891e-12 0)
(664 -1.12243e-12 0)
(664 -1.13553e-12 0)
(664 -1.15237e-12 0)
(664 -1.17121e-12 0)
(664 -1.18388e-12 0)
(664 -1.18832e-12 0)
(664 -1.18911e-12 0)
(664 -1.20403e-12 0)
(664 -1.19102e-12 0)
(664 -1.17614e-12 0)
(664 -1.15056e-12 0)
(664 -1.12765e-12 0)
(664 -1.12397e-12 0)
(664 -1.10239e-12 0)
(664 -1.09584e-12 0)
(664 -1.07465e-12 0)
(664 -1.07827e-12 0)
(664 -1.05653e-12 0)
(664 -1.00142e-12 0)
(664 -9.49132e-13 0)
(664 -8.87671e-13 0)
(664 -8.45411e-13 0)
(664 -8.48344e-13 0)
(664 -8.42789e-13 0)
(664 -8.25092e-13 0)