/*--------------------------------*- C++ -*----------------------------------*\
| =========                 |                                                 |
| \\      /  F ield         | OpenFOAM: The Open Source CFD Toolbox           |
|  \\    /   O peration     | Version:  2412                                  |
|   \\  /    A nd           | Website:  www.openfoam.com                      |
|    \\/     M anipulation  |                                                 |
\*---------------------------------------------------------------------------*/
FoamFile
{
    version     2.0;
    format      ascii;
    arch        "LSB;label=32;scalar=64";
    class       volVectorField;
    location    "0.001";
    object      U_0;
}
// * * * * * * * * * * * * * * * * * * * * * * * * * * * * * * * * * * * * * //

dimensions      [0 1 -1 0 0 0 0];

internalField   nonuniform List<vector> 
180000
(
(664 1.75572e-14 0)
(664 2.16391e-14 0)
(664 2.74695e-14 0)
(664 -9.50301e-15 0)
(664 -7.86677e-14 0)
(664 -1.53161e-13 0)
(664 -1.91608e-13 0)
(664 -1.70323e-13 0)
(664 -1.86721e-13 0)
(664 -2.24363e-13 0)
(664 -2.09418e-13 0)
(664 -2.57117e-13 0)
(664 -3.74703e-13 0)
(664 -4.96504e-13 0)
(664 -5.47095e-13 0)
(664 -5.84986e-13 0)
(664 -7.32493e-13 0)
(664 -8.12714e-13 0)
(664 -7.36234e-13 0)
(664 -6.20491e-13 0)
(664 -5.85968e-13 0)
(664 -6.20146e-13 0)
(664 -6.84228e-13 0)
(664 -7.12622e-13 0)
(664 -6.11494e-13 0)
(664 -4.75028e-13 0)
(664 -4.16598e-13 0)
(664 -4.51339e-13 0)
(664 -4.96467e-13 0)
(664 -5.44826e-13 0)
(664 -5.60394e-13 0)
(664 -6.33671e-13 0)
(664 -6.78166e-13 0)
(664 -6.62289e-13 0)
(664 -6.03183e-13 0)
(664 -6.03785e-13 0)
(664 -6.6438e-13 0)
(664 -7.19094e-13 0)
(664 -7.7398e-13 0)
(664 -7.95698e-13 0)
(664 -7.68443e-13 0)
(664 -7.57413e-13 0)
(664 -7.55875e-13 0)
(664 -7.93038e-13 0)
(664 -8.25984e-13 0)
(664 -8.30125e-13 0)
(664 -8.50369e-13 0)
(664 -8.4026e-13 0)
(664 -7.57337e-13 0)
(664 -6.6e-13 0)
(664 -6.08767e-13 0)
(664 -4.88876e-13 0)
(664 -3.28037e-13 0)
(664 -2.15323e-13 0)
(664 -2.40659e-13 0)
(664 -4.0441e-13 0)
(664 -6.00632e-13 0)
(664 -6.89785e-13 0)
(664 -6.89696e-13 0)
(664 -7.06772e-13 0)
(664 -7.23121e-13 0)
(664 -7.63481e-13 0)
(664 -8.88817e-13 0)
(664 -1.0254e-12 0)
(664 -1.03034e-12 0)
(664 -8.77589e-13 0)
(664 -5.68383e-13 0)
(664 -2.60296e-13 0)
(664 -2.96795e-14 0)
(664 6.94266e-14 0)
(664 7.71178e-14 0)
(664 6.45235e-14 0)
(664 -2.51352e-14 0)
(664 -1.08808e-13 0)
(664 -1.16702e-13 0)
(664 -3.56292e-14 0)
(664 6.36918e-14 0)
(664 1.00709e-13 0)
(664 9.95568e-14 0)
(664 2.63443e-14 0)
(664 -1.80739e-14 0)
(664 5.8695e-14 0)
(664 2.00261e-13 0)
(664 2.25428e-13 0)
(664 1.8566e-13 0)
(664 1.573e-13 0)
(664 6.48772e-14 0)
(664 -1.45556e-13 0)
(664 -3.4504e-13 0)
(664 -4.42307e-13 0)
(664 -4.10281e-13 0)
(664 -4.03795e-13 0)
(664 -4.16919e-13 0)
(664 -4.50446e-13 0)
(664 -4.29695e-13 0)
(664 -3.82488e-13 0)
(664 -4.37801e-13 0)
(664 -5.56009e-13 0)
(664 -7.27104e-13 0)
(664 -8.15901e-13 0)
(664 -8.55463e-13 0)
(664 -8.88096e-13 0)
(664 -9.03364e-13 0)
(664 -9.17785e-13 0)
(664 -9.95365e-13 0)
(664 -1.10248e-12 0)
(664 -1.15351e-12 0)
(664 -1.06312e-12 0)
(664 -8.52865e-13 0)
(664 -6.77503e-13 0)
(664 -6.33568e-13 0)
(664 -6.55094e-13 0)
(664 -6.90293e-13 0)
(664 -8.10967e-13 0)
(664 -9.68007e-13 0)
(664 -1.0629e-12 0)
(664 -1.1144e-12 0)
(664 -1.04254e-12 0)
(664 -8.78862e-13 0)
(664 -7.01888e-13 0)
(664 -5.95662e-13 0)
(664 -6.56792e-13 0)
(664 -7.84228e-13 0)
(664 -8.6518e-13 0)
(664 -7.87797e-13 0)
(664 -6.50953e-13 0)
(664 -5.34298e-13 0)
(664 -4.43765e-13 0)
(664 -2.84385e-13 0)
(664 -1.2154e-13 0)
(664 -1.21667e-13 0)
(664 -2.14316e-13 0)
(664 -1.8619e-13 0)
(664 8.93858e-16 0)
(664 1.30651e-13 0)
(664 1.89037e-13 0)
(664 2.87215e-13 0)
(664 4.80717e-13 0)
(664 6.54761e-13 0)
(664 7.80392e-13 0)
(664 7.95683e-13 0)
(664 7.92679e-13 0)
(664 8.06034e-13 0)
(664 7.97706e-13 0)
(664 7.81873e-13 0)
(664 7.76417e-13 0)
(664 7.48266e-13 0)
(664 6.98204e-13 0)
(664 5.01595e-13 0)
(664 1.878e-13 0)
(664 -1.32281e-13 0)
(664 -3.34428e-13 0)
(664 -4.13514e-13 0)
(664 -4.98448e-13 0)
(664 -5.94474e-13 0)
(664 -6.48065e-13 0)
(664 -5.35797e-13 0)
(664 -3.04346e-13 0)
(664 -8.58516e-14 0)
(664 2.16755e-14 0)
(664 5.84847e-15 0)
(664 2.55164e-15 0)
(664 3.39494e-14 0)
(664 4.54717e-14 0)
(664 1.2077e-14 0)
(664 7.38109e-15 0)
(664 1.84395e-15 0)
(664 -1.07185e-13 0)
(664 -2.09255e-13 0)
(664 -2.50596e-13 0)
(664 -2.33786e-13 0)
(664 -1.20137e-13 0)
(664 -3.40671e-14 0)
(664 5.04237e-15 0)
(664 5.34887e-14 0)
(664 4.70692e-14 0)
(664 1.61407e-14 0)
(664 2.14146e-14 0)
(664 7.03753e-14 0)
(664 1.20189e-13 0)
(664 1.50007e-13 0)
(664 1.59973e-13 0)
(664 1.86047e-13 0)
(664 2.01607e-13 0)
(664 2.3399e-13 0)
(664 2.49774e-13 0)
(664 1.92312e-13 0)
(664 6.69619e-14 0)
(664 -4.38564e-15 0)
(664 -3.7793e-14 0)
(664 -1.31405e-13 0)
(664 -2.2649e-13 0)
(664 -2.82136e-13 0)
(664 -2.15616e-13 0)
(664 -6.37487e-14 0)
(664 7.19616e-14 0)
(664 1.93512e-13 0)
(664 3.56393e-13 0)
(664 4.78999e-13 0)
(664 5.62443e-13 0)
(664 5.81566e-13 0)
(664 4.58244e-13 0)
(664 1.60859e-13 0)
(664 -1.31415e-13 0)
(664 -3.37449e-13 0)
(664 -4.30503e-13 0)
(664 -4.54878e-13 0)
(664 -5.29114e-13 0)
(664 -6.14178e-13 0)
(664 -5.88834e-13 0)
(664 -4.50129e-13 0)
(664 -2.5261e-13 0)
(664 -6.94878e-14 0)
(664 9.1503e-14 0)
(664 2.3013e-13 0)
(664 4.10537e-13 0)
(664 5.95157e-13 0)
(664 6.39793e-13 0)
(664 5.89621e-13 0)
(664 4.55974e-13 0)
(664 2.58503e-13 0)
(664 7.81272e-15 0)
(664 -1.59544e-13 0)
(664 -2.47867e-13 0)
(664 -2.04909e-13 0)
(664 -9.42989e-14 0)
(664 -5.58368e-14 0)
(664 1.27654e-14 0)
(664 1.52e-13 0)
(664 2.26388e-13 0)
(664 2.9338e-13 0)
(664 3.89336e-13 0)
(664 4.71681e-13 0)
(664 5.10195e-13 0)
(664 4.20219e-13 0)
(664 2.2277e-13 0)
(664 3.47928e-14 0)
(664 -5.51072e-14 0)
(664 -1.22738e-13 0)
(664 -1.13634e-13 0)
(664 -1.09811e-14 0)
(664 1.10338e-13 0)
(664 1.72908e-13 0)
(664 2.49726e-13 0)
(664 5.93071e-13 0)
(664 1.3959e-12 0)
(664 2.80795e-12 0)
(664 5.29965e-12 0)
(664 9.59561e-12 0)
(664 1.69585e-11 0)
(664 2.94238e-11 0)
(664 5.06088e-11 0)
(664 8.68526e-11 0)
(664 1.48898e-10 0)
(664 2.55251e-10 0)
(664 4.37496e-10 0)
(664 7.49411e-10 0)
(664 1.28286e-09 0)
(664 2.19466e-09 0)
(664 3.75186e-09 0)
(664 6.4103e-09 0)
(664 1.09466e-08 0)
(664 1.86835e-08 0)
(664 3.18744e-08 0)
(664 5.43632e-08 0)
(664 9.26961e-08 0)
(664 1.58027e-07 0)
(664 2.69376e-07 0)
(664 4.59206e-07 0)
(664 7.82876e-07 0)
(664 1.3349e-06 0)
(664 2.27682e-06 0)
(664 3.88489e-06 0)
(664 6.63167e-06 0)
(664 1.13268e-05 0)
(664 1.93587e-05 0)
(663.999 3.31111e-05 0)
(663.999 5.668e-05 0)
(663.998 9.71158e-05 0)
(663.997 0.000166569 0)
(663.995 0.000286012 0)
(663.991 0.000491691 0)
(663.986 0.000846363 0)
(663.976 0.00145886 0)
(663.96 0.00251825 0)
(663.934 0.00435351 0)
(663.89 0.00753828 0)
(663.818 0.0130744 0)
(663.698 0.0227152 0)
(663.498 0.0395348 0)
(663.166 0.068936 0)
(662.613 0.120426 0)
(661.693 0.210798 0)
(660.159 0.369697 0)
(657.602 0.649896 0)
(653.337 1.14455 0)
(646.238 2.02201 0)
(634.433 3.57499 0)
(615.103 6.35089 0)
(584.448 11.217 0)
(664 -2.61081e-15 0)
(664 -7.19929e-15 0)
(664 -1.86515e-14 0)
(664 -4.4868e-15 0)
(664 -3.98216e-14 0)
(664 -1.14976e-13 0)
(664 -1.7754e-13 0)
(664 -1.8417e-13 0)
(664 -2.01601e-13 0)
(664 -2.49892e-13 0)
(664 -2.98874e-13 0)
(664 -3.78871e-13 0)
(664 -4.55739e-13 0)
(664 -5.04793e-13 0)
(664 -4.94262e-13 0)
(664 -4.83253e-13 0)
(664 -5.8379e-13 0)
(664 -6.44717e-13 0)
(664 -5.32651e-13 0)
(664 -4.48927e-13 0)
(664 -4.74379e-13 0)
(664 -5.37106e-13 0)
(664 -6.24119e-13 0)
(664 -7.24898e-13 0)
(664 -7.98905e-13 0)
(664 -7.52753e-13 0)
(664 -6.95336e-13 0)
(664 -6.80491e-13 0)
(664 -7.18209e-13 0)
(664 -7.65945e-13 0)
(664 -8.24688e-13 0)
(664 -9.38751e-13 0)
(664 -9.07771e-13 0)
(664 -7.24429e-13 0)
(664 -4.89149e-13 0)
(664 -3.18739e-13 0)
(664 -3.10278e-13 0)
(664 -3.66448e-13 0)
(664 -3.75199e-13 0)
(664 -2.75358e-13 0)
(664 -1.61276e-13 0)
(664 -1.18391e-13 0)
(664 -1.58905e-13 0)
(664 -3.4567e-13 0)
(664 -5.78001e-13 0)
(664 -7.27382e-13 0)
(664 -8.41762e-13 0)
(664 -8.82678e-13 0)
(664 -8.42757e-13 0)
(664 -8.06459e-13 0)
(664 -8.37925e-13 0)
(664 -8.23539e-13 0)
(664 -7.78326e-13 0)
(664 -7.82553e-13 0)
(664 -7.90052e-13 0)
(664 -8.08943e-13 0)
(664 -7.84402e-13 0)
(664 -6.93637e-13 0)
(664 -6.21163e-13 0)
(664 -6.35453e-13 0)
(664 -7.01909e-13 0)
(664 -8.09115e-13 0)
(664 -9.13114e-13 0)
(664 -9.58155e-13 0)
(664 -9.52182e-13 0)
(664 -9.05888e-13 0)
(664 -7.87e-13 0)
(664 -6.84202e-13 0)
(664 -6.40326e-13 0)
(664 -6.21858e-13 0)
(664 -5.64859e-13 0)
(664 -5.26003e-13 0)
(664 -4.96832e-13 0)
(664 -4.98843e-13 0)
(664 -4.17666e-13 0)
(664 -2.43946e-13 0)
(664 -1.57714e-14 0)
(664 2.02279e-13 0)
(664 3.1582e-13 0)
(664 2.21995e-13 0)
(664 4.80533e-14 0)
(664 -5.45116e-15 0)
(664 -1.07743e-13 0)
(664 -2.9976e-13 0)
(664 -5.5448e-13 0)
(664 -7.47231e-13 0)
(664 -8.91476e-13 0)
(664 -1.03834e-12 0)
(664 -1.07029e-12 0)
(664 -9.41086e-13 0)
(664 -7.27448e-13 0)
(664 -5.64086e-13 0)
(664 -5.47488e-13 0)
(664 -5.70308e-13 0)
(664 -5.9906e-13 0)
(664 -6.66959e-13 0)
(664 -7.6336e-13 0)
(664 -9.06326e-13 0)
(664 -1.07835e-12 0)
(664 -1.17354e-12 0)
(664 -1.16129e-12 0)
(664 -1.09068e-12 0)
(664 -1.06845e-12 0)
(664 -1.10437e-12 0)
(664 -1.21744e-12 0)
(664 -1.26774e-12 0)
(664 -1.18315e-12 0)
(664 -1.04756e-12 0)
(664 -8.848e-13 0)
(664 -7.14401e-13 0)
(664 -6.24126e-13 0)
(664 -6.26572e-13 0)
(664 -6.17095e-13 0)
(664 -5.94939e-13 0)
(664 -5.48786e-13 0)
(664 -5.24235e-13 0)
(664 -5.7011e-13 0)
(664 -6.9972e-13 0)
(664 -7.2849e-13 0)
(664 -6.51485e-13 0)
(664 -6.0315e-13 0)
(664 -6.63768e-13 0)
(664 -7.58947e-13 0)
(664 -7.92719e-13 0)
(664 -7.23595e-13 0)
(664 -5.74113e-13 0)
(664 -5.13934e-13 0)
(664 -4.86155e-13 0)
(664 -4.06366e-13 0)
(664 -3.21371e-13 0)
(664 -3.82151e-13 0)
(664 -5.64433e-13 0)
(664 -6.09372e-13 0)
(664 -5.08341e-13 0)
(664 -4.26373e-13 0)
(664 -4.60929e-13 0)
(664 -4.6183e-13 0)
(664 -3.33583e-13 0)
(664 -1.21301e-13 0)
(664 1.19275e-13 0)
(664 2.70647e-13 0)
(664 3.19099e-13 0)
(664 2.04776e-13 0)
(664 6.9029e-14 0)
(664 5.0377e-14 0)
(664 1.06932e-13 0)
(664 1.60702e-13 0)
(664 2.24298e-13 0)
(664 2.99098e-13 0)
(664 2.74358e-13 0)
(664 2.20196e-13 0)
(664 1.2603e-13 0)
(664 2.20301e-14 0)
(664 -9.89301e-14 0)
(664 -2.94593e-13 0)
(664 -4.40065e-13 0)
(664 -4.78695e-13 0)
(664 -3.95986e-13 0)
(664 -2.7536e-13 0)
(664 -1.34375e-13 0)
(664 -1.31689e-14 0)
(664 8.71635e-14 0)
(664 2.74451e-13 0)
(664 4.89025e-13 0)
(664 6.10209e-13 0)
(664 6.58351e-13 0)
(664 5.84502e-13 0)
(664 4.4439e-13 0)
(664 4.28188e-13 0)
(664 5.02167e-13 0)
(664 5.25828e-13 0)
(664 5.44406e-13 0)
(664 5.57807e-13 0)
(664 5.11427e-13 0)
(664 4.3457e-13 0)
(664 3.60895e-13 0)
(664 3.49988e-13 0)
(664 4.07493e-13 0)
(664 3.89652e-13 0)
(664 3.27147e-13 0)
(664 2.29999e-13 0)
(664 1.77212e-13 0)
(664 1.7235e-13 0)
(664 2.1766e-13 0)
(664 2.47696e-13 0)
(664 1.88519e-13 0)
(664 9.72768e-14 0)
(664 -1.06145e-13 0)
(664 -3.02964e-13 0)
(664 -4.45771e-13 0)
(664 -5.58515e-13 0)
(664 -6.69864e-13 0)
(664 -7.1213e-13 0)
(664 -6.40286e-13 0)
(664 -5.3266e-13 0)
(664 -4.84299e-13 0)
(664 -4.7255e-13 0)
(664 -4.40016e-13 0)
(664 -3.6236e-13 0)
(664 -3.31001e-13 0)
(664 -3.3045e-13 0)
(664 -2.33181e-13 0)
(664 -7.93408e-14 0)
(664 -2.58937e-14 0)
(664 5.16991e-14 0)
(664 1.07648e-13 0)
(664 3.51075e-14 0)
(664 -1.90913e-13 0)
(664 -4.05951e-13 0)
(664 -4.77692e-13 0)
(664 -4.41688e-13 0)
(664 -4.19347e-13 0)
(664 -3.7022e-13 0)
(664 -2.16342e-13 0)
(664 -1.16507e-14 0)
(664 2.33441e-13 0)
(664 4.77046e-13 0)
(664 6.57342e-13 0)
(664 7.53434e-13 0)
(664 7.15513e-13 0)
(664 5.69814e-13 0)
(664 3.68543e-13 0)
(664 1.48841e-13 0)
(664 -9.26443e-15 0)
(664 -1.08903e-13 0)
(664 -2.02236e-13 0)
(664 -2.17154e-13 0)
(664 -1.41441e-13 0)
(664 2.27901e-14 0)
(664 1.6446e-13 0)
(664 2.89608e-13 0)
(664 4.23344e-13 0)
(664 5.8583e-13 0)
(664 6.62485e-13 0)
(664 6.14798e-13 0)
(664 5.39111e-13 0)
(664 5.32822e-13 0)
(664 5.67475e-13 0)
(664 5.55985e-13 0)
(664 5.14908e-13 0)
(664 5.01249e-13 0)
(664 6.44322e-13 0)
(664 1.03777e-12 0)
(664 1.71082e-12 0)
(664 2.92256e-12 0)
(664 5.07497e-12 0)
(664 8.76274e-12 0)
(664 1.52096e-11 0)
(664 2.63833e-11 0)
(664 4.56242e-11 0)
(664 7.87098e-11 0)
(664 1.35479e-10 0)
(664 2.32841e-10 0)
(664 3.99483e-10 0)
(664 6.84471e-10 0)
(664 1.17144e-09 0)
(664 2.0029e-09 0)
(664 3.42132e-09 0)
(664 5.83898e-09 0)
(664 9.95586e-09 0)
(664 1.69615e-08 0)
(664 2.88743e-08 0)
(664 4.91191e-08 0)
(664 8.35019e-08 0)
(664 1.41872e-07 0)
(664 2.40917e-07 0)
(664 4.0892e-07 0)
(664 6.93796e-07 0)
(664 1.17677e-06 0)
(664 1.99542e-06 0)
(664 3.38294e-06 0)
(664 5.73452e-06 0)
(664 9.72032e-06 0)
(664 1.64765e-05 0)
(664 2.79308e-05 0)
(664 4.73548e-05 0)
(663.999 8.03044e-05 0)
(663.999 0.000136217 0)
(663.998 0.000231139 0)
(663.997 0.000392364 0)
(663.996 0.00066636 0)
(663.993 0.00113228 0)
(663.988 0.00192512 0)
(663.98 0.00327519 0)
(663.967 0.00557597 0)
(663.947 0.00950009 0)
(663.912 0.0161988 0)
(663.856 0.0276444 0)
(663.764 0.0472192 0)
(663.615 0.0807296 0)
(663.37 0.138156 0)
(662.971 0.236664 0)
(662.321 0.405832 0)
(661.265 0.69658 0)
(659.553 1.19691 0)
(656.79 2.05786 0)
(652.348 3.54135 0)
(645.289 6.08752 0)
(634.174 10.4586 0)
(617.892 17.7979 0)
(664 -1.50095e-14 0)
(664 -3.96663e-14 0)
(664 -4.3003e-14 0)
(664 -1.69335e-14 0)
(664 1.27124e-14 0)
(664 4.39597e-14 0)
(664 -1.6376e-14 0)
(664 -5.73855e-14 0)
(664 2.74425e-15 0)
(664 1.01616e-14 0)
(664 -4.71079e-14 0)
(664 -1.00677e-13 0)
(664 -1.02988e-13 0)
(664 -1.06431e-13 0)
(664 -1.46828e-13 0)
(664 -2.36844e-13 0)
(664 -2.92212e-13 0)
(664 -3.47404e-13 0)
(664 -4.2338e-13 0)
(664 -5.24085e-13 0)
(664 -6.33182e-13 0)
(664 -6.32126e-13 0)
(664 -5.76634e-13 0)
(664 -6.18448e-13 0)
(664 -7.06392e-13 0)
(664 -6.8433e-13 0)
(664 -6.1526e-13 0)
(664 -6.06015e-13 0)
(664 -6.02102e-13 0)
(664 -5.86695e-13 0)
(664 -6.36169e-13 0)
(664 -6.31177e-13 0)
(664 -5.69514e-13 0)
(664 -4.68423e-13 0)
(664 -3.72202e-13 0)
(664 -2.96774e-13 0)
(664 -2.40729e-13 0)
(664 -2.35791e-13 0)
(664 -2.33012e-13 0)
(664 -1.86843e-13 0)
(664 -1.65203e-13 0)
(664 -1.50698e-13 0)
(664 -1.77834e-13 0)
(664 -2.18177e-13 0)
(664 -3.08621e-13 0)
(664 -4.37806e-13 0)
(664 -4.73108e-13 0)
(664 -4.41149e-13 0)
(664 -4.34704e-13 0)
(664 -4.47602e-13 0)
(664 -5.11298e-13 0)
(664 -5.9271e-13 0)
(664 -6.74918e-13 0)
(664 -7.65827e-13 0)
(664 -8.76473e-13 0)
(664 -8.86632e-13 0)
(664 -8.0117e-13 0)
(664 -7.7047e-13 0)
(664 -7.96578e-13 0)
(664 -7.97374e-13 0)
(664 -8.12254e-13 0)
(664 -8.31092e-13 0)
(664 -8.67451e-13 0)
(664 -8.92472e-13 0)
(664 -9.01815e-13 0)
(664 -9.60799e-13 0)
(664 -1.05698e-12 0)
(664 -1.08463e-12 0)
(664 -9.48811e-13 0)
(664 -7.59592e-13 0)
(664 -6.50637e-13 0)
(664 -6.21915e-13 0)
(664 -5.56752e-13 0)
(664 -4.69399e-13 0)
(664 -3.42506e-13 0)
(664 -2.01413e-13 0)
(664 -9.65902e-14 0)
(664 -9.36581e-14 0)
(664 -1.00865e-13 0)
(664 -1.58415e-14 0)
(664 1.67227e-13 0)
(664 3.1463e-13 0)
(664 3.57946e-13 0)
(664 4.05343e-13 0)
(664 3.84201e-13 0)
(664 2.93387e-13 0)
(664 6.85516e-14 0)
(664 -1.87672e-13 0)
(664 -3.29685e-13 0)
(664 -3.52758e-13 0)
(664 -4.26679e-13 0)
(664 -5.90099e-13 0)
(664 -7.53873e-13 0)
(664 -8.35293e-13 0)
(664 -8.55952e-13 0)
(664 -8.12953e-13 0)
(664 -6.79781e-13 0)
(664 -5.65564e-13 0)
(664 -5.26266e-13 0)
(664 -5.45389e-13 0)
(664 -5.77638e-13 0)
(664 -5.76264e-13 0)
(664 -5.1185e-13 0)
(664 -4.64834e-13 0)
(664 -4.60624e-13 0)
(664 -5.66639e-13 0)
(664 -7.76385e-13 0)
(664 -1.03465e-12 0)
(664 -1.26812e-12 0)
(664 -1.33822e-12 0)
(664 -1.30805e-12 0)
(664 -1.21822e-12 0)
(664 -1.00851e-12 0)
(664 -7.4111e-13 0)
(664 -5.72585e-13 0)
(664 -5.31914e-13 0)
(664 -4.8167e-13 0)
(664 -4.94718e-13 0)
(664 -5.64834e-13 0)
(664 -5.99741e-13 0)
(664 -5.16125e-13 0)
(664 -3.95961e-13 0)
(664 -3.10413e-13 0)
(664 -2.06852e-13 0)
(664 -1.29111e-13 0)
(664 -1.17793e-13 0)
(664 -7.12784e-14 0)
(664 3.44859e-15 0)
(664 1.18877e-13 0)
(664 2.27633e-13 0)
(664 2.5887e-13 0)
(664 2.38701e-13 0)
(664 8.71245e-14 0)
(664 -7.65354e-14 0)
(664 -2.04137e-13 0)
(664 -2.7332e-13 0)
(664 -3.35992e-13 0)
(664 -3.98309e-13 0)
(664 -4.58749e-13 0)
(664 -4.97307e-13 0)
(664 -4.66177e-13 0)
(664 -5.46726e-13 0)
(664 -7.14468e-13 0)
(664 -8.91683e-13 0)
(664 -9.50578e-13 0)
(664 -8.31032e-13 0)
(664 -6.93644e-13 0)
(664 -5.98126e-13 0)
(664 -4.46023e-13 0)
(664 -1.39381e-13 0)
(664 2.07559e-13 0)
(664 3.84287e-13 0)
(664 3.73532e-13 0)
(664 3.33912e-13 0)
(664 3.47255e-13 0)
(664 3.02322e-13 0)
(664 1.69328e-13 0)
(664 -8.07779e-15 0)
(664 -1.32042e-13 0)
(664 -1.90851e-13 0)
(664 -2.33185e-13 0)
(664 -2.91262e-13 0)
(664 -3.38848e-13 0)
(664 -3.33213e-13 0)
(664 -2.2301e-13 0)
(664 -1.4259e-13 0)
(664 -1.33022e-13 0)
(664 -6.03194e-14 0)
(664 9.64504e-14 0)
(664 1.66581e-13 0)
(664 1.22819e-13 0)
(664 4.52303e-14 0)
(664 7.60759e-14 0)
(664 1.2168e-13 0)
(664 7.40659e-14 0)
(664 -4.69326e-14 0)
(664 -1.61535e-13 0)
(664 -2.14692e-13 0)
(664 -2.40575e-13 0)
(664 -2.52501e-13 0)
(664 -1.35518e-13 0)
(664 2.95232e-15 0)
(664 7.23057e-14 0)
(664 7.84678e-14 0)
(664 4.31025e-14 0)
(664 3.28347e-14 0)
(664 5.65483e-14 0)
(664 8.23674e-14 0)
(664 6.70081e-14 0)
(664 1.18005e-13 0)
(664 3.1117e-13 0)
(664 4.40038e-13 0)
(664 4.05144e-13 0)
(664 2.77803e-13 0)
(664 1.1348e-13 0)
(664 -1.16377e-14 0)
(664 -9.02772e-14 0)
(664 -1.36195e-13 0)
(664 -2.18277e-13 0)
(664 -3.06486e-13 0)
(664 -2.78383e-13 0)
(664 -1.2339e-13 0)
(664 1.34893e-13 0)
(664 3.59165e-13 0)
(664 4.08707e-13 0)
(664 3.43525e-13 0)
(664 2.33849e-13 0)
(664 1.18106e-13 0)
(664 5.0371e-14 0)
(664 -6.43696e-15 0)
(664 -7.50309e-14 0)
(664 -1.47635e-13 0)
(664 -1.67562e-13 0)
(664 -1.64808e-13 0)
(664 -1.37463e-13 0)
(664 -2.8203e-14 0)
(664 9.32135e-14 0)
(664 1.88027e-13 0)
(664 3.44545e-13 0)
(664 5.30999e-13 0)
(664 6.02863e-13 0)
(664 5.66454e-13 0)
(664 4.74838e-13 0)
(664 3.03129e-13 0)
(664 1.08011e-13 0)
(664 -4.13243e-14 0)
(664 -1.37781e-13 0)
(664 -2.55592e-13 0)
(664 -3.42571e-13 0)
(664 -3.48959e-13 0)
(664 -3.6807e-13 0)
(664 -3.60263e-13 0)
(664 -3.51853e-13 0)
(664 -2.65924e-13 0)
(664 -6.80552e-14 0)
(664 1.81302e-13 0)
(664 4.17888e-13 0)
(664 5.73694e-13 0)
(664 6.50501e-13 0)
(664 7.05919e-13 0)
(664 7.77798e-13 0)
(664 1.04683e-12 0)
(664 1.64794e-12 0)
(664 2.73652e-12 0)
(664 4.5486e-12 0)
(664 7.50621e-12 0)
(664 1.26348e-11 0)
(664 2.15085e-11 0)
(664 3.67604e-11 0)
(664 6.29069e-11 0)
(664 1.07884e-10 0)
(664 1.8508e-10 0)
(664 3.17157e-10 0)
(664 5.42851e-10 0)
(664 9.27965e-10 0)
(664 1.58403e-09 0)
(664 2.70048e-09 0)
(664 4.59798e-09 0)
(664 7.81944e-09 0)
(664 1.32822e-08 0)
(664 2.2537e-08 0)
(664 3.81996e-08 0)
(664 6.46839e-08 0)
(664 1.09424e-07 0)
(664 1.84944e-07 0)
(664 3.1231e-07 0)
(664 5.26966e-07 0)
(664 8.88456e-07 0)
(664 1.49683e-06 0)
(664 2.52003e-06 0)
(664 4.23993e-06 0)
(664 7.12919e-06 0)
(664 1.19804e-05 0)
(664 2.01217e-05 0)
(664 3.37781e-05 0)
(664 5.66751e-05 0)
(664 9.505e-05 0)
(663.999 0.000159338 0)
(663.999 0.000266996 0)
(663.998 0.000447209 0)
(663.997 0.000748766 0)
(663.994 0.00125316 0)
(663.991 0.00209651 0)
(663.985 0.00350597 0)
(663.976 0.00586052 0)
(663.961 0.00979192 0)
(663.936 0.0163527 0)
(663.896 0.027295 0)
(663.832 0.0455325 0)
(663.727 0.0759053 0)
(663.559 0.126444 0)
(663.288 0.210449 0)
(662.852 0.349905 0)
(662.154 0.581068 0)
(661.038 0.96348 0)
(659.262 1.59459 0)
(656.446 2.63212 0)
(652.031 4.32994 0)
(645.136 7.08047 0)
(635.057 11.4862 0)
(664 -1.4985e-14 0)
(664 -1.23258e-14 0)
(664 5.72735e-16 0)
(664 -5.28303e-15 0)
(664 -4.22483e-16 0)
(664 -9.70832e-15 0)
(664 -5.70242e-14 0)
(664 -1.11685e-13 0)
(664 -1.36016e-13 0)
(664 -1.43965e-13 0)
(664 -2.03553e-13 0)
(664 -2.61075e-13 0)
(664 -3.45287e-13 0)
(664 -4.1578e-13 0)
(664 -5.33929e-13 0)
(664 -6.82864e-13 0)
(664 -7.32256e-13 0)
(664 -6.66987e-13 0)
(664 -6.47664e-13 0)
(664 -6.13228e-13 0)
(664 -5.75779e-13 0)
(664 -5.42505e-13 0)
(664 -4.8822e-13 0)
(664 -3.82542e-13 0)
(664 -3.24149e-13 0)
(664 -2.67756e-13 0)
(664 -1.93322e-13 0)
(664 -1.10614e-13 0)
(664 -8.87457e-14 0)
(664 -1.04018e-13 0)
(664 -1.16061e-13 0)
(664 -1.75213e-13 0)
(664 -2.67469e-13 0)
(664 -3.34406e-13 0)
(664 -3.46821e-13 0)
(664 -2.53602e-13 0)
(664 -1.50469e-13 0)
(664 -1.05928e-13 0)
(664 -9.63887e-14 0)
(664 -1.61185e-13 0)
(664 -2.49075e-13 0)
(664 -2.95341e-13 0)
(664 -2.66258e-13 0)
(664 -1.59477e-13 0)
(664 2.5433e-15 0)
(664 1.82183e-13 0)
(664 2.68084e-13 0)
(664 2.39421e-13 0)
(664 9.73716e-14 0)
(664 -6.60007e-14 0)
(664 -1.32913e-13 0)
(664 -1.57933e-13 0)
(664 -2.08546e-13 0)
(664 -2.59744e-13 0)
(664 -3.58644e-13 0)
(664 -4.94815e-13 0)
(664 -6.76842e-13 0)
(664 -8.78127e-13 0)
(664 -1.0595e-12 0)
(664 -1.17875e-12 0)
(664 -1.17258e-12 0)
(664 -1.10643e-12 0)
(664 -1.09112e-12 0)
(664 -1.22424e-12 0)
(664 -1.36017e-12 0)
(664 -1.35112e-12 0)
(664 -1.19774e-12 0)
(664 -9.60804e-13 0)
(664 -7.31655e-13 0)
(664 -5.26687e-13 0)
(664 -3.88351e-13 0)
(664 -3.70219e-13 0)
(664 -4.45273e-13 0)
(664 -5.51251e-13 0)
(664 -6.19251e-13 0)
(664 -6.96579e-13 0)
(664 -8.7983e-13 0)
(664 -1.06787e-12 0)
(664 -1.15682e-12 0)
(664 -1.0206e-12 0)
(664 -8.37841e-13 0)
(664 -7.45568e-13 0)
(664 -6.52911e-13 0)
(664 -5.45933e-13 0)
(664 -3.5715e-13 0)
(664 -1.6191e-13 0)
(664 -7.66479e-14 0)
(664 -1.39776e-13 0)
(664 -2.84766e-13 0)
(664 -5.19516e-13 0)
(664 -7.85124e-13 0)
(664 -9.74826e-13 0)
(664 -1.03679e-12 0)
(664 -1.01712e-12 0)
(664 -9.43418e-13 0)
(664 -7.79974e-13 0)
(664 -5.69805e-13 0)
(664 -3.67931e-13 0)
(664 -2.47698e-13 0)
(664 -2.26009e-13 0)
(664 -2.52917e-13 0)
(664 -3.29492e-13 0)
(664 -3.52525e-13 0)
(664 -2.16408e-13 0)
(664 -7.916e-14 0)
(664 -8.8662e-14 0)
(664 -2.63328e-13 0)
(664 -4.24547e-13 0)
(664 -5.33339e-13 0)
(664 -6.42682e-13 0)
(664 -6.4326e-13 0)
(664 -5.43756e-13 0)
(664 -5.18007e-13 0)
(664 -5.76693e-13 0)
(664 -7.48027e-13 0)
(664 -9.7572e-13 0)
(664 -1.09945e-12 0)
(664 -1.02635e-12 0)
(664 -9.14716e-13 0)
(664 -8.36833e-13 0)
(664 -7.83907e-13 0)
(664 -7.2585e-13 0)
(664 -7.43476e-13 0)
(664 -8.21155e-13 0)
(664 -8.57554e-13 0)
(664 -8.6152e-13 0)
(664 -7.9055e-13 0)
(664 -6.1304e-13 0)
(664 -4.14218e-13 0)
(664 -2.57082e-13 0)
(664 -2.76185e-15 0)
(664 2.21065e-13 0)
(664 2.56187e-13 0)
(664 1.12282e-13 0)
(664 -6.50056e-14 0)
(664 -2.17526e-13 0)
(664 -3.54636e-13 0)
(664 -4.68182e-13 0)
(664 -5.83591e-13 0)
(664 -6.39028e-13 0)
(664 -6.50724e-13 0)
(664 -6.05607e-13 0)
(664 -4.21512e-13 0)
(664 -2.32313e-13 0)
(664 -1.20242e-13 0)
(664 -8.38397e-14 0)
(664 6.64276e-14 0)
(664 2.9204e-13 0)
(664 4.25023e-13 0)
(664 4.83646e-13 0)
(664 5.38384e-13 0)
(664 5.48925e-13 0)
(664 4.33831e-13 0)
(664 2.20629e-13 0)
(664 5.77151e-14 0)
(664 6.08627e-14 0)
(664 6.2039e-14 0)
(664 -6.69264e-14 0)
(664 -2.35654e-13 0)
(664 -3.5577e-13 0)
(664 -4.53252e-13 0)
(664 -4.68348e-13 0)
(664 -3.78992e-13 0)
(664 -1.99874e-13 0)
(664 6.02885e-14 0)
(664 3.45712e-13 0)
(664 6.79989e-13 0)
(664 9.07376e-13 0)
(664 8.20244e-13 0)
(664 4.57827e-13 0)
(664 4.40884e-14 0)
(664 -3.08377e-13 0)
(664 -5.23422e-13 0)
(664 -6.03604e-13 0)
(664 -6.50388e-13 0)
(664 -7.24294e-13 0)
(664 -8.0249e-13 0)
(664 -8.2141e-13 0)
(664 -7.75413e-13 0)
(664 -6.99167e-13 0)
(664 -4.99229e-13 0)
(664 -2.94664e-13 0)
(664 -1.38434e-13 0)
(664 -5.82675e-14 0)
(664 2.03214e-15 0)
(664 4.72143e-14 0)
(664 5.89619e-14 0)
(664 1.40532e-13 0)
(664 3.3402e-13 0)
(664 4.90249e-13 0)
(664 4.92902e-13 0)
(664 4.34274e-13 0)
(664 3.66402e-13 0)
(664 2.31843e-13 0)
(664 5.28597e-14 0)
(664 -5.97515e-14 0)
(664 -1.09313e-13 0)
(664 -1.09061e-13 0)
(664 -7.66405e-14 0)
(664 -8.62338e-15 0)
(664 1.04281e-13 0)
(664 1.50763e-13 0)
(664 8.03582e-14 0)
(664 -2.26728e-14 0)
(664 -1.60788e-13 0)
(664 -3.23657e-13 0)
(664 -4.35928e-13 0)
(664 -5.10011e-13 0)
(664 -6.13292e-13 0)
(664 -7.37771e-13 0)
(664 -6.99429e-13 0)
(664 -4.74675e-13 0)
(664 -2.23089e-13 0)
(664 -8.80756e-14 0)
(664 2.32912e-14 0)
(664 1.88867e-13 0)
(664 2.42144e-13 0)
(664 1.19943e-13 0)
(664 -5.37981e-14 0)
(664 -1.24022e-13 0)
(664 -1.30767e-13 0)
(664 -8.85317e-14 0)
(664 2.97612e-14 0)
(664 1.98381e-13 0)
(664 3.53294e-13 0)
(664 5.01879e-13 0)
(664 5.9404e-13 0)
(664 6.64659e-13 0)
(664 6.43391e-13 0)
(664 5.4783e-13 0)
(664 4.18476e-13 0)
(664 2.85557e-13 0)
(664 1.50228e-13 0)
(664 6.45941e-14 0)
(664 3.18147e-14 0)
(664 6.69628e-14 0)
(664 1.42378e-13 0)
(664 2.22725e-13 0)
(664 4.0174e-13 0)
(664 7.20935e-13 0)
(664 1.14625e-12 0)
(664 1.54362e-12 0)
(664 2.02793e-12 0)
(664 2.96448e-12 0)
(664 4.8159e-12 0)
(664 8.07013e-12 0)
(664 1.36299e-11 0)
(664 2.31499e-11 0)
(664 3.95035e-11 0)
(664 6.75405e-11 0)
(664 1.15485e-10 0)
(664 1.97378e-10 0)
(664 3.36947e-10 0)
(664 5.74591e-10 0)
(664 9.78764e-10 0)
(664 1.665e-09 0)
(664 2.82864e-09 0)
(664 4.79887e-09 0)
(664 8.13065e-09 0)
(664 1.37573e-08 0)
(664 2.32483e-08 0)
(664 3.92368e-08 0)
(664 6.61408e-08 0)
(664 1.11357e-07 0)
(664 1.87269e-07 0)
(664 3.14569e-07 0)
(664 5.2783e-07 0)
(664 8.84712e-07 0)
(664 1.48137e-06 0)
(664 2.47787e-06 0)
(664 4.14068e-06 0)
(664 6.91263e-06 0)
(664 1.15295e-05 0)
(664 1.92122e-05 0)
(664 3.19855e-05 0)
(664 5.32037e-05 0)
(664 8.84204e-05 0)
(663.999 0.000146819 0)
(663.999 0.000243579 0)
(663.999 0.000403755 0)
(663.998 0.000668679 0)
(663.996 0.00110645 0)
(663.994 0.00182917 0)
(663.99 0.00302114 0)
(663.983 0.00498508 0)
(663.973 0.00821746 0)
(663.956 0.0135316 0)
(663.93 0.0222575 0)
(663.887 0.0365672 0)
(663.818 0.0600006 0)
(663.709 0.0983156 0)
(663.534 0.160856 0)
(663.255 0.262738 0)
(662.811 0.428351 0)
(662.108 0.696824 0)
(660.996 1.13075 0)
(659.243 1.82888 0)
(656.504 2.94708 0)
(652.218 4.7198 0)
(645.902 7.51028 0)
(664 3.91396e-14 0)
(664 4.68535e-14 0)
(664 3.92042e-14 0)
(664 7.16931e-14 0)
(664 1.10588e-13 0)
(664 1.04485e-13 0)
(664 1.17544e-13 0)
(664 1.05272e-13 0)
(664 3.79767e-14 0)
(664 -8.96346e-15 0)
(664 -4.93627e-14 0)
(664 -1.00851e-13 0)
(664 -1.37983e-13 0)
(664 -1.47545e-13 0)
(664 -1.14012e-13 0)
(664 -5.72502e-14 0)
(664 -2.80242e-14 0)
(664 -1.11309e-14 0)
(664 -1.58465e-14 0)
(664 -1.32799e-14 0)
(664 -1.12361e-14 0)
(664 -1.8886e-14 0)
(664 -1.59319e-14 0)
(664 -2.2518e-14 0)
(664 -8.56082e-14 0)
(664 -2.08527e-13 0)
(664 -2.66372e-13 0)
(664 -2.86001e-13 0)
(664 -3.10613e-13 0)
(664 -3.78452e-13 0)
(664 -3.82293e-13 0)
(664 -3.33291e-13 0)
(664 -3.55525e-13 0)
(664 -4.36118e-13 0)
(664 -5.39503e-13 0)
(664 -6.41398e-13 0)
(664 -6.55043e-13 0)
(664 -6.77099e-13 0)
(664 -7.50673e-13 0)
(664 -8.19983e-13 0)
(664 -8.26737e-13 0)
(664 -7.75428e-13 0)
(664 -7.65333e-13 0)
(664 -7.78139e-13 0)
(664 -7.1523e-13 0)
(664 -5.5882e-13 0)
(664 -4.45007e-13 0)
(664 -4.60065e-13 0)
(664 -6.01113e-13 0)
(664 -7.70534e-13 0)
(664 -8.25959e-13 0)
(664 -7.96788e-13 0)
(664 -7.80614e-13 0)
(664 -7.25801e-13 0)
(664 -6.40411e-13 0)
(664 -6.40437e-13 0)
(664 -6.90532e-13 0)
(664 -7.61629e-13 0)
(664 -7.87015e-13 0)
(664 -8.50987e-13 0)
(664 -8.90566e-13 0)
(664 -9.22407e-13 0)
(664 -8.75485e-13 0)
(664 -8.27415e-13 0)
(664 -7.33011e-13 0)
(664 -5.2431e-13 0)
(664 -1.96595e-13 0)
(664 2.08231e-14 0)
(664 8.66264e-14 0)
(664 1.2264e-13 0)
(664 1.82543e-13 0)
(664 2.12952e-13 0)
(664 1.94614e-13 0)
(664 1.65059e-13 0)
(664 7.71449e-14 0)
(664 -8.68247e-14 0)
(664 -1.96983e-13 0)
(664 -2.50282e-13 0)
(664 -2.49868e-13 0)
(664 -2.6075e-13 0)
(664 -3.16204e-13 0)
(664 -5.14209e-13 0)
(664 -7.67225e-13 0)
(664 -9.84181e-13 0)
(664 -1.07936e-12 0)
(664 -1.01457e-12 0)
(664 -8.93293e-13 0)
(664 -7.1885e-13 0)
(664 -5.5205e-13 0)
(664 -4.35877e-13 0)
(664 -3.34613e-13 0)
(664 -1.71495e-13 0)
(664 -6.90288e-15 0)
(664 4.68515e-14 0)
(664 -1.39057e-13 0)
(664 -4.7023e-13 0)
(664 -7.56304e-13 0)
(664 -9.23664e-13 0)
(664 -9.12657e-13 0)
(664 -8.39798e-13 0)
(664 -8.14579e-13 0)
(664 -7.89177e-13 0)
(664 -7.21685e-13 0)
(664 -6.0096e-13 0)
(664 -3.57324e-13 0)
(664 4.37111e-15 0)
(664 4.23336e-13 0)
(664 7.61492e-13 0)
(664 9.22567e-13 0)
(664 9.06464e-13 0)
(664 7.6793e-13 0)
(664 5.7788e-13 0)
(664 3.41985e-13 0)
(664 1.01376e-13 0)
(664 -4.21648e-14 0)
(664 -8.78248e-14 0)
(664 -2.08207e-13 0)
(664 -4.24394e-13 0)
(664 -5.62519e-13 0)
(664 -6.60215e-13 0)
(664 -7.4214e-13 0)
(664 -7.95089e-13 0)
(664 -7.36358e-13 0)
(664 -6.50095e-13 0)
(664 -6.13796e-13 0)
(664 -5.81112e-13 0)
(664 -6.37882e-13 0)
(664 -7.19187e-13 0)
(664 -7.9268e-13 0)
(664 -8.62938e-13 0)
(664 -9.02524e-13 0)
(664 -9.37731e-13 0)
(664 -9.45987e-13 0)
(664 -9.4616e-13 0)
(664 -9.54154e-13 0)
(664 -8.50338e-13 0)
(664 -7.11789e-13 0)
(664 -6.49389e-13 0)
(664 -5.96157e-13 0)
(664 -4.94572e-13 0)
(664 -3.97932e-13 0)
(664 -3.01036e-13 0)
(664 -1.9224e-13 0)
(664 -5.67872e-14 0)
(664 -4.48934e-15 0)
(664 -1.15722e-13 0)
(664 -2.32049e-13 0)
(664 -2.28544e-13 0)
(664 -9.79546e-14 0)
(664 3.58925e-14 0)
(664 2.8094e-14 0)
(664 -3.57129e-14 0)
(664 -1.57591e-13 0)
(664 -3.22312e-13 0)
(664 -3.82994e-13 0)
(664 -3.26058e-13 0)
(664 -2.82561e-13 0)
(664 -2.32381e-13 0)
(664 -2.62485e-13 0)
(664 -3.93596e-13 0)
(664 -4.89959e-13 0)
(664 -4.94589e-13 0)
(664 -4.40654e-13 0)
(664 -4.14885e-13 0)
(664 -4.57144e-13 0)
(664 -4.41302e-13 0)
(664 -3.18086e-13 0)
(664 -2.18986e-13 0)
(664 -1.47663e-13 0)
(664 -6.49268e-14 0)
(664 -4.56353e-14 0)
(664 -1.03219e-13 0)
(664 -2.15451e-13 0)
(664 -2.83996e-13 0)
(664 -2.27246e-13 0)
(664 -5.44183e-14 0)
(664 2.13863e-13 0)
(664 3.84725e-13 0)
(664 4.49776e-13 0)
(664 4.8853e-13 0)
(664 4.09556e-13 0)
(664 3.21375e-13 0)
(664 2.7729e-13 0)
(664 1.78639e-13 0)
(664 1.0696e-13 0)
(664 7.6428e-14 0)
(664 9.31558e-14 0)
(664 1.32142e-13 0)
(664 1.54941e-13 0)
(664 1.07553e-13 0)
(664 -4.31534e-14 0)
(664 -2.30337e-13 0)
(664 -3.3407e-13 0)
(664 -3.49938e-13 0)
(664 -3.13362e-13 0)
(664 -3.45475e-13 0)
(664 -3.95629e-13 0)
(664 -4.11545e-13 0)
(664 -3.40785e-13 0)
(664 -2.04362e-13 0)
(664 -7.5613e-14 0)
(664 -4.31692e-14 0)
(664 -4.72055e-14 0)
(664 -2.1574e-14 0)
(664 6.07386e-15 0)
(664 2.28435e-14 0)
(664 1.99147e-14 0)
(664 4.56472e-14 0)
(664 5.53483e-14 0)
(664 1.60652e-13 0)
(664 3.0368e-13 0)
(664 3.89841e-13 0)