/*--------------------------------*- C++ -*----------------------------------*\
| =========                 |                                                 |
| \\      /  F ield         | OpenFOAM: The Open Source CFD Toolbox           |
|  \\    /   O peration     | Version:  2412                                  |
|   \\  /    A nd           | Website:  www.openfoam.com                      |
|    \\/     M anipulation  |                                                 |
\*---------------------------------------------------------------------------*/
FoamFile
{
    version     2.0;
    format      ascii;
    arch        "LSB;label=32;scalar=64";
    class       surfaceScalarField;
    location    "10";
    object      phi;
}
// * * * * * * * * * * * * * * * * * * * * * * * * * * * * * * * * * * * * * //

dimensions      [1 0 -1 0 0 0 0];

oriented        oriented;

internalField   nonuniform List<scalar> 
10325
(
0.00840003
1.28446e-10
0.00840003
1.0059e-09
0.00840002
3.11868e-09
0.00840001
9.40613e-09
0.00839999
2.23471e-08
0.00839992
5.88682e-08
0.00839978
1.36036e-07
0.00839942
3.13944e-07
0.00839845
9.15493e-07
0.0083967
1.5311e-06
0.00839186
4.58992e-06
0.00837952
1.11744e-05
0.00834842
3.14636e-05
0.00821082
0.000132756
0.00763257
0.000568488
0.00703612
0.0005956
0.00642905
0.000606335
0.00580306
0.00062512
0.00514647
0.000655305
0.00443809
0.000706939
0.00366981
0.000767108
0.00284329
0.000825289
0.00196055
0.000881434
0.00101741
0.00094182
0.00101614
0.00840003
2.80323e-10
0.00840003
2.17707e-09
0.00840002
6.64259e-09
0.00840001
2.00468e-08
0.00839998
4.78834e-08
0.00839991
1.22213e-07
0.00839974
3.06575e-07
0.0083994
6.09001e-07
0.00839833
1.92386e-06
0.00839675
2.91086e-06
0.00839165
9.40799e-06
0.00837971
2.19773e-05
0.00834752
6.3973e-05
0.00821016
0.000265354
0.00762706
0.00114167
0.00702535
0.00119649
0.00642317
0.0012078
0.00580621
0.00124123
0.00515165
0.0013086
0.00443405
0.00142308
0.00365902
0.0015409
0.00282465
0.00165847
0.00193056
0.00177423
0.000980809
0.00189025
0.00199569
0.00840003
3.69514e-10
0.00840003
2.87552e-09
0.00840002
8.82371e-09
0.00840002
2.66066e-08
0.0084
6.36311e-08
0.00839995
1.63451e-07
0.00839985
4.00334e-07
0.00839955
8.62643e-07
0.00839903
2.38199e-06
0.00839724
4.49366e-06
0.00839363
1.26963e-05
0.00838275
3.17113e-05
0.00834614
0.000100881
0.00822253
0.000384212
0.00764045
0.00171379
0.00703098
0.001805
0.00643304
0.00180494
0.00582408
0.00184932
0.00517331
0.00195796
0.00445998
0.0021349
0.00368556
0.00231418
0.00284604
0.00249642
0.0019443
0.00267455
0.00098602
0.00284709
0.00298033
0.00840003
4.27539e-10
0.00840003
3.31827e-09
0.00840003
1.01963e-08
0.00840002
3.07025e-08
0.00840001
7.31462e-08
0.00839998
1.90311e-07
0.00839992
4.49179e-07
0.00839968
1.05957e-06
0.00839944
2.59935e-06
0.00839771
5.99466e-06
0.00839487
1.53139e-05
0.00838477
4.08858e-05
0.00834746
0.000137078
0.00822994
0.000497954
0.00764862
0.00228474
0.00703555
0.0024174
0.00645628
0.00238358
0.00584265
0.00246208
0.005204
0.00259557
0.00450818
0.00282896
0.00374556
0.00307528
0.00291207
0.00332903
0.00199697
0.00358841
0.00101813
0.00382458
0.00399703
0.00840003
4.64598e-10
0.00840003
3.60218e-09
0.00840003
1.10733e-08
0.00840002
3.33608e-08
0.00840002
7.91082e-08
0.00839999
2.09324e-07
0.00839996
4.75512e-07
0.00839975
1.22835e-06
0.00839962
2.71631e-06
0.00839779
7.5793e-06
0.00839543
1.7547e-05
0.00838352
5.18369e-05
0.00835228
0.000167217
0.00822829
0.000618177
0.0076512
0.00285068
0.00703624
0.00303217
0.00647325
0.00294634
0.00588255
0.00305197
0.0052607
0.00321609
0.00459085
0.00349798
0.00384106
0.00382385
0.00301198
0.00415622
0.00209619
0.00450274
0.00108098
0.0048385
0.00507657
0.00840003
4.87342e-10
0.00840003
3.77767e-09
0.00840003
1.16411e-08
0.00840002
3.50659e-08
0.00840002
8.29348e-08
0.0084
2.2189e-07
0.00839998
4.91507e-07
0.00839983
1.34269e-06
0.00839972
2.82232e-06
0.00839844
8.59896e-06
0.00839762
1.83322e-05
0.00838277
6.55642e-05
0.00836565
0.000183678
0.00823921
0.00074065
0.00769394
0.00338351
0.0070767
0.00364998
0.00652484
0.0034984
0.00595857
0.00361752
0.00535912
0.00381422
0.00470804
0.00414857
0.00398719
0.00454354
0.00316856
0.00497371
0.00223435
0.00543513
0.00117527
0.00589619
0.00625037
0.00840003
5.18139e-10
0.00840003
4.01326e-09
0.00840003
1.22926e-08
0.00840002
3.71178e-08
0.00840002
8.73892e-08
0.0084
2.35959e-07
0.00839997
5.16486e-07
0.00839983
1.44694e-06
0.00839964
3.00508e-06
0.00839865
9.34982e-06
0.00839698
1.99404e-05
0.00838853
7.2927e-05
0.00837477
0.000196488
0.00827301
0.000837553
0.00783025
0.00381226
0.00720226
0.00427943
0.00664052
0.00406071
0.00608935
0.00416795
0.00552113
0.00438143
0.00489653
0.00477209
0.00419334
0.00524545
0.0033934
0.00577258
0.00245895
0.00636853
0.00133662
0.00701718
0.00758547
0.00840003
5.15591e-10
0.00840003
4.00889e-09
0.00840003
1.24938e-08
0.00840003
3.75905e-08
0.00840003
8.86812e-08
0.00840001
2.42169e-07
0.00840002
5.0872e-07
0.00839986
1.57133e-06
0.00839996
2.88784e-06
0.00839827
1.08026e-05
0.00839737
2.07596e-05
0.00838924
7.99362e-05
0.00837074
0.00021392
0.00831877
0.000884908
0.00809976
0.00401515
0.00743433
0.00494709
0.00684278
0.00465336
0.0062943
0.00471588
0.00574923
0.00492574
0.00516405
0.00535608
0.00449797
0.00591044
0.00371446
0.00655498
0.00278091
0.00730067
0.00159834
0.00819835
0.00918226
0.00840003
4.60806e-10
0.00840003
5.00069e-09
0.00840003
1.40196e-08
0.00840002
4.5127e-08
0.00840001
9.99039e-08
0.00839996
2.81839e-07
0.00839987
5.9495e-07
0.00839974
1.66506e-06
0.00839929
3.33562e-06
0.00839892
1.09304e-05
0.00839903
2.06127e-05
0.00839439
8.34494e-05
0.00839681
0.0002103
0.00841643
0.000861307
0.00860086
0.00381319
0.00788784
0.0056632
0.00720035
0.00534236
0.00664852
0.00526746
0.00610028
0.00547331
0.00553113
0.00592401
0.00489938
0.00654112
0.00420081
0.00725258
0.00333198
0.00816832
0.00208614
0.0094424
0.0112667
0.00840003
3.65666e-11
0.00840003
5.49251e-09
0.00840004
6.33597e-09
0.00840003
4.65847e-08
0.00840009
4.64781e-08
0.00840007
2.93434e-07
0.00840041
2.53145e-07
0.00840012
1.92209e-06
0.0084023
1.15613e-06
0.00839862
1.43799e-05
0.00841183
7.36979e-06
0.00839
0.000104179
0.00847773
0.000121363
0.0085755
0.000759117
0.00945383
0.00291672
0.00864361
0.00647597
0.00774213
0.00624553
0.00719631
0.00581397
0.00661342
0.0060559
0.00607001
0.00646674
0.00550889
0.00710141
0.00488511
0.00787495
0.00407887
0.00897306
0.00290475
0.0106148
0.0141696
0.00840003
1.05126e-09
0.00840003
1.81387e-09
0.00840002
1.63561e-08
0.00840005
1.97497e-08
0.00839998
1.13445e-07
0.00840014
1.29332e-07
0.0083997
6.83182e-07
0.00840083
7.81918e-07
0.00839768
4.24181e-06
0.00840759
4.43667e-06
0.00838375
3.08084e-05
0.00845957
2.80686e-05
0.00833861
0.00024058
0.00871712
0.000380372
0.00954337
0.00207821
0.00908554
0.00692668
0.00846196
0.0068666
0.00776149
0.00651454
0.00722289
0.0065933
0.00673007
0.0069582
0.00627441
0.00755594
0.0057939
0.00835413
0.00537465
0.00939052
0.00537353
0.0106137
0.0114274
0.00811309
0.00840003
5.37466e-10
0.00840003
2.99357e-09
0.00840003
1.02157e-08
0.00840003
2.8893e-08
0.00840007
7.29455e-08
0.00840001
1.85164e-07
0.00840025
4.41822e-07
0.00839989
1.11667e-06
0.00840151
2.61827e-06
0.00839886
6.93841e-06
0.00841324
1.64589e-05
0.00839371
4.68829e-05
0.00850798
0.000125459
0.00843078
0.000455844
0.00905042
0.00144918
0.00923898
0.00672346
0.00884553
0.00725682
0.00823731
0.0071216
0.00773089
0.00709767
0.00727517
0.00741155
0.00690705
0.00792175
0.00663557
0.0086234
0.00655453
0.00946927
0.00697011
0.0101954
0.0104481
0.00794644
0.00840003
4.35559e-10
0.00840003
3.37786e-09
0.00840003
1.02618e-08
0.00840003
3.11106e-08
0.00840003
7.35674e-08
0.00840001
1.97275e-07
0.0084
4.4537e-07
0.00839994
1.16033e-06
0.00839989
2.65504e-06
0.00840007
6.65218e-06
0.00840053
1.59239e-05
0.00840447
4.23287e-05
0.00841598
0.000113424
0.00848691
0.000382441
0.00872667
0.00120385
0.00918308
0.0062503
0.00890387
0.00753394
0.00851882
0.00750544
0.00814991
0.00746508
0.00781319
0.00774568
0.00752804
0.0082038
0.00740275
0.00874509
0.00754592
0.00932267
0.00799809
0.00973946
0.00979252
0.00864857
0.00840003
3.56409e-10
0.00840003
2.76241e-09
0.00840003
8.58235e-09
0.00840004
2.57341e-08
0.00840005
6.09659e-08
0.00840008
1.60982e-07
0.00840017
3.59957e-07
0.00840036
9.53981e-07
0.00840102
1.98619e-06
0.00840144
6.13391e-06
0.00840622
1.11104e-05
0.00840505
4.2941e-05
0.00843238
8.56777e-05
0.00843244
0.000380342
0.00859397
0.00103863
0.00928966
0.00553764
0.00908554
0.00773664
0.00880617
0.00778372
0.00852141
0.00774805
0.00828981
0.00797471
0.00812254
0.0083676
0.00808717
0.00877617
0.00825276
0.00915206
0.00864454
0.00934209
0.00927606
0.00915522
0.00840003
3.44326e-10
0.00840003
2.66446e-09
0.00840003
8.18306e-09
0.00840003
2.46333e-08
0.00840003
5.83416e-08
0.00840004
1.54719e-07
0.00840005
3.47913e-07
0.00840008
9.06493e-07
0.00840007
1.99509e-06
0.00840064
5.4788e-06
0.00840061
1.11283e-05
0.00840476
3.82291e-05
0.00841569
7.45829e-05
0.00846502
0.000328964
0.00863165
0.000869193
0.00981125
0.00434
0.00950189
0.0080421
0.00913471
0.00814834
0.00888124
0.00800003
0.00872368
0.00812895
0.00864293
0.00844428
0.00866033
0.0087538
0.00880486
0.0090016
0.00910527
0.00903452
0.00885128
0.00952254
0.00840003
3.12814e-10
0.00840003
2.42787e-09
0.00840003
7.46188e-09
0.00840003
2.2504e-08
0.00840004
5.33176e-08
0.00840005
1.41803e-07
0.00840008
3.19376e-07
0.00840014
8.31178e-07
0.00840027
1.85286e-06
0.00840086
4.82934e-06
0.00840096
1.09721e-05
0.00841039
2.84127e-05
0.00841115
7.35248e-05
0.00852177
0.000216772
0.00876614
0.00062154
0.0104849
0.00261265
0.0100834
0.00843094
0.00978804
0.00843612
0.00931228
0.00847615
0.00911974
0.00831798
0.00907764
0.0084811
0.00914139
0.0086836
0.00929737
0.00883871
0.00951951
0.00880377
0.00853231
0.00982874
0.00840003
2.71955e-10
0.00840003
2.11251e-09
0.00840003
6.48335e-09
0.00840003
1.95604e-08
0.00840004
4.63822e-08
0.00840006
1.23227e-07
0.0084001
2.78342e-07
0.0084002
7.15448e-07
0.00840041
1.64127e-06
0.00840119
3.98144e-06
0.00840229
9.82912e-06
0.00840737
2.29587e-05
0.00842178
5.87696e-05
0.00847203
0.000164614
0.0085745
0.000519298
0.00925847
0.00191946
0.0101723
0.00749543
0.00995699
0.00864541
0.00967776
0.00875179
0.00946773
0.00852449
0.00942357
0.00851867
0.00948981
0.00860924
0.00966126
0.0086572
0.0098823
0.00857263
0.00830076
0.0101016
0.00840003
2.01542e-10
0.00840003
1.66135e-09
0.00840003
5.14027e-09
0.00840004
1.52911e-08
0.00840005
3.64627e-08
0.00840007
9.51538e-08
0.00840013
2.15059e-07
0.00840029
5.5198e-07
0.00840072
1.20638e-06
0.00840138
3.26434e-06
0.00840451
6.69064e-06
0.00840646
2.06587e-05
0.00842307
4.2053e-05
0.00843871
0.000147394
0.00856468
0.00039166
0.00887921
0.00159779
0.00999435
0.00635861
0.00999933
0.00863519
0.00988809
0.00885789
0.00973069
0.00867645
0.00971401
0.00852794
0.00978824
0.00852476
0.00994309
0.00849044
0.0101786
0.00832484
0.00809245
0.0103743
0.00840003
6.27365e-11
0.00840003
1.7033e-09
0.00840003
2.93859e-09
0.00840003
1.47906e-08
0.00840005
2.1558e-08
0.00840005
9.10713e-08
0.00840014
1.26763e-07
0.00840015
5.28525e-07
0.00840066
6.92401e-07
0.00840069
3.19281e-06
0.00840386
3.49907e-06
0.00840268
2.15359e-05
0.00842448
2.01272e-05
0.00841743
0.000152942
0.00857032
0.000237104
0.00894323
0.0012173
0.0105856
0.00469277
0.0103846
0.0088286
0.0102783
0.00895874
0.0100789
0.00886846
0.00999717
0.0085999
0.0100482
0.00846192
0.0101946
0.00833028
0.0103828
0.0081225
0.0078682
0.0105922
0.00840003
1.70793e-10
0.00840003
9.70929e-10
0.00840003
3.6303e-09
0.00840004
9.24053e-09
0.00840003
2.57091e-08
0.00840006
5.82539e-08
0.00840003
1.53536e-07
0.00840022
3.39706e-07
0.00840001
8.88307e-07
0.00840122
1.96845e-06
0.00839949
5.1375e-06
0.00840906
1.18897e-05
0.00839781
3.08324e-05
0.00847062
7.95879e-05
0.00847251
0.000232822
0.00900521
0.000681478
0.0109278
0.00275737
0.0110329
0.0087022
0.0107403
0.00924203
0.0104693
0.00913032
0.0103421
0.00871673
0.0103639
0.0084273
0.0104625
0.00821866
0.0105832
0.00798575
0.00764567
0.0107887
0.00840003
2.10554e-10
0.00840003
5.96488e-10
0.00840003
3.56421e-09
0.00840003
6.12683e-09
0.00840003
2.47043e-08
0.00840005
3.90991e-08
0.00840006
1.46596e-07
0.00840017
2.26695e-07
0.0084002
8.4793e-07
0.00840088
1.2709e-06
0.00840088
5.06612e-06
0.00840596
6.73791e-06
0.00840335
3.29996e-05
0.0084434
3.90014e-05
0.00844796
0.000226109
0.00870489
0.000421155
0.0095958
0.00185802
0.0110002
0.00726374
0.0109481
0.00927884
0.0108077
0.00925678
0.0106213
0.0088908
0.010622
0.00841257
0.0106866
0.00813877
0.0108089
0.00784444
0.00744088
0.0109956
0.00840003
7.17546e-11
0.00840003
8.14206e-10
0.00840003
1.8187e-09
0.00840003
7.32593e-09
0.00840004
1.31416e-08
0.00840003
4.57723e-08
0.0084001
7.85824e-08
0.00840006
2.66443e-07
0.00840045
4.50712e-07
0.00840016
1.54773e-06
0.00840267
2.53036e-06
0.00839981
9.43412e-06
0.00841877
1.41285e-05
0.00839367
6.28883e-05
0.00852302
9.66391e-05
0.00845097
0.000489036
0.00906234
0.00123857
0.0111863
0.00510678
0.0111962
0.0092497
0.0111449
0.00928896
0.0109409
0.00907797
0.0108451
0.00849202
0.0108891
0.00807728
0.0110424
0.00767528
0.00723844
0.0112314
0.00840003
1.0281e-10
0.00840003
3.82116e-10
0.00840003
1.95786e-09
0.00840003
3.77864e-09
0.00840003
1.3685e-08
0.00840005
2.39812e-08
0.00840005
8.12505e-08
0.00840018
1.392e-07
0.00840015
4.68239e-07
0.00840091
7.86435e-07
0.00840064
2.74971e-06
0.0084057
4.32397e-06
0.00840236
1.70899e-05
0.00844057
2.46326e-05
0.00842246
0.000112947
0.0087099
0.000197996
0.00907147
0.000872021
0.0114212
0.00272421
0.0118051
0.00883609
0.0114992
0.00957765
0.0113376
0.00921994
0.0111813
0.00863079
0.0112014
0.00803795
0.0113178
0.00754322
0.00705936
0.0114881
0.00840003
3.17913e-11
0.00840003
4.23438e-10
0.00840003
8.89142e-10
0.00840003
3.77828e-09
0.00840004
6.44548e-09
0.00840004
2.34232e-08
0.00840008
3.82038e-08
0.00840008
1.35021e-07
0.00840033
2.15818e-07
0.00840031
7.79871e-07
0.00840186
1.17832e-06
0.00840125
4.79072e-06
0.00841186
6.34471e-06
0.00840409
3.15921e-05
0.00847651
3.93388e-05
0.00844703
0.000223799
0.00890026
0.000412094
0.0096851
0.00192142
0.0115406
0.00692059
0.0115936
0.00950191
0.0116185
0.0091798
0.0115591
0.00867618
0.0115447
0.00803678
0.0116353
0.00744372
0.00691169
0.0117821
0.00840003
4.03517e-11
0.00840003
2.3201e-10
0.00840003
8.59306e-10
0.00840003
2.20993e-09
0.00840003
6.05222e-09
0.00840004
1.38217e-08
0.00840004
3.56264e-08
0.0084001
7.92228e-08
0.0084001
2.0199e-07
0.00840043
4.46644e-07
0.0084004
1.15991e-06
0.00840263
2.50309e-06
0.00840149
7.16836e-06
0.00841848
1.43462e-05
0.00840656
4.94488e-05
0.00853042
9.79422e-05
0.00852021
0.000414439
0.009353
0.00107612
0.0114231
0.00478249
0.0116902
0.00920116
0.0117385
0.00912272
0.0117932
0.00861285
0.0118526
0.00796909
0.0119759
0.00732257
0.00677449
0.0121219
0.00840003
4.95163e-11
0.00840003
1.45921e-10
0.00840003
8.45976e-10
0.00840003
1.49056e-09
0.00840003
5.86931e-09
0.00840003
9.54246e-09
0.00840003
3.48864e-08
0.00840006
5.57448e-08
0.00840005
2.01471e-07
0.00840017
3.17658e-07
0.00840012
1.16911e-06
0.00840082
1.75284e-06
0.00840069
7.03501e-06
0.00840552
9.23712e-06
0.0084095
4.39887e-05
0.00844831
5.74412e-05
0.00855148
0.00030448
0.00902375
0.000596291
0.0112289
0.00253839
0.0118737
0.00848431
0.0119135
0.00905271
0.0120082
0.00849862
0.0121331
0.00783506
0.0123005
0.00717187
0.00663582
0.0124587
0.00840003
1.48136e-11
0.00840003
1.69243e-10
0.00840003
3.73464e-10
0.00840003
1.52018e-09
0.00840003
2.69752e-09
0.00840003
9.46933e-09
0.00840005
1.61004e-08
0.00840005
5.48771e-08
0.00840015
9.19774e-08
0.00840014
3.16035e-07
0.00840078
5.08395e-07
0.00840052
1.89931e-06
0.00840472
2.63699e-06
0.00840138
1.20068e-05
0.00843023
1.42249e-05
0.00840675
7.79436e-05
0.00860175
0.000104211
0.00858669
0.000599648
0.00959236
0.00148986
0.0115176
0.00646948
0.0118841
0.00866185
0.012144
0.00824018
0.0123762
0.00760019
0.0125476
0.00700669
0.00648433
0.0127159
0.00840003
2.05915e-11
0.00840003
5.69739e-11
0.00840003
3.52664e-10
0.00840003
5.83059e-10
0.00840003
2.43348e-09
0.00840004
3.66455e-09
0.00840004
1.41737e-08
0.00840007
2.07084e-08
0.00840008
7.97093e-08
0.00840027
1.13523e-07
0.00840028
4.57192e-07
0.00840154
6.06674e-07
0.00840111
2.82371e-06
0.00840955
3.35605e-06
0.00840346
1.89164e-05
0.00845855
2.13998e-05
0.00842069
0.0001352
0.00878563
0.000224872
0.00913556
0.00110991
0.0114021
0.00407564
0.0118523
0.00818606
0.0122118
0.00791194
0.0124757
0.00736195
0.0127065
0.00680513
0.00632338
0.0128953
0.00840003
9.30168e-12
0.00840003
6.74851e-11
0.00840003
2.07319e-10
0.00840003
6.24312e-10
0.00840003
1.47489e-09
0.00840003
3.91906e-09
0.00840004
8.82774e-09
0.00840003
2.27646e-08
0.00840006
5.10283e-08
0.00840003
1.30072e-07
0.00840017
2.94113e-07
0.00839997
7.30685e-07
0.00840095
1.74831e-06
0.00839984
4.02637e-06
0.00840737
1.08292e-05
0.00840303
2.33072e-05
0.00846986
6.52699e-05
0.00850145
0.000182403
0.00907512
0.000527942
0.0108111
0.00226919
0.0115823
0.00733919
0.01211
0.00739793
0.0124506
0.00704064
0.0127498
0.00654014
0.00612655
0.0129758
0.00840003
1.06547e-12
0.00840003
6.72216e-11
0.00840003
9.26477e-11
0.00840003
5.74924e-10
0.00840003
6.97456e-10
0.00840003
3.53873e-09
0.00840004
4.1643e-09
0.00840004
2.04011e-08
0.00840006
2.35003e-08
0.00840006
1.16456e-07
0.00840021
1.29887e-07
0.00840017
6.79976e-07
0.00840116
6.66947e-07
0.00840029
4.38754e-06
0.00840735
2.85884e-06
0.0083975
3.11725e-05
0.00844269
1.48617e-05
0.00840144
0.000212798
0.008687
0.000249151
0.0093862
0.00151648
0.0106964
0.00591664
0.0114262
0.00667577
0.0120463
0.00643779
0.0124754
0.00613555
0.00583747
0.0127817
0.00840003
5.33653e-12
0.00840003
3.09007e-11
0.00840003
1.13873e-10
0.00840003
2.95233e-10
0.00840003
8.07316e-10
0.00840003
1.86027e-09
0.00840003
4.79786e-09
0.00840004
1.07977e-08
0.00840003
2.75224e-08
0.00840008
6.1576e-08
0.00840002
1.57411e-07
0.00840032
3.49327e-07
0.00839989
9.16389e-07
0.00840213
1.98649e-06
0.00839855
5.51239e-06
0.00841677
1.18587e-05
0.00839096
3.60284e-05
0.00851371
8.37006e-05
0.00842572
0.000320083
0.00895657
0.000934795
0.00991101
0.00480975
0.0106712
0.00593532
0.011441
0.00569282
0.0119529
0.00564645
0.0054674
0.0123414
0.00840003
8.49197e-12
0.00840003
1.44257e-11
0.00840003
1.29488e-10
0.00840003
1.58665e-10
0.00840003
8.89681e-10
0.00840003
1.03738e-09
0.00840003
5.31507e-09
0.00840003
6.14795e-09
0.00840003
3.10132e-08
0.00840005
3.50585e-08
0.0084
1.83039e-07
0.00840014
1.83214e-07
0.00839981
1.14031e-06
0.00840086
7.8497e-07
0.00839818
7.49759e-06
0.00840621
3.09766e-06
0.00838716
5.15442e-05
0.00843872
2.68296e-05
0.00837519
0.000369373
0.00862922
0.000650002
0.00936699
0.00392536
0.0100743
0.00526505
0.0107827
0.00500891
0.0113374
0.00509322
0.00499743
0.0118046
0.00840003
-4.64343e-13
0.00840003
2.16272e-11
0.00840003
1.96387e-11
0.00840003
1.81421e-10
0.00840003
1.48818e-10
0.00840003
1.09925e-09
0.00840003
8.60738e-10
0.00840003
6.18581e-09
0.00840006
4.59776e-09
0.00840005
3.4822e-08
0.0084002
2.14337e-08
0.00840013
2.14663e-07
0.00840113
1.01021e-07
0.00840013
1.50439e-06
0.0084068
5.98435e-07
0.00839708
1.12796e-05
0.00844094
5.87885e-06
0.00837052
8.94385e-05
0.00862886
9.9543e-05
0.00855441
0.000699172
0.00951965
0.0028054
0.0100144
0.00480413
0.0103371
0.00470855
0.0108083
0.00463705
0.00452311
0.0113004
0.00840003
9.93315e-13
0.00840003
1.22235e-11
0.00840003
3.72132e-11
0.00840003
1.11313e-10
0.00840003
2.67205e-10
0.00840003
6.91878e-10
0.00840003
1.57929e-09
0.00840003
3.97882e-09
0.00840002
8.91412e-09
0.00840003
2.26088e-08
0.00839999
4.92325e-08
0.00840006
1.32159e-07
0.00839981
2.64636e-07
0.0084004
8.24616e-07
0.00839894
1.56888e-06
0.00840454
5.39406e-06
0.00839631
1.11861e-05
0.00844499
3.84932e-05
0.00841368
0.000117794
0.00873905
0.000338136
0.00972868
0.00167749
0.0099916
0.00454326
0.0100199
0.0046869
0.0104401
0.00421576
0.00408862
0.0108707
0.00840003
2.88765e-12
0.00840003
1.19588e-11
0.00840003
4.97012e-11
0.00840003
1.16792e-10
0.00840003
3.46399e-10
0.00840003
7.43934e-10
0.00840003
2.06914e-09
0.00840003
4.36419e-09
0.00840002
1.19704e-08
0.00840002
2.51325e-08
0.00839998
6.87464e-08
0.00839996
1.43507e-07
0.00839976
3.92015e-07
0.00839967
8.19303e-07
0.00839861
2.22386e-06
0.00839883
4.64112e-06
0.00839406
1.36797e-05
0.00840325
2.65767e-05
0.00840601
0.000104739
0.00847936
0.000253332
0.00891527
0.00116388
0.00938059
0.00401264
0.00960377
0.00443613
0.00999019
0.00382962
0.0036626
0.0104116
0.00840003
5.10016e-12
0.00840003
1.86645e-12
0.00840003
6.30458e-11
0.00840003
3.34584e-11
0.00840003
4.27318e-10
0.00840003
2.3132e-10
0.00840003
2.53658e-09
0.00840003
1.36487e-09
0.00840003
1.47163e-08
0.00840004
7.72444e-09
0.0084
8.5592e-08
0.00840008
4.25092e-08
0.00839985
5.06955e-07
0.00840039
2.02532e-07
0.00839888
3.30488e-06
0.00840207
2.11525e-07
0.00838916
2.5084e-05
0.00841405
-4.74796e-06
0.0083371
0.000171048
0.00848376
0.000105561
0.00853144
0.0010566
0.00880542
0.00362786
0.00930266
0.0038902
0.00959717
0.00354689
0.00329173
0.00996483
0.00840003
1.56663e-12
0.00840003
1.11969e-11
0.00840003
3.48149e-11
0.00840003
1.04476e-10
0.00840003
2.49053e-10
0.00840003
6.58297e-10
0.00840003
1.49774e-09
0.00840003
3.83934e-09
0.00840003
8.69538e-09
0.00840001
2.1988e-08
0.00840004
4.96895e-08
0.00839993
1.25602e-07
0.00840013
2.77073e-07
0.00839946
7.18138e-07
0.00840108
1.51759e-06
0.00839633
4.09271e-06
0.00841208
8.39193e-06
0.00837746
2.57016e-05
0.00847982
6.12738e-05
0.00835598
0.000214766
0.00866142
0.000695067
0.00885754
0.00330853
0.00925735
0.00347288
0.00949524
0.00331141
0.00300719
0.00977963
0.00840003
3.41992e-14
0.00840003
1.92607e-11
0.00840003
1.99334e-11
0.00840003
1.61174e-10
0.00840003
1.53483e-10
0.00840003
1.00498e-09
0.00840003
9.56346e-10
0.00840003
5.95644e-09
0.00840003
5.69188e-09
0.00840001
3.51388e-08
0.00840002
3.16725e-08
0.00839991
2.12998e-07
0.00840001
1.44829e-07
0.00839924
1.32586e-06
0.00840009
4.90557e-07
0.00839528
8.04382e-06
0.0084025
-3.89053e-08
0.00837231
5.17925e-05
0.00842308
1.95087e-06
0.00832133
0.000302126
0.00854433
0.000416903
0.00882446
0.00290005
0.00912614
0.00317345
0.00943755
0.00300228
0.00277258
0.0096774
0.00840003
2.51649e-12
0.00840003
4.91077e-13
0.00840003
3.13576e-11
0.00840003
1.73255e-11
0.00840003
2.10345e-10
0.00840003
1.1247e-10
0.00840003
1.20428e-09
0.00840004
5.50931e-10
0.00840003
6.6527e-09
0.00840006
2.16307e-09
0.00840005
3.8457e-08
0.00840025
9.61757e-10
0.00840006
2.63677e-07
0.00840143
-9.77973e-08
0.00839944
2.07502e-06
0.00840816
-9.79922e-07
0.00839001
1.59041e-05
0.00844676
-7.1254e-06
0.00832562
0.000112776
0.00857714
3.719e-05
0.00829292
0.000655568
0.00846782
0.0025838
0.00884177
0.0028057
0.00921642
0.00263351
0.00250755
0.00948662
0.00840003
1.05516e-12
0.00840003
7.39955e-12
0.00840003
2.31487e-11
0.00840003
6.80267e-11
0.00840003
1.64453e-10
0.00840003
4.29652e-10
0.00840003
9.90454e-10
0.00840003
2.51324e-09
0.00840003
5.7293e-09
0.00840001
1.43942e-08
0.00840001
3.26004e-08
0.0083999
8.15582e-08
0.00839995
1.85474e-07
0.00839922
4.52285e-07
0.00840005
1.07466e-06
0.00839553
2.55643e-06
0.00840453
5.97183e-06
0.00837562
1.64311e-05
0.00844324
3.98621e-05
0.00831631
0.000145681
0.00850116
0.000422616
0.00858965
0.00233306
0.00884845
0.00256148
0.00914722
0.00234617
0.00227337
0.00938695
0.00840003
-1.33129e-13
0.00840003
1.40919e-11
0.00840003
1.29026e-11
0.00840003
1.1798e-10
0.00840003
1.01714e-10
0.00840003
7.43686e-10
0.00840003
6.49804e-10
0.00840003
4.48583e-09
0.00840003
3.98571e-09
0.00840001
2.70542e-08
0.00840001
2.28529e-08
0.00839989
1.67442e-07
0.00839993
1.10799e-07
0.00839916
1.04062e-06
0.00839952
3.75632e-07
0.00839469
6.41248e-06
0.00840019
-1.06855e-06
0.00836909
4.20543e-05
0.00841026
-8.43256e-06
0.00828161
0.000252033
0.00838445
0.000262614
0.00842544
0.00211098
0.00869965
0.0023193
0.00899061
0.00207639
0.00201372
0.00925903
0.00840003
1.39651e-12
0.00840003
1.79426e-12
0.00840003
2.20923e-11
0.00840003
2.27843e-11
0.00840003
1.52509e-10
0.00840003
1.49953e-10
0.00840003
9.11657e-10
0.00840003
7.19624e-10
0.00840003
5.35643e-09
0.00840005
4.87689e-09
0.00840003
3.35172e-08
0.00840016
1.91206e-08
0.00839996
2.47821e-07
0.00840091
2.19175e-08
0.00839911
1.75558e-06
0.00840513
-3.57712e-08
0.00839102
1.06382e-05
0.00842967
3.33181e-07
0.00833733
7.17085e-05
0.00852221
5.21105e-05
0.00823047
0.00049024
0.00828518
0.00184494
0.00859782
0.0020659
0.00888403
0.00182426
0.00174726
0.0091644
0.00840003
-9.64701e-13
0.00840003
6.35225e-12
0.00840003
-2.44314e-12
0.00840003
4.91132e-11
0.00840003
-1.04616e-11
0.00840003
2.96266e-10
0.00840003
-6.45e-11
0.00840003
1.70299e-09
0.00840003
-4.68448e-10
0.00840002
9.87713e-09
0.00840006
-3.27697e-09
0.00839999
6.22984e-08
0.00840024
-3.39556e-08
0.00839956
5.19987e-07
0.00840156
-3.94893e-07
0.00839576
4.58398e-06
0.00840849
-3.32664e-06
0.00836842
3.34704e-05
0.00844658
-1.53669e-05
0.00826052
0.000212961
0.00848734
0.000204032
0.00831511
0.00177985
0.00858127
0.00188486
0.00886069
0.00158779
0.00150585
0.0091164
0.00840003
2.71336e-13
0.00840003
1.53481e-12
0.00840003
5.42231e-12
0.00840003
1.4092e-11
0.00840003
3.86556e-11
0.00840003
9.05936e-11
0.00840003
2.37668e-10
0.00840003
5.45319e-10
0.00840003
1.42213e-09
0.00840003
3.28832e-09
0.00840001
8.56875e-09
0.00840003
2.12964e-08
0.00839987
5.15046e-08
0.00840019
1.37335e-07
0.00839892
3.76945e-07
0.00840203
1.04605e-06
0.00839248
3.27073e-06
0.00841456
7.93818e-06
0.0083567
2.73053e-05
0.0084719
7.63029e-05
0.0082816
0.000319108
0.00831667
0.00146987
0.00868219
0.00163788
0.0089697
0.00136288
0.00128596
0.00921456
0.00840003
1.86934e-12
0.00840003
-5.95058e-12
0.00840003
1.39402e-11
0.00840003
-4.05866e-11
0.00840003
8.72571e-11
0.00840003
-2.40718e-10
0.00840003
5.0511e-10
0.00840003
-1.42413e-09
0.00840003
2.89339e-09
0.00840004
-8.57815e-09
0.00840002
1.69982e-08
0.00840008
-5.34594e-08
0.00839994
1.17987e-07
0.0084004
-3.9586e-07
0.00839911
1.15157e-06
0.00840295
-3.25184e-06
0.00839155
1.15723e-05
0.00841814
-2.24567e-05
0.00833789
9.12033e-05
0.00844974
-5.94266e-05
0.00832594
0.000361968
0.00846918
0.00101237
0.00895623
0.00129657
0.00919855
0.00120255
0.00110708
0.00940701
0.00840003
4.74882e-13
0.00840003
-8.97531e-13
0.00840003
3.75522e-12
0.00840003
-5.64114e-12
0.00840003
2.32436e-11
0.00840003
-3.57689e-11
0.00840003
1.25539e-10
0.00840003
-2.4018e-10
0.00840003
6.41404e-10
0.00840002
-1.62751e-09
0.00840003
3.31041e-09
0.00839996
-1.05546e-08
0.00840002
2.12405e-08
0.00839951
-6.45007e-08
0.00840033
2.00513e-07
0.0083961
-3.46643e-07
0.00840417
2.45172e-06
0.00837618
-1.77759e-06
0.0084333
2.28833e-05
0.00831073
3.08976e-05
0.00842769
0.00017333
0.00818835
0.000926933
0.00857821
0.00105697
0.00890148
0.000955268
0.000854238
0.00918203
0.00840003
-1.89192e-13
0.00840003
2.86635e-12
0.00840003
4.18123e-12
0.00840003
2.44008e-11
0.00840003
3.46409e-11
0.00840003
1.55106e-10
0.00840003
2.28571e-10
0.00840003
9.53259e-10
0.00840003
1.48048e-09
0.00840001
5.92131e-09
0.0084
9.59682e-09
0.00839993
3.75719e-08
0.00839987
5.74694e-08
0.00839945
2.4586e-07
0.00839919
2.63553e-07
0.00839621
1.57411e-06
0.0083984
5.14741e-07
0.00837662
1.07874e-05
0.00839425
2.23207e-06
0.00831125
7.90645e-05
0.0082361
0.00016795
0.0079092
0.00090311
0.00820641
0.000904716
0.00859929
0.00063768
0.000549373
0.00893556
0.00840003
-8.09268e-13
0.00840003
6.88646e-12
0.00840003
-2.0699e-13
0.00840003
5.34241e-11
0.00840003
6.43072e-12
0.00840003
3.33529e-10
0.00840003
7.03174e-11
0.00840003
2.02914e-09
0.00840003
4.95221e-10
0.00840002
1.24125e-08
0.00840002
3.6601e-09
0.00839998
7.75764e-08
0.0084
1.68734e-08
0.00839966
5.22612e-07
0.00839983
-1.16103e-07
0.00839674
3.61262e-06
0.00840004
-3.16919e-06
0.00837825
2.5582e-05
0.00839346
-2.32481e-05
0.00829552
0.00014311
0.00828812
7.62434e-05
0.00786386
0.000944133
0.00820473
0.000707806
0.00859358
0.000326074
0.000277886
0.00890087
0.00840003
1.08234e-12
0.00840003
-4.72396e-12
0.00840003
6.82019e-12
0.00840003
-3.35325e-11
0.00840003
3.94937e-11
0.00840003
-2.06106e-10
0.00840003
2.05073e-10
0.00840003
-1.26454e-09
0.00840003
1.00109e-09
0.00840005
-7.91001e-09
0.00840005
4.90761e-09
0.00840017
-5.15126e-08
0.0084001
3.66025e-08
0.008401
-3.67144e-07
0.0084
4.37768e-07
0.00840594
-2.53486e-06
0.0083945
5.0478e-06
0.00843223
-1.71114e-05
0.00834441
4.06602e-05
0.00851749
-7.01584e-05
0.00835336
0.000117807
0.0087164
0.000117577
0.00928433
0.000271406
0.00937895
0.000309854
0.000235629
0.00946612
0.00840003
0.00840003
0.00840003
0.00840003
0.00840003
0.00840003
0.00840003
0.00840003
0.00840003
0.00840002
0.00840002
0.00839995
0.00839997
0.00839951
0.00839977
0.00839613
0.00840146
0.00837389
0.00840886
0.00829143
0.00827753
0.00795108
0.00834057
0.00872415
0.00900031
0.00377207
0.00433788
0.00149654
0.00227058
-0.000601716
0.00209699
-0.00149365
0.000891561
-0.00209024
0.000596158
-0.00242234
0.000333966
-0.00253713
0.000116842
-0.00256278
2.7251e-05
-0.00260791
4.60088e-05
-0.00265194
4.48275e-05
-0.00269419
4.30951e-05
-0.0027169
2.34331e-05
-0.0027132
-3.17205e-06
-0.00269411
-1.87705e-05
-0.00266628
-2.79415e-05
-0.00262832
-3.80135e-05
-0.00257296
-5.52556e-05
-0.00250088
-7.18502e-05
-0.00241396
-8.6666e-05
-0.00231311
-0.000100673
-0.0021993
-0.000113675
-0.00207309
-0.000126285
-0.001934
-0.00013888
-0.00178406
-0.000150196
-0.00161972
-0.000164956
-0.00144659
-0.000173882
-0.00126507
-0.00018204
-0.00107743
-0.000188196
-0.000883525
-0.000194383
-0.000684695
-0.000199377
-0.000481664
-0.00020357
-0.000271896
-0.000209995
-5.38864e-05
-0.000217836
0.000168236
-0.000221967
0.000382925
-0.000214465
0.000592022
-0.000208652
0.000796441
-0.000203638
0.000997523
-0.000199918
0.00119286
-0.000194305
0.00138241
-0.000188517
0.00156469
-0.000181015
0.00174192
-0.000175778
0.00191774
-0.000173879
0.00209311
-0.000173073
0.00226211
-0.000166827
0.00242428
-0.000159539
0.00258021
-0.000152725
0.00272989
-0.000146592
0.0028736
-0.000140457
0.0030116
-0.000134712
0.0031436
-0.000128808
0.00327014
-0.000123227
0.00339099
-0.000117544
0.0035066
-0.000112159
0.00361655
-0.000106762
0.00372156
-0.000101594