/*--------------------------------*- C++ -*----------------------------------*\
| =========                 |                                                 |
| \\      /  F ield         | OpenFOAM: The Open Source CFD Toolbox           |
|  \\    /   O peration     | Version:  2412                                  |
|   \\  /    A nd           | Website:  www.openfoam.com                      |
|    \\/     M anipulation  |                                                 |
\*---------------------------------------------------------------------------*/
FoamFile
{
    version     2.0;
    format      ascii;
    arch        "LSB;label=32;scalar=64";
    class       volVectorField;
    location    "10";
    object      U;
}
// * * * * * * * * * * * * * * * * * * * * * * * * * * * * * * * * * * * * * //

dimensions      [0 1 -1 0 0 0 0];

internalField   nonuniform List<vector> 
5250
(
(2.99999 1.89386e-08 0)
(2.99998 1.47392e-07 0)
(2.99994 4.52934e-07 0)
(2.99986 1.36392e-06 0)
(2.99963 3.21821e-06 0)
(2.99918 8.49818e-06 0)
(2.99785 1.93852e-05 0)
(2.99533 4.45069e-05 0)
(2.98694 0.000132369 0)
(2.97196 0.000213181 0)
(2.917 0.000628145 0)
(2.78054 0.00136457 0)
(2.40882 0.00342149 0)
(1.32215 0.00972406 0)
(0.585349 0.0204911 0)
(0.571146 0.0222227 0)
(0.586158 0.0236534 0)
(0.567378 0.0251501 0)
(0.506484 0.0268843 0)
(0.418815 0.0290874 0)
(0.340957 0.0317743 0)
(0.272852 0.0347867 0)
(0.20193 0.0380366 0)
(0.121434 0.0419161 0)
(0.0540147 0.0476269 0)
(2.99999 6.11216e-08 0)
(2.99998 4.77129e-07 0)
(2.99994 1.46859e-06 0)
(2.99986 4.43207e-06 0)
(2.99964 1.05835e-05 0)
(2.9992 2.72484e-05 0)
(2.99788 6.65716e-05 0)
(2.99543 0.000138237 0)
(2.98708 0.000423999 0)
(2.97237 0.000648985 0)
(2.91792 0.00195399 0)
(2.7829 0.00416376 0)
(2.41507 0.0105536 0)
(1.33498 0.0298593 0)
(0.594005 0.0619741 0)
(0.571038 0.0644322 0)
(0.585682 0.066032 0)
(0.566917 0.0679297 0)
(0.506304 0.070789 0)
(0.418973 0.0750424 0)
(0.340953 0.0797864 0)
(0.272148 0.0846792 0)
(0.200212 0.08937 0)
(0.118339 0.0942085 0)
(0.050378 0.0993025 0)
(2.99999 9.72303e-08 0)
(2.99998 7.59036e-07 0)
(2.99994 2.33706e-06 0)
(2.99987 7.05288e-06 0)
(2.99965 1.6907e-05 0)
(2.99923 4.32321e-05 0)
(2.99794 0.00010712 0)
(2.99563 0.00022248 0)
(2.98737 0.000644209 0)
(2.97324 0.001087 0)
(2.91982 0.00309728 0)
(2.78784 0.00680145 0)
(2.42835 0.0183234 0)
(1.36295 0.0501025 0)
(0.613857 0.106792 0)
(0.571622 0.109389 0)
(0.585982 0.111149 0)
(0.568063 0.114179 0)
(0.508964 0.11964 0)
(0.422666 0.127946 0)
(0.34466 0.13651 0)
(0.27537 0.145402 0)
(0.202646 0.154105 0)
(0.119544 0.162405 0)
(0.0497883 0.169161 0)
(2.99999 1.18704e-07 0)
(2.99998 9.24082e-07 0)
(2.99994 2.84491e-06 0)
(2.99987 8.57245e-06 0)
(2.99967 2.04795e-05 0)
(2.99927 5.29087e-05 0)
(2.99803 0.000126982 0)
(2.99588 0.000286301 0)
(2.9878 0.000736641 0)
(2.97444 0.00151756 0)
(2.92249 0.00390958 0)
(2.7961 0.00916474 0)
(2.4484 0.0263772 0)
(1.40357 0.0695319 0)
(0.643466 0.152973 0)
(0.570498 0.154293 0)
(0.585464 0.15515 0)
(0.56985 0.160148 0)
(0.51376 0.168173 0)
(0.429247 0.180335 0)
(0.351577 0.193112 0)
(0.28241 0.206577 0)
(0.209165 0.220138 0)
(0.12421 0.232814 0)
(0.0512412 0.241852 0)
(2.99999 1.3281e-07 0)
(2.99998 1.03147e-06 0)
(2.99995 3.17567e-06 0)
(2.99988 9.56525e-06 0)
(2.99969 2.27484e-05 0)
(2.99932 5.96489e-05 0)
(2.99814 0.000137983 0)
(2.99614 0.000339975 0)
(2.98838 0.000786594 0)
(2.97592 0.00196472 0)
(2.92591 0.00462861 0)
(2.80776 0.0118193 0)
(2.47518 0.0339859 0)
(1.4579 0.0903828 0)
(0.683493 0.202653 0)
(0.566666 0.199761 0)
(0.58441 0.198065 0)
(0.572841 0.205557 0)
(0.520168 0.215881 0)
(0.43856 0.231309 0)
(0.36199 0.248575 0)
(0.293274 0.267193 0)
(0.219597 0.286305 0)
(0.132328 0.30427 0)
(0.0546534 0.316485 0)
(2.99999 1.41667e-07 0)
(2.99998 1.09839e-06 0)
(2.99995 3.38101e-06 0)
(2.99989 1.01839e-05 0)
(2.99971 2.41127e-05 0)
(2.99937 6.41139e-05 0)
(2.99826 0.000143706 0)
(2.99642 0.000380426 0)
(2.98914 0.000817553 0)
(2.97768 0.00233884 0)
(2.93032 0.00507352 0)
(2.82246 0.0151459 0)
(2.5094 0.0397546 0)
(1.5338 0.113544 0)
(0.738258 0.25734 0)
(0.562027 0.245904 0)
(0.585224 0.239922 0)
(0.579419 0.249651 0)
(0.529937 0.262482 0)
(0.45197 0.281568 0)
(0.377188 0.303801 0)
(0.30932 0.328474 0)
(0.235174 0.354709 0)
(0.144582 0.380217 0)
(0.0603888 0.398006 0)
(2.99999 1.49754e-07 0)
(2.99998 1.1618e-06 0)
(2.99996 3.57505e-06 0)
(2.9999 1.0784e-05 0)
(2.99973 2.54726e-05 0)
(2.99942 6.84106e-05 0)
(2.9984 0.00015076 0)
(2.9967 0.000415476 0)
(2.99 0.000865492 0)
(2.97951 0.00261568 0)
(2.93605 0.0054206 0)
(2.83896 0.0180773 0)
(2.55117 0.0435706 0)
(1.64135 0.136672 0)
(0.811382 0.316147 0)
(0.558894 0.293774 0)
(0.590637 0.281978 0)
(0.592167 0.293049 0)
(0.545538 0.308033 0)
(0.471597 0.331023 0)
(0.399052 0.358882 0)
(0.332435 0.390839 0)
(0.258422 0.426177 0)
(0.164228 0.462835 0)
(0.0705117 0.491174 0)
(3 1.5229e-07 0)
(2.99999 1.17767e-06 0)
(2.99996 3.62405e-06 0)
(2.99991 1.09137e-05 0)
(2.99976 2.56354e-05 0)
(2.99947 6.97525e-05 0)
(2.99855 0.000148182 0)
(2.99701 0.000439495 0)
(2.99096 0.000847456 0)
(2.98152 0.0028886 0)
(2.94257 0.00575705 0)
(2.85663 0.0200692 0)
(2.60013 0.0476753 0)
(1.78002 0.156081 0)
(0.903121 0.374583 0)
(0.559975 0.342443 0)
(0.602438 0.324541 0)
(0.612608 0.335751 0)
(0.568619 0.35235 0)
(0.499235 0.379416 0)
(0.429673 0.413497 0)
(0.365163 0.454226 0)
(0.292462 0.501358 0)
(0.195535 0.554771 0)
(0.0885509 0.604363 0)
(3 1.77245e-07 0)
(2.99999 1.37233e-06 0)
(2.99996 4.21755e-06 0)
(2.99992 1.2722e-05 0)
(2.99978 3.00412e-05 0)
(2.99952 8.10034e-05 0)
(2.99871 0.000178077 0)
(2.99729 0.000497809 0)
(2.99203 0.0010229 0)
(2.98364 0.00321546 0)
(2.94971 0.00652516 0)
(2.87642 0.0219617 0)
(2.65502 0.052331 0)
(1.94624 0.169429 0)
(1.02036 0.424754 0)
(0.577591 0.394386 0)
(0.627476 0.372622 0)
(0.644841 0.379371 0)
(0.602864 0.396549 0)
(0.538107 0.42706 0)
(0.471809 0.46794 0)
(0.410522 0.517448 0)
(0.342547 0.578858 0)
(0.248533 0.65824 0)
(0.123336 0.751857 0)
(3 9.54901e-10 0)
(2.99999 1.63127e-06 0)
(2.99997 2.58416e-06 0)
(2.99993 1.40313e-05 0)
(2.99981 1.89651e-05 0)
(2.99959 8.78028e-05 0)
(2.9989 0.000106365 0)
(2.99772 0.000552788 0)
(2.99321 0.000490345 0)
(2.98615 0.00393608 0)
(2.95758 0.00265152 0)
(2.89735 0.0273158 0)
(2.71319 0.0367937 0)
(2.13403 0.17193 0)
(1.17494 0.422916 0)
(0.635984 0.435227 0)
(0.674874 0.424983 0)
(0.693112 0.423187 0)
(0.653025 0.44233 0)
(0.592174 0.474212 0)
(0.528552 0.520606 0)
(0.471772 0.578516 0)
(0.416051 0.65888 0)
(0.340166 0.780806 0)
(0.191078 0.988933 0)
(3 1.27632e-07 0)
(2.99999 9.84814e-07 0)
(2.99997 3.03396e-06 0)
(2.99993 9.11769e-06 0)
(2.99984 2.13966e-05 0)
(2.99959 5.82719e-05 0)
(2.9991 0.000121836 0)
(2.99761 0.000373758 0)
(2.99483 0.000664527 0)
(2.98548 0.00253444 0)
(2.9682 0.00472966 0)
(2.90762 0.0162433 0)
(2.75542 0.0438468 0)
(2.34477 0.116118 0)
(1.29976 0.368994 0)
(0.698314 0.464577 0)
(0.714936 0.47882 0)
(0.736995 0.472122 0)
(0.708884 0.490103 0)
(0.654842 0.521045 0)
(0.598134 0.569363 0)
(0.552555 0.634589 0)
(0.525545 0.729941 0)
(0.526311 0.87745 0)
(0.55744 1.11799 0)
(3 2.85043e-07 0)
(2.99999 5.87414e-07 0)
(2.99998 4.23888e-06 0)
(2.99994 6.56864e-06 0)
(2.99986 2.9643e-05 0)
(2.99968 4.31574e-05 0)
(2.99916 0.000180852 0)
(2.99817 0.000253688 0)
(2.99501 0.00112401 0)
(2.98954 0.00133021 0)
(2.96898 0.0075878 0)
(2.93027 0.00767014 0)
(2.79434 0.0483442 0)
(2.41126 0.0852965 0)
(1.5405 0.283426 0)
(0.779862 0.507659 0)
(0.741417 0.528751 0)
(0.762833 0.523153 0)
(0.754489 0.536113 0)
(0.715436 0.566469 0)
(0.672994 0.613812 0)
(0.644138 0.681908 0)
(0.645569 0.77919 0)
(0.698026 0.916273 0)
(0.816905 1.09234 0)
(3 1.22275e-07 0)
(2.99999 9.56563e-07 0)
(2.99998 2.94134e-06 0)
(2.99995 8.93147e-06 0)
(2.99987 2.11653e-05 0)
(2.99972 5.68062e-05 0)
(2.99927 0.000127861 0)
(2.99839 0.000338603 0)
(2.99573 0.000747061 0)
(2.99087 0.00205231 0)
(2.97367 0.00439008 0)
(2.94159 0.0129055 0)
(2.82635 0.0304326 0)
(2.50816 0.0905986 0)
(1.76031 0.238972 0)
(0.896509 0.556915 0)
(0.752607 0.566403 0)
(0.777841 0.56437 0)
(0.788943 0.574229 0)
(0.7692 0.605455 0)
(0.744549 0.651678 0)
(0.734735 0.716474 0)
(0.755709 0.803218 0)
(0.826089 0.911523 0)
(0.959615 1.01965 0)
(3 1.1864e-07 0)
(2.99999 9.21474e-07 0)
(2.99998 2.83534e-06 0)
(2.99996 8.5533e-06 0)
(2.9999 2.02712e-05 0)
(2.99977 5.39281e-05 0)
(2.9994 0.000121368 0)
(2.99869 0.000317512 0)
(2.99644 0.000698092 0)
(2.99259 0.00189977 0)
(2.97788 0.00399851 0)
(2.9525 0.0120312 0)
(2.85474 0.0266967 0)
(2.59669 0.0872524 0)
(1.96534 0.219002 0)
(1.02714 0.586327 0)
(0.760424 0.591711 0)
(0.789487 0.592914 0)
(0.817055 0.602191 0)
(0.81717 0.634384 0)
(0.808768 0.679935 0)
(0.814211 0.737827 0)
(0.847401 0.808614 0)
(0.920959 0.888689 0)
(1.04668 0.957098 0)
(3 1.03828e-07 0)
(2.99999 8.01822e-07 0)
(2.99998 2.46921e-06 0)
(2.99997 7.41041e-06 0)
(2.99991 1.75065e-05 0)
(2.9998 4.62835e-05 0)
(2.99949 0.000103408 0)
(2.99887 0.000271933 0)
(2.99704 0.000575705 0)
(2.99363 0.00168437 0)
(2.98198 0.00317282 0)
(2.96096 0.0113841 0)
(2.88408 0.0218933 0)
(2.68501 0.0839503 0)
(2.17727 0.203215 0)
(1.1914 0.593669 0)
(0.791723 0.616357 0)
(0.81251 0.622661 0)
(0.848206 0.627116 0)
(0.863323 0.65608 0)
(0.866159 0.698523 0)
(0.88119 0.748595 0)
(0.920892 0.804589 0)
(0.992629 0.862544 0)
(1.10555 0.908149 0)
(3 9.78499e-08 0)
(3 7.59487e-07 0)
(2.99999 2.33891e-06 0)
(2.99997 7.04906e-06 0)
(2.99993 1.67219e-05 0)
(2.99984 4.43949e-05 0)
(2.99959 0.000100041 0)
(2.99908 0.000260134 0)
(2.99761 0.000576741 0)
(2.99476 0.00153577 0)
(2.98585 0.00327266 0)
(2.96841 0.00958632 0)
(2.91109 0.0206582 0)
(2.76588 0.0666011 0)
(2.38632 0.165148 0)
(1.40143 0.503779 0)
(0.877098 0.621604 0)
(0.85946 0.648511 0)
(0.886419 0.656706 0)
(0.910964 0.676781 0)
(0.920017 0.711628 0)
(0.938747 0.75299 0)
(0.979805 0.796359 0)
(1.04756 0.837362 0)
(1.14714 0.867516 0)
(3 8.70558e-08 0)
(3 6.76922e-07 0)
(2.99999 2.08362e-06 0)
(2.99998 6.28641e-06 0)
(2.99994 1.49192e-05 0)
(2.99987 3.96474e-05 0)
(2.99967 8.95304e-05 0)
(2.99927 0.000231387 0)
(2.9981 0.000523427 0)
(2.99588 0.00131392 0)
(2.98863 0.00308798 0)
(2.97568 0.0074359 0)
(2.92916 0.0184892 0)
(2.81606 0.047796 0)
(2.50928 0.125896 0)
(1.60516 0.363322 0)
(0.965132 0.640909 0)
(0.893876 0.676918 0)
(0.915479 0.691679 0)
(0.946455 0.69966 0)
(0.964795 0.72312 0)
(0.987033 0.754429 0)
(1.02717 0.78658 0)
(1.08958 0.813968 0)
(1.17667 0.831974 0)
(3 7.26701e-08 0)
(3 5.6197e-07 0)
(2.99999 1.73121e-06 0)
(2.99998 5.20074e-06 0)
(2.99996 1.23338e-05 0)
(2.9999 3.25975e-05 0)
(2.99974 7.34456e-05 0)
(2.99944 0.000189117 0)
(2.99851 0.000423374 0)
(2.9969 0.00107958 0)
(2.99092 0.00244067 0)
(2.9814 0.00635867 0)
(2.94323 0.0143104 0)
(2.86024 0.0405993 0)
(2.61247 0.10534 0)
(1.84157 0.309583 0)
(1.11362 0.679208 0)
(0.918147 0.707164 0)
(0.932316 0.718875 0)
(0.966742 0.71785 0)
(0.99711 0.730059 0)
(1.02456 0.75214 0)
(1.06365 0.774506 0)
(1.12104 0.79237 0)
(1.19731 0.800342 0)
(3 3.11095e-08 0)
(3 5.00537e-07 0)
(2.99999 1.15245e-06 0)
(2.99999 4.4419e-06 0)
(2.99997 8.29498e-06 0)
(2.99992 2.73881e-05 0)
(2.9998 4.86059e-05 0)
(2.99956 0.00015845 0)
(2.99885 0.000266372 0)
(2.99756 0.000946671 0)
(2.993 0.00138524 0)
(2.98566 0.00615774 0)
(2.95652 0.00823279 0)
(2.89608 0.0410946 0)
(2.7092 0.0757084 0)
(2.12091 0.285442 0)
(1.32774 0.674931 0)
(0.97546 0.729935 0)
(0.962741 0.73436 0)
(0.988375 0.730697 0)
(1.02446 0.733143 0)
(1.05565 0.745895 0)
(1.09339 0.760394 0)
(1.1451 0.771001 0)
(1.21038 0.769959 0)
(3 2.59604e-08 0)
(3 3.98672e-07 0)
(3 9.33967e-07 0)
(2.99999 3.55813e-06 0)
(2.99997 6.76895e-06 0)
(2.99993 2.20798e-05 0)
(2.99985 4.01288e-05 0)
(2.99962 0.000128415 0)
(2.99917 0.000225037 0)
(2.99783 0.000764716 0)
(2.99524 0.00119669 0)
(2.98716 0.00494418 0)
(2.97115 0.00667073 0)
(2.91984 0.0322811 0)
(2.7923 0.0574101 0)
(2.4381 0.205398 0)
(1.56849 0.567678 0)
(1.07347 0.73367 0)
(1.00922 0.744736 0)
(1.02055 0.744696 0)
(1.0524 0.739146 0)
(1.0842 0.7417 0)
(1.1193 0.747419 0)
(1.16319 0.747791 0)
(1.21718 0.737633 0)
(3 6.2913e-08 0)
(3 2.24411e-07 0)
(3 1.08223e-06 0)
(2.99999 2.2518e-06 0)
(2.99998 7.55565e-06 0)
(2.99995 1.43396e-05 0)
(2.99989 4.50295e-05 0)
(2.99972 8.34858e-05 0)
(2.99938 0.000261309 0)
(2.99837 0.000473677 0)
(2.99648 0.00154483 0)
(2.99025 0.00260817 0)
(2.97925 0.00953808 0)
(2.93983 0.0151647 0)
(2.84643 0.0603447 0)
(2.58838 0.120827 0)
(1.82594 0.405615 0)
(1.1896 0.72816 0)
(1.04208 0.755679 0)
(1.04565 0.757827 0)
(1.07367 0.747083 0)
(1.10686 0.739736 0)
(1.13814 0.734591 0)
(1.17393 0.722743 0)
(1.2186 0.703353 0)
(3 3.84745e-08 0)
(3 2.09848e-07 0)
(3 7.80215e-07 0)
(2.99999 2.0021e-06 0)
(2.99998 5.50566e-06 0)
(2.99997 1.26175e-05 0)
(2.99991 3.27445e-05 0)
(2.9998 7.31863e-05 0)
(2.99949 0.000188287 0)
(2.9989 0.000416872 0)
(2.99702 0.00108985 0)
(2.99377 0.00235919 0)
(2.98167 0.00655341 0)
(2.96046 0.014277 0)
(2.88277 0.0409957 0)
(2.68518 0.111475 0)
(2.16066 0.301494 0)
(1.34386 0.751636 0)
(1.07105 0.788581 0)
(1.06143 0.775816 0)
(1.08585 0.756749 0)
(1.11976 0.735437 0)
(1.14812 0.716222 0)
(1.17754 0.694154 0)
(1.2158 0.667832 0)
(3 2.28537e-08 0)
(3 1.77709e-07 0)
(3 5.47252e-07 0)
(3 1.64967e-06 0)
(2.99999 3.91205e-06 0)
(2.99997 1.03692e-05 0)
(2.99994 2.33574e-05 0)
(2.99985 6.03946e-05 0)
(2.99966 0.000134359 0)
(2.99912 0.000348045 0)
(2.9981 0.000765661 0)
(2.9948 0.00204879 0)
(2.98916 0.00436755 0)
(2.9684 0.0125872 0)
(2.92694 0.0281573 0)
(2.7957 0.0826878 0)
(2.42147 0.230703 0)
(1.64877 0.607483 0)
(1.15578 0.779688 0)
(1.0937 0.778335 0)
(1.10237 0.757882 0)
(1.12774 0.725498 0)
(1.15331 0.692801 0)
(1.17941 0.663134 0)
(1.21317 0.632782 0)
(3 2.08888e-08 0)
(3 1.12064e-07 0)
(3 4.1812e-07 0)
(3 1.07176e-06 0)
(2.99999 2.94685e-06 0)
(2.99998 6.74262e-06 0)
(2.99995 1.74693e-05 0)
(2.9999 3.89643e-05 0)
(2.99973 9.99559e-05 0)
(2.99943 0.000220893 0)
(2.99843 0.000573573 0)
(2.99677 0.00124502 0)
(2.99046 0.00339826 0)
(2.98018 0.0071827 0)
(2.94091 0.0204136 0)
(2.85165 0.0507901 0)
(2.59721 0.135132 0)
(1.87922 0.411607 0)
(1.26449 0.753886 0)
(1.10858 0.773976 0)
(1.10602 0.747414 0)
(1.12568 0.710723 0)
(1.15204 0.670245 0)
(1.17947 0.634142 0)
(1.21188 0.601005 0)
(3 6.86331e-09 0)
(3 9.82531e-08 0)
(3 2.35776e-07 0)
(3 8.79318e-07 0)
(2.99999 1.70349e-06 0)
(2.99999 5.43434e-06 0)
(2.99997 1.00369e-05 0)
(2.99992 3.11611e-05 0)
(2.99981 5.62814e-05 0)
(2.99952 0.00017868 0)
(2.99895 0.000304727 0)
(2.99716 0.00108094 0)
(2.99409 0.00163397 0)
(2.98257 0.00693391 0)
(2.96271 0.0104199 0)
(2.88907 0.0439732 0)
(2.70335 0.0943557 0)
(2.21331 0.298464 0)
(1.41886 0.724375 0)
(1.11391 0.776246 0)
(1.09339 0.734999 0)
(1.11509 0.693477 0)
(1.14363 0.648685 0)
(1.17538 0.607133 0)
(1.2107 0.572597 0)
(3 1.47708e-08 0)
(3 5.4583e-08 0)
(3 2.56607e-07 0)
(3 5.44462e-07 0)
(3 1.78643e-06 0)
(2.99999 3.45215e-06 0)
(2.99997 1.05733e-05 0)
(2.99994 1.99644e-05 0)
(2.99986 6.06168e-05 0)
(2.99963 0.000112658 0)
(2.99919 0.000351342 0)
(2.99788 0.000611714 0)
(2.99534 0.00215869 0)
(2.98753 0.00317105 0)
(2.9718 0.0138531 0)
(2.92243 0.0198571 0)
(2.79914 0.0894295 0)
(2.47132 0.183359 0)
(1.64247 0.580557 0)
(1.15871 0.740853 0)
(1.08141 0.711722 0)
(1.10204 0.668732 0)
(1.13153 0.622794 0)
(1.16867 0.579272 0)
(1.21019 0.546658 0)
(3 8.83043e-09 0)
(3 4.81143e-08 0)
(3 1.79197e-07 0)
(3 4.59737e-07 0)
(3 1.26843e-06 0)
(2.99999 2.91088e-06 0)
(2.99998 7.58546e-06 0)
(2.99996 1.70246e-05 0)
(2.99989 4.38512e-05 0)
(2.99976 9.821e-05 0)
(2.99937 0.000249968 0)
(2.99866 0.000572281 0)
(2.99623 0.00139794 0)
(2.99224 0.00332661 0)
(2.97675 0.00784523 0)
(2.94935 0.0197951 0)
(2.84677 0.0484047 0)
(2.58006 0.136063 0)
(1.93023 0.356295 0)
(1.20453 0.711358 0)
(1.04154 0.689874 0)
(1.06684 0.639518 0)
(1.10576 0.591738 0)
(1.1547 0.551315 0)
(1.20728 0.523248 0)
(3 4.10082e-09 0)
(3 3.17751e-08 0)
(3 9.79894e-08 0)
(3 2.93579e-07 0)
(3 6.95073e-07 0)
(2.99999 1.82066e-06 0)
(2.99999 4.08172e-06 0)
(2.99997 1.03836e-05 0)
(2.99992 2.29233e-05 0)
(2.9998 5.83999e-05 0)
(2.99958 0.000126252 0)
(2.99884 0.000338604 0)
(2.99763 0.000677868 0)
(2.99289 0.00209743 0)
(2.98545 0.00392805 0)
(2.95568 0.0134093 0)
(2.8933 0.0281358 0)
(2.70102 0.0934681 0)
(2.1394 0.262194 0)
(1.34464 0.640575 0)
(1.00626 0.655954 0)
(1.02382 0.605987 0)
(1.07574 0.560229 0)
(1.13932 0.525472 0)
(1.20275 0.502448 0)
(3 5.13989e-09 0)
(3 1.51198e-08 0)
(3 8.28379e-08 0)
(3 1.56047e-07 0)
(3 5.71037e-07 0)
(3 9.85963e-07 0)
(2.99999 3.34305e-06 0)
(2.99997 5.60485e-06 0)
(2.99993 1.89381e-05 0)
(2.99985 3.07953e-05 0)
(2.9996 0.000109542 0)
(2.99912 0.000158647 0)
(2.9977 0.0006877 0)
(2.99494 0.000779756 0)
(2.98618 0.00459023 0)
(2.96936 0.00444129 0)
(2.91293 0.0287799 0)
(2.77234 0.0441349 0)
(2.3944 0.16903 0)
(1.48134 0.464319 0)
(0.986276 0.578896 0)
(0.97275 0.558419 0)
(1.03725 0.528511 0)
(1.11655 0.501167 0)
(1.19195 0.483769 0)
(3 8.88336e-10 0)
(3 2.04793e-08 0)
(3 4.28821e-08 0)
(3 1.81147e-07 0)
(3 3.15368e-07 0)
(3 1.12739e-06 0)
(2.99999 1.89203e-06 0)
(2.99998 6.55783e-06 0)
(2.99995 1.08665e-05 0)
(2.99988 3.7743e-05 0)
(2.99969 6.17022e-05 0)
(2.99932 0.00021843 0)
(2.99815 0.000342015 0)
(2.99614 0.00130822 0)
(2.98855 0.00174607 0)
(2.97586 0.00827954 0)
(2.92771 0.0091186 0)
(2.81088 0.0516109 0)
(2.49476 0.0812871 0)
(1.59393 0.296927 0)
(0.961503 0.510905 0)
(0.898601 0.506559 0)
(0.976808 0.490548 0)
(1.07379 0.474029 0)
(1.16496 0.464076 0)
(3 3.61523e-10 0)
(3 1.43823e-08 0)
(3 2.69575e-08 0)
(3 1.25315e-07 0)
(3 1.98449e-07 0)
(3 7.71603e-07 0)
(2.99999 1.17427e-06 0)
(2.99998 4.43159e-06 0)
(2.99996 6.58393e-06 0)
(2.99989 2.51323e-05 0)
(2.99975 3.61788e-05 0)
(2.99936 0.000145229 0)
(2.9986 0.000185407 0)
(2.99611 0.00091781 0)
(2.99193 0.00079742 0)
(2.97556 0.00632879 0)
(2.94664 0.00429088 0)
(2.83648 0.0387093 0)
(2.54319 0.0563453 0)
(1.83129 0.210846 0)
(0.976745 0.481354 0)
(0.806439 0.455005 0)
(0.899818 0.43895 0)
(1.01612 0.438789 0)
(1.12149 0.438647 0)
(3 2.55679e-09 0)
(3 6.32647e-09 0)
(3 3.95813e-08 0)
(3 6.7605e-08 0)
(3 2.74836e-07 0)
(3 4.39398e-07 0)
(2.99999 1.64668e-06 0)
(2.99998 2.60019e-06 0)
(2.99996 9.61827e-06 0)
(2.9999 1.49439e-05 0)
(2.99979 5.66806e-05 0)
(2.99944 8.09742e-05 0)
(2.99879 0.000348485 0)
(2.99666 0.000374303 0)
(2.99305 0.00221038 0)
(2.97894 0.00147797 0)
(2.95454 0.0141571 0)
(2.85968 0.0104398 0)
(2.61037 0.0856674 0)
(1.99266 0.155677 0)
(1.00926 0.45364 0)
(0.705619 0.401311 0)
(0.824234 0.381239 0)
(0.961002 0.397616 0)
(1.07135 0.405862 0)
(3 9.36389e-10 0)
(3 5.0745e-09 0)
(3 1.89208e-08 0)
(3 4.85122e-08 0)
(3 1.33425e-07 0)
(3 3.05442e-07 0)
(2.99999 7.90815e-07 0)
(2.99999 1.76466e-06 0)
(2.99997 4.51685e-06 0)
(2.99993 9.98217e-06 0)
(2.99981 2.56826e-05 0)
(2.9996 5.62044e-05 0)
(2.99885 0.000151014 0)
(2.99766 0.00030685 0)
(2.99285 0.000985223 0)
(2.98529 0.00174895 0)
(2.95438 0.00687184 0)
(2.8883 0.0138619 0)
(2.68587 0.0511414 0)
(2.07045 0.140298 0)
(1.10593 0.396001 0)
(0.654936 0.356234 0)
(0.789165 0.342901 0)
(0.934588 0.362065 0)
(1.03488 0.370507 0)
(3 -4.69087e-10 0)
(3 4.84952e-09 0)
(3 2.15151e-09 0)
(3 3.92947e-08 0)
(3 1.94779e-08 0)
(3 2.34134e-07 0)
(2.99999 1.00987e-07 0)
(2.99999 1.30033e-06 0)
(2.99997 3.9694e-07 0)
(2.99992 7.2343e-06 0)
(2.99983 5.33422e-07 0)
(2.99955 4.48353e-05 0)
(2.999 -1.33399e-05 0)
(2.99735 0.000328937 0)
(2.99426 -9.75597e-05 0)
(2.98384 0.00256405 0)
(2.96465 -1.07661e-05 0)
(2.89624 0.0186689 0)
(2.72225 0.0186828 0)
(2.26469 0.10528 0)
(1.16771 0.295759 0)
(0.62727 0.314548 0)
(0.767207 0.3252 0)
(0.913062 0.334749 0)
(1.0026 0.336928 0)
(3 7.22652e-10 0)
(3 3.90028e-09 0)
(3 1.45435e-08 0)
(3 3.73162e-08 0)
(3 1.03144e-07 0)
(3 2.37062e-07 0)
(3 6.1938e-07 0)
(2.99999 1.39212e-06 0)
(2.99997 3.59723e-06 0)
(2.99993 8.04404e-06 0)
(2.99984 2.07578e-05 0)
(2.99959 4.62933e-05 0)
(2.99908 0.000119207 0)
(2.99759 0.000268105 0)
(2.99471 0.000682123 0)
(2.98544 0.00154804 0)
(2.96778 0.00399723 0)
(2.90654 0.00908047 0)
(2.7511 0.0260389 0)
(2.33648 0.0640447 0)
(1.21916 0.187748 0)
(0.602912 0.278669 0)
(0.73225 0.316881 0)
(0.871409 0.309249 0)
(0.96002 0.303902 0)
(3 1.28009e-09 0)
(3 1.42997e-09 0)
(3 1.72144e-08 0)
(3 1.86876e-08 0)
(3 1.17727e-07 0)
(3 1.2453e-07 0)
(3 7.00641e-07 0)
(2.99999 7.35294e-07 0)
(2.99998 4.06339e-06 0)
(2.99994 4.21379e-06 0)
(2.99986 2.35438e-05 0)
(2.99963 2.36777e-05 0)
(2.99919 0.000137484 0)
(2.99782 0.00012413 0)
(2.99532 0.000845943 0)
(2.98658 0.000462101 0)
(2.971 0.00578858 0)
(2.91382 0.00124635 0)
(2.77024 0.0359103 0)
(2.38435 0.0362745 0)
(1.29516 0.166407 0)
(0.620635 0.275917 0)
(0.699261 0.305258 0)
(0.817005 0.281719 0)
(0.913607 0.270988 0)
(3 1.1061e-09 0)
(3 9.05975e-10 0)
(3 1.42638e-08 0)
(3 1.32845e-08 0)
(3 9.70078e-08 0)
(3 8.88454e-08 0)
(3 5.74634e-07 0)
(2.99999 5.1633e-07 0)
(2.99998 3.31534e-06 0)
(2.99994 2.88861e-06 0)
(2.99986 1.91162e-05 0)
(2.99968 1.58025e-05 0)
(2.99917 0.000111977 0)
(2.99818 7.62238e-05 0)
(2.995 0.000715185 0)
(2.98949 0.000152226 0)
(2.96855 0.00517528 0)
(2.92887 -0.000347488 0)
(2.78828 0.0307885 0)
(2.38891 0.0269019 0)
(1.48543 0.134486 0)
(0.690821 0.264998 0)
(0.694034 0.272652 0)
(0.791387 0.253646 0)
(0.889893 0.242237 0)
(3 -2.97673e-11 0)
(3 5.44835e-09 0)
(3 8.40781e-09 0)
(3 4.70329e-08 0)
(3 6.47152e-08 0)
(3 2.95329e-07 0)
(3 4.02647e-07 0)
(2.99999 1.75698e-06 0)
(2.99998 2.40054e-06 0)
(2.99995 1.03949e-05 0)
(2.99987 1.36096e-05 0)
(2.99971 6.29049e-05 0)
(2.99924 6.58805e-05 0)
(2.99832 0.000387423 0)
(2.99539 0.000216142 0)
(2.99029 0.00229799 0)
(2.97089 5.7358e-05 0)
(2.93476 0.0138241 0)
(2.80312 0.000440935 0)
(2.43105 0.0653391 0)
(1.58197 0.0902227 0)
(0.743002 0.243805 0)
(0.68463 0.243745 0)
(0.775493 0.233855 0)
(0.874876 0.223926 0)
(3 2.99269e-10 0)
(3 2.33128e-09 0)
(3 7.17939e-09 0)
(3 2.15985e-08 0)
(3 5.12067e-08 0)
(3 1.3511e-07 0)
(3 3.04451e-07 0)
(2.99999 7.80472e-07 0)
(2.99998 1.73933e-06 0)
(2.99995 4.42436e-06 0)
(2.9999 9.82782e-06 0)
(2.99973 2.48899e-05 0)
(2.99944 5.53907e-05 0)
(2.99831 0.000138363 0)
(2.99658 0.000314075 0)
(2.98937 0.000766451 0)
(2.97777 0.00174409 0)
(2.92971 0.00454561 0)
(2.81903 0.011527 0)
(2.49841 0.0300632 0)
(1.5357 0.0888666 0)
(0.766775 0.22166 0)
(0.65321 0.215418 0)
(0.750929 0.20786 0)
(0.85691 0.204169 0)
(3 6.9808e-10 0)
(3 -2.54031e-10 0)
(3 7.57221e-09 0)
(3 1.12676e-09 0)
(3 4.96171e-08 0)
(3 7.48669e-09 0)
(3 2.81855e-07 0)
(2.99999 4.49389e-09 0)
(2.99998 1.5382e-06 0)
(2.99996 -3.46332e-07 0)
(2.99989 8.74781e-06 0)
(2.99975 -6.08876e-06 0)
(2.99933 6.02226e-05 0)
(2.99854 -6.91733e-05 0)
(2.99592 0.000494266 0)
(2.99148 -0.000502876 0)
(2.97403 0.00383979 0)
(2.94279 -0.00316109 0)
(2.8238 0.0246277 0)
(2.49698 0.00520328 0)
(1.71839 0.0917829 0)
(0.815293 0.213697 0)
(0.638439 0.195115 0)
(0.737308 0.183092 0)
(0.847119 0.183886 0)
(3 -8.78749e-11 0)
(3 3.91228e-09 0)
(3 5.27328e-09 0)
(3 3.35979e-08 0)
(3 4.17149e-08 0)
(3 2.12478e-07 0)
(3 2.64667e-07 0)
(2.99999 1.27897e-06 0)
(2.99998 1.60454e-06 0)
(2.99996 7.67929e-06 0)
(2.9999 9.07813e-06 0)
(2.99977 4.74957e-05 0)
(2.99939 4.15807e-05 0)
(2.99867 0.00029569 0)
(2.99622 0.000103935 0)
(2.99215 0.00178099 0)
(2.9758 -0.00039182 0)
(2.94689 0.0109922 0)
(2.83445 -0.00295662 0)
(2.52672 0.0551714 0)
(1.78674 0.0610974 0)
(0.839596 0.19762 0)
(0.604382 0.175807 0)
(0.716516 0.162971 0)
(0.835846 0.16619 0)
(3 2.38301e-10 0)
(3 1.88707e-09 0)
(3 5.76632e-09 0)
(3 1.76124e-08 0)
(3 4.18087e-08 0)
(3 1.13371e-07 0)
(3 2.58149e-07 0)
(2.99999 6.85328e-07 0)
(2.99999 1.55821e-06 0)
(2.99996 4.08234e-06 0)
(2.99992 9.47445e-06 0)
(2.99977 2.2957e-05 0)
(2.99954 6.03677e-05 0)
(2.99859 0.000115771 0)
(2.99715 0.000341693 0)
(2.99107 0.000607794 0)
(2.98141 0.0015129 0)
(2.94097 0.0037478 0)
(2.85093 0.00868683 0)
(2.57934 0.0227513 0)
(1.73598 0.0676709 0)
(0.871359 0.180085 0)
(0.57606 0.15331 0)
(0.703817 0.140704 0)
(0.832661 0.144775 0)
(3 1.09483e-10 0)
(3 5.51122e-10 0)
(3 2.06615e-09 0)
(3 5.28301e-09 0)
(3 1.42468e-08 0)
(3 3.21081e-08 0)
(3 8.07744e-08 0)
(2.99999 1.72919e-07 0)
(2.99998 4.38059e-07 0)
(2.99997 8.7376e-07 0)
(2.99991 2.77507e-06 0)
(2.99981 3.20907e-06 0)
(2.99946 2.29897e-05 0)
(2.9989 2.00982e-05 0)
(2.99663 0.000172134 0)
(2.99312 0.000292549 0)
(2.97841 0.00109905 0)
(2.95277 0.0024578 0)
(2.84975 0.00810609 0)
(2.57733 0.0224043 0)
(1.89794 0.0627297 0)
(0.893327 0.179955 0)
(0.54602 0.142124 0)
(0.689353 0.124603 0)
(0.827938 0.125758 0)
(3 -3.16164e-10 0)
(3 1.65744e-09 0)
(3 -1.02772e-09 0)
(3 1.28133e-08 0)
(3 -4.58332e-09 0)
(3 7.79061e-08 0)
(3 -2.49197e-08 0)
(2.99999 4.56208e-07 0)
(2.99999 -1.54353e-07 0)
(2.99996 2.71349e-06 0)
(2.99992 -1.11864e-06 0)
(2.99979 1.79884e-05 0)
(2.99955 -1.37687e-05 0)
(2.99872 0.000147424 0)
(2.99738 -0.000154813 0)
(2.99185 0.00121198 0)
(2.98321 -0.00118917 0)
(2.94682 0.00813993 0)
(2.86714 -0.00618627 0)
(2.62491 0.0405711 0)
(1.86039 0.0427668 0)
(0.931547 0.160068 0)
(0.526698 0.125164 0)
(0.688947 0.107926 0)
(0.837835 0.107175 0)
(3 4.23241e-10 0)
(3 -9.68189e-10 0)
(3 3.37884e-09 0)
(3 -6.21925e-09 0)
(3 2.16537e-08 0)
(3 -3.54699e-08 0)
(3 1.28898e-07 0)
(2.99999 -2.03014e-07 0)
(2.99999 7.6437e-07 0)
(2.99997 -1.18678e-06 0)
(2.99992 4.66316e-06 0)
(2.9998 -7.32627e-06 0)
(2.99957 3.26616e-05 0)
(2.99879 -5.93592e-05 0)
(2.99752 0.00029458 0)
(2.99229 -0.000522753 0)
(2.98419 0.00264801 0)
(2.94972 -0.00341778 0)
(2.87497 0.0182426 0)
(2.6452 -0.00296611 0)
(1.91268 0.0671871 0)
(0.963602 0.133876 0)
(0.523014 0.102947 0)
(0.699261 0.0937546 0)
(0.855175 0.0930752 0)
(3 3.74504e-10 0)
(3 -1.22427e-09 0)
(3 2.40787e-09 0)
(3 -8.73489e-09 0)
(3 1.43419e-08 0)
(3 -5.33677e-08 0)
(3 7.85359e-08 0)
(2.99999 -3.26508e-07 0)
(2.99999 4.15226e-07 0)
(2.99997 -2.03021e-06 0)
(2.99992 2.22412e-06 0)
(2.99981 -1.2821e-05 0)
(2.99951 1.53048e-05 0)
(2.99893 -8.86682e-05 0)
(2.99699 0.000168413 0)
(2.99378 -0.000639513 0)
(2.98082 0.00193904 0)
(2.95864 -0.00406694 0)
(2.87015 0.014527 0)
(2.63876 -0.00872818 0)
(2.04206 0.0474753 0)
(0.946571 0.0980459 0)
(0.468892 0.0730154 0)
(0.66721 0.0746078 0)
(0.83137 0.0759443 0)
(3 4.2819e-11 0)
(3 3.26969e-10 0)
(3 1.01072e-09 0)
(3 2.98465e-09 0)
(3 7.0585e-09 0)
(3 1.8202e-08 0)
(3 4.05311e-08 0)
(2.99999 1.02393e-07 0)
(2.99999 2.21823e-07 0)
(2.99997 5.78512e-07 0)
(2.99992 1.23304e-06 0)
(2.99981 3.51488e-06 0)
(2.99951 7.26158e-06 0)
(2.99891 2.58968e-05 0)
(2.99706 4.26847e-05 0)
(2.99376 0.000219501 0)
(2.98147 0.000374477 0)
(2.9601 0.001638 0)
(2.87629 0.00356466 0)
(2.65651 0.0143298 0)
(2.07901 0.0342641 0)
(0.940072 0.0959204 0)
(0.422252 0.0619734 0)
(0.639741 0.0568203 0)
(0.807743 0.0562196 0)
(3 -2.40246e-10 0)
(3 1.97878e-09 0)
(3 4.19366e-10 0)
(3 1.59562e-08 0)
(3 6.21535e-09 0)
(3 1.00726e-07 0)
(3 5.06525e-08 0)
(2.99999 6.19847e-07 0)
(2.99999 3.8358e-07 0)
(2.99997 3.84881e-06 0)
(2.99992 2.70089e-06 0)
(2.99982 2.43937e-05 0)
(2.99953 1.44566e-05 0)
(2.99896 0.000162573 0)
(2.99715 2.23438e-05 0)
(2.99406 0.00106182 0)
(2.98198 -0.000573082 0)
(2.96134 0.00686491 0)
(2.87993 -0.00494678 0)
(2.66673 0.0334053 0)
(2.1068 0.0254436 0)
(0.947108 0.11999 0)
(0.398437 0.0647485 0)
(0.63369 0.0307952 0)
(0.805963 0.0251334 0)
(3 3.18358e-11 0)
(3 2.52363e-10 0)
(3 7.73907e-10 0)
(3 2.37096e-09 0)
(3 5.64409e-09 0)
(3 1.52544e-08 0)
(3 3.47081e-08 0)
(2.99999 9.08858e-08 0)
(2.99999 2.0466e-07 0)
(2.99997 5.24204e-07 0)
(2.99993 1.15894e-06 0)
(2.99982 2.91717e-06 0)
(2.99962 6.16424e-06 0)
(2.99892 1.69501e-05 0)
(2.99781 2.68356e-05 0)
(2.99327 0.000126657 0)
(2.98618 0.000135897 0)
(2.95663 0.000972473 0)
(2.89346 0.00160536 0)
(2.69833 0.00746425 0)
(2.08366 0.0201827 0)
(1.03664 0.0613005 0)
(0.471724 0.0394244 0)
(0.689595 0.0272868 0)
(0.860779 0.0232287 0)
(3 3.05932e-10 0)
(3 -1.45239e-09 0)
(3 1.16721e-09 0)
(3 -1.1094e-08 0)
(3 5.20686e-09 0)
(3 -6.9375e-08 0)
(3 2.0225e-08 0)
(2.99999 -4.27791e-07 0)
(2.99999 5.07017e-08 0)
(2.99997 -2.67391e-06 0)
(2.99992 -2.7843e-08 0)
(2.99982 -1.72198e-05 0)
(2.99954 1.86389e-06 0)
(2.99898 -0.000119383 0)
(2.99724 7.50183e-05 0)
(2.99415 -0.000804491 0)
(2.98268 0.00113564 0)
(2.96259 -0.00513538 0)
(2.88528 0.00843531 0)
(2.68368 -0.0200661 0)
(2.14635 0.00699661 0)
(0.963271 -0.0190775 0)
(0.38686 -0.0108045 0)
(0.63654 0.00564677 0)
(0.814272 0.00853812 0)
(1.11246 0.986945 0)
(1.01393 0.694546 0)
(0.128786 0.427229 0)
(-0.403454 0.0263591 0)
(-0.505111 -0.015639 0)
(-0.659886 -0.0278823 0)
(-0.712969 -0.0229984 0)
(-0.734054 -0.00371777 0)
(-0.752276 0.0115382 0)
(-0.778554 0.0167274 0)
(-0.800393 0.0164395 0)
(-0.808788 0.0121543 0)
(-0.807111 0.00595376 0)
(-0.800779 -3.81395e-05 0)
(-0.792064 -0.00253444 0)
(-0.778068 -0.00328903 0)
(-0.757409 -0.0038828 0)
(-0.73058 -0.00471173 0)
(-0.698436 -0.00546596 0)
(-0.661958 -0.00616436 0)
(-0.622024 -0.00681058 0)
(-0.579256 -0.00749773 0)
(-0.534163 -0.0083227 0)
(-0.487063 -0.00929077 0)
(-0.437359 -0.0112105 0)
(-0.387154 -0.0123785 0)
(-0.336317 -0.0136032 0)
(-0.285535 -0.0147548 0)
(-0.234794 -0.0163068 0)
(-0.184516 -0.018132 0)
(-0.135012 -0.0200778 0)
(-0.0851749 -0.0218395 0)
(-0.0374774 -0.0240056 0)
(0.0151673 -0.0259154 0)
(0.0659055 -0.0240518 0)
(0.112554 -0.0228117 0)
(0.158353 -0.0220695 0)
(0.202624 -0.0216675 0)
(0.245069 -0.0209859 0)
(0.286423 -0.020336 0)
(0.325035 -0.0194179 0)
(0.362184 -0.0189143 0)
(0.400999 -0.0190857 0)
(0.440619 -0.0193625 0)
(0.478576 -0.0186862 0)
(0.515086 -0.017827 0)
(0.550459 -0.0170993 0)
(0.584889 -0.0165024 0)
(0.61849 -0.0159266 0)
(0.651325 -0.0153884 0)
(0.683397 -0.0148344 0)
(0.714766 -0.0143081 0)
(0.745425 -0.0137673 0)
(0.775415 -0.0132475 0)
(0.804735 -0.0127232 0)
(0.833423 -0.0122177 0)
(0.861479 -0.0117192 0)
(0.888926 -0.0112352 0)
(0.915777 -0.0107632 0)
(0.942047 -0.0103048 0)
(0.967752 -0.00985781 0)
(0.992901 -0.00942452 0)
(1.01751 -0.00900012 0)
(1.04158 -0.00858807 0)
(1.06513 -0.00818442 0)
(1.08816 -0.00779118 0)
(1.11068 -0.00740643 0)
(1.1327 -0.00703095 0)
(1.15421 -0.00666419 0)
(1.17522 -0.00630674 0)