/*--------------------------------*- C++ -*----------------------------------*\
| =========                 |                                                 |
| \\      /  F ield         | OpenFOAM: The Open Source CFD Toolbox           |
|  \\    /   O peration     | Version:  2412                                  |
|   \\  /    A nd           | Website:  www.openfoam.com                      |
|    \\/     M anipulation  |                                                 |
\*---------------------------------------------------------------------------*/
FoamFile
{
    version     2.0;
    format      ascii;
    arch        "LSB;label=32;scalar=64";
    class       volScalarField;
    location    "7.5";
    object      p;
}
// * * * * * * * * * * * * * * * * * * * * * * * * * * * * * * * * * * * * * //

dimensions      [1 -1 -2 0 0 0 0];

internalField   nonuniform List<scalar> 
5250
(
1.00001
1.00005
1.00011
1.00032
1.00067
1.00192
1.00378
1.01168
1.02067
1.07573
1.12618
1.49326
2.06875
4.4413
9.95997
11.0923
10.9763
10.956
11.0458
11.2662
11.473
11.6023
11.7031
11.7821
11.8413
1.00001
1.00004
1.00011
1.00032
1.00066
1.00189
1.00372
1.01151
1.02033
1.07473
1.12403
1.48776
2.05004
4.3995
9.86415
11.0891
10.9731
10.9493
11.0391
11.2592
11.465
11.5946
11.6966
11.7769
11.8374
1.00001
1.00004
1.0001
1.00031
1.00064
1.00183
1.00359
1.01117
1.01963
1.07263
1.11956
1.47604
2.01052
4.30795
9.64752
11.0835
10.9629
10.925
11.0121
11.2278
11.4301
11.5577
11.659
11.7386
11.7995
1.00001
1.00004
1.0001
1.00029
1.00061
1.00175
1.00342
1.01067
1.01869
1.06938
1.11364
1.45485
1.95277
4.16124
9.29849
11.0871
10.9531
10.8844
10.9657
11.1723
11.3695
11.4929
11.5912
11.6687
11.7306
1.00001
1.00004
1.00009
1.00028
1.00057
1.00165
1.00322
1.01004
1.01759
1.06526
1.10665
1.42624
1.88699
3.95198
8.81017
11.1049
10.9461
10.8289
10.902
11.0957
11.2859
11.4026
11.4953
11.5693
11.633
1.00001
1.00004
1.00009
1.00026
1.00053
1.00153
1.00299
1.00929
1.0163
1.06027
1.0983
1.391
1.80933
3.68548
8.16953
11.1482
10.9449
10.7577
10.8205
10.9968
11.1766
11.283
11.3658
11.4326
11.497
1
1.00003
1.00008
1.00024
1.00049
1.0014
1.00276
1.0084
1.01511
1.05399
1.08926
1.34902
1.71706
3.37108
7.3666
11.2163
10.9482
10.6718
10.721
10.8726
11.0373
11.1267
11.191
11.2409
11.3
1
1.00003
1.00007
1.00021
1.00044
1.00125
1.00251
1.00743
1.01385
1.04695
1.07953
1.30284
1.6165
3.02913
6.44366
11.2789
10.9522
10.579
10.6079
10.7208
10.8643
10.9278
10.9614
10.9758
11.0098
1
1.00003
1.00006
1.00019
1.00039
1.0011
1.00223
1.00643
1.01245
1.03972
1.0693
1.25591
1.50689
2.68005
5.41336
11.2194
10.9168
10.4879
10.477
10.539
10.6513
10.6744
10.6583
10.5973
10.5439
1
1.00002
1.00006
1.00016
1.00034
1.00096
1.00194
1.00559
1.0109
1.03436
1.0608
1.22174
1.42755
2.47844
4.78826
10.7854
10.7095
10.4132
10.3004
10.3301
10.3875
10.3653
10.2708
10.052
9.72392
1
1.00002
1.00005
1.00011
1.00033
1.00065
1.00195
1.00355
1.01215
1.02023
1.07677
1.12925
1.50102
2.10759
4.43688
9.82412
10.4217
10.2712
10.1019
10.0974
10.0838
10.001
9.75915
9.19478
7.7766
1
1.00002
1.00004
1.00012
1.00026
1.00073
1.00148
1.00427
1.00832
1.02614
1.04625
1.16902
1.30303
2.14763
3.72547
8.74286
10.262
10.1526
9.92904
9.85832
9.78412
9.61271
9.23742
8.48352
7.04686
1
1.00002
1.00004
1.00011
1.00022
1.00063
1.00128
1.00365
1.00717
1.02209
1.03945
1.14304
1.25144
1.96231
3.22507
7.51
10.1635
10.0509
9.78102
9.62138
9.49182
9.24363
8.78481
8.02998
6.90207
1
1.00001
1.00003
1.00009
1.00019
1.00054
1.00111
1.00313
1.00631
1.01834
1.0354
1.11481
1.21286
1.76175
2.76784
6.19845
10.0745
9.95974
9.65032
9.39584
9.20726
8.92216
8.45265
7.76621
6.87683
1
1.00001
1.00003
1.00008
1.00016
1.00045
1.00091
1.00257
1.00519
1.01488
1.02946
1.08965
1.17681
1.57614
2.34261
4.87012
9.81032
9.78696
9.54224
9.19648
8.95379
8.65219
8.20845
7.59587
6.84874
1
1.00001
1.00002
1.00006
1.00013
1.00036
1.00073
1.00205
1.00414
1.01189
1.02319
1.07301
1.13397
1.46753
2.05579
4.17478
8.99763
9.50814
9.3519
9.01844
8.73655
8.42745
8.01341
7.46576
6.81769
1
1.00001
1.00002
1.00005
1.0001
1.00028
1.00057
1.0016
1.00316
1.00946
1.01709
1.05987
1.09952
1.38346
1.78385
3.55235
7.50243
9.21295
9.1325
8.89054
8.56367
8.24277
7.85001
7.35631
6.78267
1
1.00001
1.00001
1.00004
1.00008
1.00022
1.00045
1.00127
1.00255
1.00737
1.01404
1.04573
1.0787
1.29278
1.58943
2.91838
5.93524
9.02094
8.9968
8.81142
8.43761
8.0919
7.71549
7.26475
6.7507
1
1
1.00001
1.00003
1.00006
1.00017
1.00035
1.00097
1.00196
1.00555
1.01096
1.03317
1.06089
1.20687
1.41468
2.31902
4.26209
8.62182
8.89755
8.73605
8.36976
7.97603
7.60199
7.18607
6.72161
1
1
1.00001
1.00002
1.00005
1.00011
1.0003
1.00061
1.00172
1.00339
1.01019
1.01842
1.06391
1.10944
1.40111
1.85681
3.60787
7.49738
8.67643
8.57747
8.29395
7.88093
7.50386
7.11352
6.69109
1
1
1.00001
1.00001
1.00004
1.00008
1.00023
1.00047
1.00131
1.00264
1.00757
1.01464
1.04649
1.08179
1.29555
1.60046
2.90649
5.81612
8.39896
8.38383
8.21166
7.8322
7.42903
7.05374
6.66226
1
1
1
1.00001
1.00003
1.00007
1.00014
1.0004
1.00081
1.00229
1.00461
1.0133
1.02624
1.07952
1.1585
1.49682
2.14658
4.11717
7.89636
8.26495
8.13236
7.80431
7.37691
7.00345
6.63876
1
1
1
1.00001
1.00002
1.00004
1.00012
1.00024
1.00066
1.00133
1.00385
1.00724
1.02351
1.04039
1.14695
1.26006
1.95734
3.16117
6.76497
8.062
7.99367
7.7688
7.35283
6.96988
6.61842
1
1
1
1.00001
1.00001
1.00003
1.00007
1.0002
1.0004
1.00112
1.00217
1.0067
1.01168
1.04203
1.0686
1.25984
1.50603
2.63167
4.99315
7.69549
7.81973
7.69197
7.36615
6.96689
6.61121
1
1
1
1
1.00001
1.00002
1.00006
1.00012
1.00035
1.0007
1.00197
1.00398
1.01136
1.02249
1.06728
1.13322
1.41237
1.94104
3.55863
6.90357
7.67099
7.5942
7.36086
6.97814
6.61501
1
1
1
1
1.00001
1.00002
1.00004
1.00009
1.00024
1.00049
1.00136
1.00276
1.00777
1.01539
1.04609
1.08635
1.28343
1.60186
2.77654
5.35434
7.38839
7.4399
7.32808
7.02762
6.63198
1
1
1
1
1
1.00001
1.00002
1.00007
1.00014
1.00039
1.00078
1.00218
1.00438
1.01245
1.02469
1.07283
1.14736
1.44218
2.00792
3.64332
6.79487
7.33355
7.26151
7.04737
6.67421
1
1
1
1
1
1.00001
1.00002
1.00004
1.00011
1.00022
1.00059
1.0012
1.00338
1.00653
1.02013
1.03533
1.12459
1.21782
1.78767
2.71287
5.5307
7.10725
7.1279
7.02988
6.77112
1
1
1
1
1
1.00001
1.00001
1.00003
1.00006
1.00017
1.00034
1.00093
1.00188
1.0053
1.01031
1.03157
1.05607
1.19299
1.37095
2.15477
3.68785
6.57327
7.03943
6.98713
6.81932
1
1
1
1
1
1
1.00001
1.00002
1.00004
1.00011
1.00022
1.00061
1.00124
1.00345
1.00677
1.02024
1.03644
1.12509
1.22057
1.77729
2.69636
5.39116
6.82485
6.8919
6.8112
1
1
1
1
1
1
1.00001
1.00001
1.00003
1.00006
1.00017
1.00034
1.00093
1.00187
1.00523
1.0102
1.03094
1.05541
1.18873
1.36051
2.11833
3.58141
6.29085
6.80344
6.77974
1
1
1
1
1
1
1
1.00001
1.00002
1.00004
1.00011
1.00022
1.0006
1.00121
1.00335
1.00661
1.01957
1.03543
1.12037
1.21173
1.73967
2.59566
5.11594
6.57489
6.75239
1
1
1
1
1
1
1
1.00001
1.00001
1.00003
1.00006
1.00016
1.00032
1.00089
1.00179
1.00496
1.00988
1.02861
1.0543
1.16911
1.34452
1.99164
3.25779
6.03885
6.69067
1
1
1
1
1
1
1
1
1.00001
1.00002
1.00004
1.00009
1.00024
1.00049
1.00134
1.00271
1.00754
1.01493
1.04395
1.08238
1.2633
1.54628
2.56632
4.7259
6.45397
1
1
1
1
1
1
1
1
1.00001
1.00001
1.00003
1.00006
1.00015
1.00031
1.00085
1.00172
1.00471
1.00946
1.0265
1.05281
1.15373
1.31942
1.91787
3.10935
5.87162
1
1
1
1
1
1
1
1
1
1.00001
1.00002
1.00004
1.0001
1.0002
1.00055
1.00111
1.00305
1.00614
1.01719
1.03367
1.10194
1.1919
1.62411
2.35914
4.53038
1
1
1
1
1
1
1
1
1
1.00001
1.00001
1.00003
1.00006
1.00016
1.00032
1.00088
1.00179
1.00494
1.00992
1.02841
1.05473
1.17052
1.33948
2.07022
3.4859
1
1
1
1
1
1
1
1
1
1
1.00001
1.00002
1.00004
1.00012
1.00024
1.00067
1.00136
1.00379
1.00758
1.02217
1.04147
1.13936
1.25394
1.92187
3.12804
1
1
1
1
1
1
1
1
1
1
1.00001
1.00001
1.00004
1.00008
1.00022
1.00045
1.00128
1.00243
1.00783
1.01333
1.04978
1.08178
1.32231
1.66777
3.21008
1
1
1
1
1
1
1
1
1
1
1.00001
1.00002
1.00003
1.00009
1.00019
1.00053
1.00109
1.00311
1.00622
1.01868
1.03503
1.12055
1.22151
1.82374
2.97818
1
1
1
1
1
1
1
1
1
1
1.00001
1.00001
1.00003
1.00009
1.00018
1.0005
1.00102
1.00295
1.00591
1.01782
1.03343
1.11571
1.21223
1.79597
2.9165
1
1
1
1
1
1
1
1
1
1
1.00001
1.00001
1.00003
1.00006
1.00018
1.00037
1.00109
1.00203
1.00683
1.01148
1.04402
1.07203
1.28751
1.59471
2.98263
1
1
1
1
1
1
1
1
1
1
1
1.00001
1.00003
1.00008
1.00016
1.00046
1.00093
1.00272
1.0053
1.01685
1.02985
1.11024
1.1956
1.73839
2.75052
1
1
1
1
1
1
1
1
1
1
1.00001
1.00001
1.00003
1.00006
1.00018
1.00037
1.00106
1.00209
1.00644
1.01148
1.04162
1.06858
1.26868
1.54233
2.81092
1
1
1
1
1
1
1
1
1
1
1.00001
1.00001
1.00003
1.00006
1.00018
1.00037
1.00105
1.00208
1.00632
1.01144
1.04044
1.06713
1.26109
1.52237
2.75049
1
1
1
1
1
1
1
1
1
1
1
1.00001
1.00003
1.00008
1.00016
1.00046
1.00093
1.00266
1.00535
1.01586
1.03043
1.10058
1.18762
1.67206
2.58491
1
1
1
1
1
1
1
1
1
1
1
1.00001
1.00003
1.00008
1.00016
1.00046
1.00093
1.00265
1.00535
1.01564
1.03075
1.09754
1.18676
1.65293
2.54672
1
1
1
1
1
1
1
1
1
1
1
1.00001
1.00003
1.00008
1.00016
1.00045
1.00091
1.0026
1.00525
1.0155
1.02981
1.09802
1.18259
1.65339
2.53719
1
1
1
1
1
1
1
1
1
1
1.00001
1.00001
1.00003
1.00006
1.00017
1.00034
1.00099
1.0019
1.00608
1.01044
1.03904
1.06331
1.2493
1.49247
2.6636
1
1
1
1
1
1
1
1
1
1
1
1.00001
1.00003
1.00008
1.00015
1.00044
1.00089
1.00255
1.00514
1.01526
1.02907
1.09693
1.17906
1.6442
2.51304
3.80562
3.02784
3.93662
4.26522
3.94472
3.82569
3.75692
3.69242
3.59669
3.4962
3.4072
3.32751
3.24769
3.169
3.08947
3.01022
2.96736
2.94986
2.94544
2.95551
3.00078
3.0821
3.19289
3.32222
3.45905
3.59641
3.73035
3.85971
3.98073
4.09369
4.19896
4.29734
4.38922
4.47473
4.55448
4.62789
4.6931
4.75085
4.80152
4.84569
4.88213
4.91896
4.94713
4.96768
4.98168
4.9905
4.994
4.99334
4.98947
4.98034
4.96578
4.9484
4.92835
4.90564
4.88023
4.85251
4.82255
4.79069
4.75696
4.72163
4.68479
4.6466
4.60717
4.56664
4.52509
4.48265
4.43937
4.39537
4.3507
4.30542
4.25959
4.21327
4.1665
4.11932
4.0718
4.02395
3.97585
3.92751
3.87903
3.8304
3.78173
3.73304
3.68441
3.63587
3.58749
3.53932
3.49139
3.44378
3.39653
3.34975
3.3035
3.25794
3.21318
3.16952
3.12719
3.0867
3.04874
3.01446
2.98527
2.96408
4.64218
3.98398
4.22515
4.15709
3.93446
3.83118
3.79924
3.72647
3.60198
3.48425
3.39063
3.31844
3.24095
3.16212
3.08736
3.01855
2.96884
2.94573
2.93884
2.94667
2.99113
3.07175
3.18299
3.31366
3.45181
3.59007
3.72395
3.85264
3.97399
4.08677
4.19145
4.28917
4.38038
4.46373
4.54437
4.61824
4.68419
4.74248
4.79352
4.838
4.87627
4.911
4.93923
4.96042
4.97501
4.98406
4.98778
4.98734
4.98438
4.97641
4.96108
4.94337
4.92353
4.90119
4.87615
4.84864
4.8189
4.78718
4.75365
4.71846
4.68177
4.64371
4.60443
4.564
4.52257
4.4802
4.43703
4.3931
4.34851
4.30329
4.25753
4.21125
4.16452
4.11738
4.06989
4.02207
3.97398
3.92568
3.87719
3.8286
3.77993
3.73128
3.68267
3.63418
3.58583
3.53771
3.48982
3.44227
3.39504
3.34831
3.30209
3.25652
3.21172
3.16804
3.12567
3.08515
3.04701
3.01241
2.9827
2.96077
5.41139
4.57404
4.37168
4.17913
3.96206
3.83853
3.76412
3.68516
3.58386
3.47873
3.39432
3.32592
3.24181
3.15539
3.07571
3.00851
2.95993
2.93623
2.9287
2.93859
2.97888
3.05433
3.16381
3.2956
3.43435
3.57306
3.70568
3.83717
3.95877
4.07241
4.17789
4.27645
4.36867
4.45441
4.5352
4.60896
4.67492
4.73348
4.78496
4.82986
4.86857
4.90244
4.93039
4.95175
4.96667
4.97581
4.9796
4.97922
4.97685
4.97016
4.95604
4.93718
4.91694
4.89476
4.87014
4.84295
4.81348
4.78196
4.74862
4.7136
4.67709
4.63918
4.60003
4.55974
4.51843
4.47619
4.43312
4.38926
4.34474
4.29957
4.25385
4.2076
4.1609
4.11377
4.06629
4.01847
3.97039
3.92206
3.87359
3.82498
3.77635
3.7277
3.67914
3.63068
3.5824
3.5343
3.48651
3.43905
3.39191
3.34528
3.29925
3.25386
3.20927
3.1655
3.12299
3.08217
3.04369
3.00849
2.978
2.95507
5.7722
4.93573
4.50173
4.23882
4.02623
3.87032
3.77376
3.68444
3.57783
3.47028
3.3825
3.30747
3.22743
3.14386
3.06767
3.00457
2.9617
2.93673
2.92129
2.92444
2.96459
3.04111
3.1497
3.27946
3.41736
3.55617
3.69081
3.82144
3.94323
4.05684
4.16287
4.26175
4.35402
4.4397
4.51971
4.59305
4.65917
4.71777
4.76951
4.81451
4.85351
4.88684
4.91453
4.936
4.95135
4.96082
4.96482
4.96452
4.96268
4.95736
4.94556
4.9262
4.90535
4.88316
4.85896
4.83234
4.80341
4.77233
4.7394
4.70474
4.66858
4.63099
4.59215
4.55213
4.51108
4.46905
4.42618
4.38252
4.33816
4.29316
4.24755
4.20143
4.15481
4.10777
4.06033
4.01256
3.9645
3.91621
3.86776
3.81921
3.77063
3.7221
3.67362
3.62531
3.5772
3.52918
3.4816
3.43436
3.38757
3.34114
3.29517
3.2498
3.20518
3.16143
3.11884
3.07781
3.0389
3.00304
2.97158
2.94712
5.95902
5.18951
4.67751
4.35483
4.12161
3.93947
3.80684
3.69926
3.58799
3.48064
3.38979
3.30917
3.22658
3.14498
3.07199
3.01236
2.97038
2.94504
2.93683
2.94495
2.97863
3.05207
3.15366
3.27276
3.40021
3.53377
3.66628
3.79577
3.91815
4.03268
4.13961
4.23933
4.33219
4.41841
4.49842
4.57177
4.63801
4.69684
4.74885
4.79412
4.83334
4.86661
4.89426
4.916
4.93184
4.94186
4.94643
4.94624
4.94488
4.94079
4.93145
4.91308
4.89187
4.86936
4.84527
4.81917
4.79081
4.76034
4.72787
4.69369
4.65788
4.62069
4.58214
4.54246
4.50165
4.4599
4.41723
4.3738
4.32958
4.28474
4.23927
4.19328
4.14674
4.09979
4.0524
4.00468
3.95666
3.90841
3.86001
3.81154
3.76306
3.71469
3.6663
3.61819
3.57029
3.52282
3.47547
3.42845
3.38181
3.33557
3.28978
3.24455
3.20002
3.15634
3.11371
3.0725
3.03318
2.99664
2.96422
2.93814
6.0722
5.3829
4.85795
4.48996
4.22791
4.0256
3.86934
3.73831
3.6193
3.50946
3.4105
3.32197
3.23895
3.16359
3.0996
3.04996
3.01701
3.0029
3.00447
3.01498
3.04497
3.10721
3.18875
3.2826
3.38863
3.50181
3.62585
3.75559
3.88125
3.99904
4.10791
4.20869
4.30201
4.38824
4.46795
4.54115
4.60759
4.66704
4.71953
4.76528
4.8048
4.83835
4.86633
4.88856
4.90515
4.91603
4.92146
4.9214
4.92044
4.91734
4.90999
4.89482
4.87389
4.85119
4.82719
4.80151
4.77383
4.74406
4.7123
4.67873
4.64349
4.60678
4.5687
4.52942
4.489
4.4476
4.40525
4.3621
4.31816
4.27355
4.22827
4.18245
4.13605
4.0892
4.04189
3.99423
3.94626
3.89806
3.84978
3.80141
3.75313
3.70498
3.65714
3.60942
3.56189
3.51465
3.46759
3.42083
3.37439
3.32836
3.28277
3.23774
3.19333
3.14975
3.1071
3.06577
3.02612
2.98899
2.95572
2.92815
6.14421
5.52986
5.01921
4.63001
4.33819
4.11752
3.9403
3.79638
3.67059
3.55584
3.45147
3.35589
3.27432
3.2091
3.15941
3.12789
3.11277
3.11477
3.12538
3.15082
3.189
3.22651
3.26955
3.32227
3.38707
3.463
3.56204
3.68764
3.81959
3.94653
4.06249
4.16726
4.26212
4.34884
4.42849
4.50168
4.56852
4.62883
4.68239
4.72933
4.76994
4.80431
4.83307
4.85608
4.87366
4.88563
4.89225
4.89302
4.89235
4.88999
4.88426
4.87223
4.85292
4.83078
4.80697
4.78159
4.75441
4.72532
4.69426
4.66136
4.62674
4.59058
4.553
4.51417
4.47416
4.43315
4.39114
4.34831
4.30463
4.26028
4.21521
4.16956
4.1233
4.07655
4.02933
3.98173
3.93386
3.88562
3.83759
3.78971
3.7419
3.69422
3.64671
3.59934
3.55212
3.5051
3.45831
3.41179
3.36562
3.31984
3.27452
3.22973
3.18555
3.14213
3.09959
3.05823
3.0184
2.98081
2.9469
2.91809
6.19107
5.64088
5.15741
4.7629
4.45377
4.21151
4.01855
3.86145
3.72706
3.60775
3.50123
3.40932
3.33536
3.28476
3.25585
3.25314
3.25955
3.28301
3.33457
3.37984
3.40113
3.40696
3.40658
3.4071
3.41564
3.44504
3.50895
3.59357
3.71869
3.8571
3.9888
4.10628
4.2095
4.30058
4.38202
4.45559
4.52247
4.58329
4.63792
4.68627
4.72804
4.76384
4.79374
4.8179
4.83658
4.84984
4.85782
4.86
4.85952
4.85774
4.85334
4.84401
4.82717
4.80639
4.78317
4.75815
4.73142
4.70293
4.67257
4.6404
4.60648
4.57097
4.53398
4.49569
4.45617
4.4156
4.374
4.33153
4.2882
4.24412
4.19931
4.15385
4.10776
4.06111
4.01401
3.96649
3.91882
3.87133
3.82365
3.7761
3.72866
3.68132
3.63409
3.58699
3.54007
3.49335
3.44689
3.40071
3.35489
3.30945
3.26448
3.22001
3.17614
3.13298
3.09063
3.04937
3.0095
2.97162
2.93728
2.90755
6.22362
5.72692
5.27254
4.88394
4.56583
4.30958
4.10236
3.93193
3.79057
3.6682
3.56166
3.47668
3.41713
3.39206
3.39482
3.41035
3.45328
3.54486
3.6364
3.66453
3.65977
3.63992
3.59145
3.51547
3.47308
3.4765
3.49668
3.54751
3.62728
3.74325
3.88021
4.0119
4.13118
4.23492
4.32433
4.40193
4.47042
4.53178
4.58683
4.63604
4.67879
4.71605
4.74762
4.77329
4.79346
4.80835
4.81798
4.8221
4.82188
4.82073
4.8176
4.81074
4.79693
4.77802
4.75594
4.73165
4.7055
4.67761
4.64792
4.61649
4.58332
4.54854
4.51221
4.47455
4.43558
4.39551
4.35436
4.31231
4.26933
4.22556
4.18099
4.13572
4.08976
4.04322
3.99626
3.94922
3.90205
3.85496
3.80781
3.76068
3.71359
3.66659
3.61968
3.57294
3.52636
3.48003
3.43395
3.38819
3.34277
3.29776
3.25318
3.20912
3.16561
3.1228
3.08074
3.0397
2.99993
2.96196
2.9274
2.89699
6.24265
5.79106
5.36681
4.99083
4.67134
4.40675
4.18902
4.00951
3.86008
3.73696
3.6364
3.5643
3.53504
3.53953
3.56097
3.61826
3.74254
3.90798
3.98947
3.98604
3.96397
3.90506
3.78302
3.65478
3.56542
3.52643
3.52922
3.54541
3.58819
3.66116
3.75887
3.88184
4.01119
4.13261
4.23923
4.32979
4.40642
4.47195
4.52896
4.57904
4.62296
4.66142
4.69438
4.72181
4.744
4.76102
4.77272
4.77927
4.78016
4.77954
4.77747
4.77256
4.76236
4.74564
4.72521
4.70209
4.67675
4.64954
4.62052
4.58981
4.55739
4.52338
4.48779
4.45081
4.41246
4.37296
4.33231
4.29069
4.24809
4.20464
4.1603
4.11519
4.06938
4.02318
3.97675
3.93021
3.88356
3.83687
3.79014
3.74339
3.69667
3.65004
3.60351
3.55715
3.511
3.46508
3.41945
3.37414
3.32919
3.28463
3.24053
3.19693
3.15389
3.11151
3.06985
3.02916
2.98966
2.9518
2.91725
2.88652
6.2526
5.84002
5.44444
5.08471
4.76954
4.50176
4.27753
4.09183
3.93923
3.81716
3.72937
3.68922
3.69344
3.71599
3.7783
3.91613
4.15537
4.32347
4.34776
4.33128
4.27629
4.15277
3.97076
3.81261
3.69525
3.62062
3.5869
3.58827
3.59911
3.63013
3.69225
3.76761
3.86949
3.9928
4.1145
4.22412
4.31792
4.39624
4.46122
4.51563
4.5618
4.60155
4.63579
4.66491
4.6888
4.70796
4.72197
4.73107
4.73473
4.73448
4.73326
4.73002
4.72298
4.70909
4.69079
4.66917
4.64494
4.61855
4.59029
4.56029
4.52862
4.49535
4.46051
4.42422
4.38655
4.34762
4.30752
4.26634
4.22414
4.18096
4.13683
4.09196
4.04661
4.00096
3.95509
3.90902
3.86283
3.81653
3.77021
3.72387
3.67759
3.63138
3.58531
3.53941
3.49373
3.4483
3.40318
3.35837
3.31395
3.26994
3.22638
3.18333
3.14083
3.09898
3.05784
3.01762
2.97856
2.94103
2.90673
2.87606
6.26205
5.87904
5.50891
5.16658
4.86016
4.59407
4.36797
4.18038
4.02983
3.91693
3.85842
3.86118
3.88207
3.94387
4.08395
4.36542
4.62988
4.72473
4.7134
4.66823
4.56024
4.35501
4.15432
3.98559
3.85258
3.75475
3.68931
3.65288
3.64638
3.65152
3.67112
3.71433
3.76926
3.85028
3.96157
4.07812
4.18911
4.28718
4.36931
4.43615
4.49025
4.53455
4.57136
4.60222
4.62797
4.64909
4.66514
4.67698
4.6838
4.68513
4.68456
4.6826
4.67792
4.66816
4.65221
4.63242
4.60965
4.58445
4.55715
4.52801
4.49714
4.46465
4.43058
4.39505
4.35808
4.31982
4.28029
4.23961
4.19779
4.15482
4.11106
4.06674
4.022
3.97692
3.93156
3.88598
3.84025
3.79441
3.74854
3.70267
3.65687
3.61116
3.5656
3.52022
3.47507
3.43019
3.38561
3.34139
3.29754
3.25413
3.21117
3.16875
3.12686
3.08566
3.04514
3.00555
2.9671
2.93014
2.89633
2.8661
6.2665
5.91268
5.56602
5.2393
4.94392
4.68401
4.4614
4.27842
4.13853
4.05016
4.04886
4.06642
4.12615
4.26744
4.55742
4.89546
5.08164
5.07896
5.04825
4.96038
4.77581
4.54429
4.33933
4.16854
4.02844
3.91513
3.82644
3.76056
3.71754
3.69376
3.69483
3.70368
3.72784
3.76756
3.82788
3.91994
4.02824
4.13845
4.23947
4.32604
4.39701
4.45358
4.49825
4.53375
4.56233
4.58559
4.60395
4.61791
4.62742
4.632
4.63189
4.63095
4.6282
4.622
4.60947
4.59191
4.57094
4.54722
4.52111
4.49296
4.46295
4.43126
4.39796
4.36317
4.32692
4.28932
4.25039
4.21019
4.16869
4.12627
4.08307
4.03935
3.9952
3.95066
3.90584
3.86077
3.81555
3.77021
3.72486
3.6795
3.63423
3.58905
3.54405
3.49923
3.45468
3.41039
3.36644
3.32284
3.27964
3.2369
3.19462
3.1529
3.11174
3.07127
3.03153
2.99273
2.9551
2.91898
2.88597
2.85666
6.27187
5.93955
5.61517
5.30837
5.02568
4.7753
4.56219
4.39394
4.27896
4.254
4.27014
4.32761
4.46696
4.7574
5.14452
5.39776
5.44028
5.41655
5.34019
5.17323
4.94065
4.71992
4.52708
4.3609
4.21712
4.09241
3.9855
3.896
3.82458
3.77115
3.73651
3.72197
3.72452
3.73603
3.76101
3.80446
3.87422
3.97107
4.07432
4.17569
4.26701
4.3437
4.40482
4.45206
4.48823
4.51608
4.53772
4.55393
4.56565
4.57312
4.57528
4.57488
4.57335
4.56953
4.56142
4.54686
4.52815
4.50623
4.4816
4.45467
4.42569
4.39489
4.36242
4.3284
4.2929
4.25599
4.21766
4.1779
4.13699
4.09524
4.05279
4.00975
3.96622
3.92229
3.87806
3.83356
3.78892
3.74416
3.69939
3.6546
3.60992
3.56534
3.52096
3.47676
3.43285
3.38922
3.34595
3.30305
3.26058
3.21858
3.17707
3.13614
3.09581
3.05622
3.0174
2.9796
2.94304
2.90814
2.87626
2.8485
6.28006
5.96474
5.66176
5.37354
5.10776
4.87368
4.68034
4.53933
4.48766
4.50058
4.55331
4.68752
4.97236
5.39277
5.69534
5.78009
5.76178
5.69641
5.54823
5.3175
5.09425
4.89501
4.71702
4.55627
4.40973
4.27614
4.15531
4.04797
3.95485
3.87689
3.81458
3.76969
3.74037
3.7341
3.73776
3.75006
3.77792
3.82923
3.90536
4.00018
4.09965
4.19397
4.27636
4.34356
4.3957
4.43478
4.46353
4.48461
4.49906
4.50898
4.51424
4.5146
4.514
4.51196
4.50712
4.49706
4.48098
4.46123
4.43841
4.41298
4.38523
4.35548
4.32393
4.29075
4.25603
4.21982
4.18205
4.14295
4.10285
4.06189
4.0202
3.97789
3.93505
3.89179
3.8482
3.80436
3.76035
3.71622
3.67208
3.62793
3.58389
3.53996
3.49624
3.45273
3.40951
3.36661
3.32408
3.28195
3.24027
3.1991
3.15845
3.11843
3.07906
3.0405
3.00282
2.96629
2.93114
2.89794
2.86768
2.84233
6.29897
5.99883
5.71128
5.44217
5.19582
4.98637
4.82598
4.75026
4.75987
4.80759
4.93608
5.21309
5.65166
5.98516
6.10091
6.08703
6.03046
5.8985
5.67223
5.45135
5.25257
5.07279
4.90611
4.74904
4.60011
4.45963
4.32834
4.20763
4.09836
4.00168
3.91812
3.84838
3.79378
3.75568
3.73331
3.73337
3.73623
3.74876
3.77889
3.83896
3.92
4.01361
4.10828
4.19562
4.26985
4.32852
4.37236
4.40368
4.42527
4.43909
4.44746
4.45082
4.45063
4.44961
4.44683
4.44073
4.42844
4.41146
4.3909
4.36734
4.34114
4.31268
4.28222
4.25001
4.21614
4.1806
4.14354
4.10534
4.06612
4.02604
3.98518
3.94368
3.90163
3.85912
3.81627
3.77314
3.72984
3.68642
3.64298
3.59954
3.55621
3.513
3.47001
3.42726
3.38481
3.34271
3.301
3.25973
3.21893
3.17868
3.13901
3.10005
3.06181
3.02451
2.98824
2.95335
2.92008
2.88925
2.86132
2.83958
6.33559
6.04072
5.77131
5.52124
5.30194
5.12942
5.03786
5.04485
5.08955
5.21548
5.49036
5.93614
6.28278
6.41279
6.40052
6.34619
6.21792
6.0011
5.78805
5.59567
5.41943
5.25327
5.09306
4.93696
4.78529
4.63911
4.50001
4.36927
4.24808
4.13726
4.03754
3.94968
3.87394
3.81202
3.76359
3.73155
3.71952
3.71459
3.71797
3.73312
3.76814
3.83667
3.91982
4.01238
4.1028
4.18331
4.24946
4.29971
4.3354
4.35936
4.37372
4.38162
4.38348
4.38305
4.38152
4.37783
4.37005
4.35633
4.33846
4.3172
4.29296
4.26614
4.23705
4.20601
4.17304
4.13834
4.10224
4.065
4.02674
3.9876
3.94766
3.90706
3.86587
3.82422
3.78219
3.73987
3.69737
3.65473
3.61206
3.5694
3.52685
3.48444
3.44226
3.40033
3.35873
3.3175
3.2767
3.23638
3.19658
3.1574
3.11887
3.08113
3.04427
3.00853
2.97408
2.94137
2.91067
2.88316
2.8587
2.84117
6.40118
6.0971
5.84104
5.61931
5.442
5.34091
5.34717
5.39237
5.52248
5.80679
6.25778
6.60337
6.73109
6.71729
6.65769
6.52033
6.30889
6.10357
5.92
5.75095
5.58996
5.43158
5.27413
5.11738
4.96307
4.81253
4.66775
4.52966
4.39965
4.27821
4.16624
4.06409
3.97241
3.89138
3.82259
3.76668
3.72479
3.70242
3.68755
3.68367
3.68868
3.70767
3.75009
3.8237
3.90801
3.99842
4.08412
4.15784
4.21588
4.2582
4.28619
4.30334
4.31098
4.31211
4.31148
4.30945
4.30478
4.29522
4.28039
4.26184
4.24001
4.21529
4.18798
4.15837
4.12656
4.09296
4.05796
4.02179
3.98457
3.94646
3.90754
3.86792
3.82771
3.787
3.7459
3.70447
3.66286
3.62108
3.57929
3.53749
3.49583
3.45429
3.41302
3.372
3.33136
3.29111
3.25134
3.21208
3.17343
3.13547
3.09828
3.06204
3.02689
2.99317
2.96111
2.9314
2.90427
2.88163
2.86083
2.84808
6.47933
6.172
5.92988
5.74843
5.65078
5.65806
5.70829
5.85082
6.16048
6.62266
6.96038
7.07132
7.05242
6.9791
6.8176
6.60144
6.39919
6.2214
6.0614
5.90846
5.75647
5.60214
5.4458
5.28837
5.13226
4.9788
4.82996
4.6866
4.55002
4.42063
4.29936
4.18635
4.08231
3.98746
3.90277
3.82801
3.76523
3.7155
3.68086
3.6609
3.64373
3.64421
3.65181
3.67477
3.724
3.80001
3.88615
3.97369
4.05405
4.12086
4.1711
4.2053
4.22596
4.23526
4.23647
4.2357
4.23325
4.2277
4.21655
4.20092
4.18181
4.15959
4.13452
4.1067
4.07646
4.04431
4.01062
3.97565
3.9396
3.90261
3.8648
3.82627
3.78713
3.74746
3.70739
3.66697
3.62635
3.58554
3.54472
3.50388
3.4632
3.42263
3.38237
3.34237
3.3028
3.26364
3.22503
3.187
3.14968
3.11318
3.07762
3.04326
3.01031
2.97928
2.95051
2.92495
2.90323
2.8851
2.86934
2.86405
6.60174
6.28881
6.06113
5.95874
5.96974
6.03073
6.19608
6.54912
7.03118
7.35983
7.44433
7.4171
7.32241
7.12245
6.89237
6.68604
6.51018
6.35488
6.209
6.06389
5.91572
5.7632
5.60746
5.45002
5.29294
5.13775
4.98604
4.83894
4.69742
4.56212
4.43371
4.3124
4.19877
4.09308
3.99567
3.90711
3.8279
3.75903
3.70194
3.65796
3.62939
3.6065
3.59234
3.59453
3.606
3.63456
3.69303
3.7695
3.8559
3.94005
4.01403
4.07285
4.11475
4.14082
4.15348
4.15613
4.15532
4.15262
4.14653
4.1343
4.11809
4.09852
4.07592
4.05032
4.02213
3.9918
3.95976
3.92625
3.89157
3.85585
3.81928
3.78194
3.74399
3.70548
3.66656
3.62725
3.58773
3.54801
3.50828
3.46852
3.42892
3.38946
3.35032
3.31149
3.27312
3.23523
3.19795
3.16139
3.12565
3.09093
3.05743
3.02552
2.99554
2.96824
2.94405
2.92493
2.90769
2.89635
2.89005
2.89113
6.67487
6.44806
6.27975
6.29017
6.35983
6.55245
6.96237
7.48372
7.80487
7.85439
7.8155
7.69278
7.44301
7.19146
6.97501
6.79509
6.64018
6.49722
6.35703
6.2141
6.0667
5.91471
5.75931
5.60222
5.44498
5.28922
5.13598
4.98656
4.84147
4.70168
4.56744
4.43953
4.31807
4.20356
4.09625
3.9969
3.90524
3.82216
3.74825
3.68496
3.63258
3.59577
3.56606
3.5433
3.53399
3.53816
3.55371
3.58896
3.65582
3.73305
3.81669
3.89611
3.9632
4.01376
4.04697
4.06519
4.07046
4.06983
4.06726
4.06117
4.04884
4.03218
4.01194
3.98869
3.96291
3.93487
3.90492
3.87327
3.84025
3.806
3.77084
3.73483
3.6982
3.66097
3.62332
3.58526
3.54699
3.50849
3.46997
3.43143
3.39305
3.35484
3.31696
3.27946
3.24246
3.20605
3.17036
3.13553
3.10178
3.06932
3.03856
3.00993
2.98417
2.96216
2.94473
2.93085
2.92123
2.92171
2.92464
2.93376
6.72281
6.63634
6.64166
6.71452
6.93217
7.39854
7.97298
8.2972
8.30206
8.24585
8.0859
7.78352
7.50492
7.2737
7.08507
6.92548
6.78122
6.64211
6.50211
6.3586
6.21029
6.0581
5.90301
5.7464
5.58939
5.43337
5.27915
5.12793
4.98023
4.83703
4.69846
4.5654
4.43788
4.31657
4.2015
4.09321
3.99167
3.89753
3.81097
3.733
3.66415
3.60583
3.55994
3.52497
3.49496
3.473
3.4734
3.47991
3.49919
3.54073
3.60942
3.68846
3.76936
3.84293
3.9022
3.94407
3.9687
3.97946
3.97913
3.97706
3.97165
3.96034
3.94294
3.92194
3.89852
3.87298
3.84553
3.81619
3.78523
3.75284
3.71933
3.68487
3.6497
3.6139
3.57764
3.54097
3.50405
3.46693
3.42975
3.3926
3.35558
3.31881
3.28237
3.24642
3.21103
3.17639
3.14264
3.11
3.07879
3.04936
3.02232
2.9984
2.97881
2.96378
2.95212
2.94844
2.95022
2.95704
2.97377
3.01071
6.82852
6.89753
7.05225
7.38059
7.97613
8.53103
8.81827
8.80468
8.71003
8.48266
8.14675
7.83642
7.58563
7.38503
7.21763
7.06847
6.92678
6.78615
6.64334
6.49734
6.34768
6.1951
6.04022
5.884
5.72734
5.57123
5.41646
5.2639
5.11426
4.96817
4.82624
4.68884
4.55649
4.42943
4.30806
4.19254
4.08321
3.98024
3.88401
3.79484
3.71327
3.64013
3.5763
3.52261
3.48248
3.44489
3.41776
3.40112
3.40321
3.4132
3.4381
3.48915
3.55844
3.63709
3.714
3.78064
3.83143
3.86433
3.88152
3.88373
3.88243
3.87816
3.86866
3.85076
3.82981
3.80666
3.78166
3.75478
3.72619
3.69602
3.66455
3.63195
3.59849
3.56429
3.52958
3.49443
3.45902
3.42342
3.38775
3.35215
3.31669
3.28155
3.2468
3.21266
3.17922
3.14675
3.11543
3.08566
3.05785
3.03265
3.01089
2.99425
2.98169
2.97321
2.97377
2.97765
2.98892
3.0141
3.05608
3.14043
7.00821
7.31958
7.85263
8.58152
9.18318
9.40614
9.36815
9.21504
8.88892
8.51799
8.18614
7.91597
7.70025
7.52211
7.36519
7.21804
7.07378
6.92895
6.78216
6.63306
6.48151
6.32805
6.17296
6.01668
5.86002
5.70355
5.54811
5.39431
5.24295
5.09448
4.94963
4.80868
4.67224
4.54051
4.41393
4.29261
4.17685
4.06684
3.96292
3.86509
3.77398
3.68945
3.61286
3.54416
3.48476
3.43672
3.39572
3.36049
3.33414
3.32824
3.33183
3.34472
3.37414
3.43293
3.50303
3.57946
3.6513
3.71024
3.75207
3.77608
3.78466
3.78389
3.78057
3.7727
3.75674
3.73688
3.71403
3.68929
3.66301
3.63531
3.60622
3.57585
3.5444
3.5121
3.47914
3.44572
3.41198
3.37806
3.3441
3.31023
3.27659
3.24333
3.21061
3.17864
3.14762
3.1179
3.08978
3.0639
3.04089
3.02163
3.00843
2.99849
2.99491
2.99685
3.00423
3.02218
3.05902
3.12481
3.18911
3.30567
7.25412
8.15672
9.21032
9.92239
10.0852
10.0112
9.77598
9.3136
8.90034
8.55011
8.26402
8.03441
7.84401
7.67703
7.52176
7.37107
7.2214
7.07106
6.91971
6.76711
6.61362
6.45832
6.30234
6.14553
5.98829
5.83117
5.67475
5.51969
5.36662
5.21605
5.06858
4.92459
4.7846
4.64896
4.518
4.39185
4.27073
4.15484
4.04443
3.93965
3.84068
3.74773
3.6611
3.58137
3.50896
3.44489
3.39073
3.3451
3.30324
3.27148
3.25001
3.25072
3.25653
3.27351
3.30998
3.37197
3.44371
3.51695
3.58216
3.63254
3.66462
3.68151
3.68153
3.67994
3.67474
3.66313
3.64338
3.62077
3.59657
3.57118
3.5445
3.51658
3.48748
3.45741
3.42654
3.39509
3.36327
3.33124
3.29923
3.26734
3.23581
3.20476
3.1745
3.14522
3.11731
3.09121
3.06745
3.04718
3.03082
3.02162
3.01477
3.01549
3.02003
3.03246
3.05912
3.11224
3.18169
3.27688
3.36125
3.48479
7.40844
9.6632
10.7767
10.877
10.7399
10.3616
9.78532
9.3065
8.92524
8.62226
8.38455
8.18512
8.00792
7.84273
7.6831
7.52571
7.36909
7.21281
7.05666
6.90036
6.74398
6.58616
6.42898
6.27101
6.1125
5.95414
5.79636
5.6398
5.48493
5.33228
5.18239
5.03564
4.89253
4.75328
4.61833
4.48808
4.3627
4.24226
4.12668
4.01622
3.91094
3.81113
3.71678
3.6284
3.54605
3.47053
3.40241
3.34262
3.29313
3.24653
3.20699
3.17893
3.16793
3.16994
3.17888
3.20097
3.24643
3.30973
3.38128
3.45016
3.50754
3.54859
3.57284
3.58018
3.57929
3.57556
3.56676
3.54905
3.52807
3.50471
3.48001
3.45433
3.42768
3.40013
3.37168
3.34257
3.31299
3.28318
3.25339
3.22384
3.19478
3.16646
3.13921
3.11344
3.08964
3.06859
3.051
3.03925
3.0321
3.0311
3.03373
3.04225
3.06312
3.1046
3.16776
3.25176
3.34768
3.45608
3.54265
3.64649
7.32479
11.5071
11.8543
11.6029
10.9803
10.2936
9.73593
9.31455
8.98942
8.74535
8.5423
8.35864
8.18404
8.01408
7.84668
7.68115
7.51729
7.35486
7.19362
7.03313
6.87308
6.71383
6.55311
6.39278