/*--------------------------------*- C++ -*----------------------------------*\
| =========                 |                                                 |
| \\      /  F ield         | OpenFOAM: The Open Source CFD Toolbox           |
|  \\    /   O peration     | Version:  2412                                  |
|   \\  /    A nd           | Website:  www.openfoam.com                      |
|    \\/     M anipulation  |                                                 |
\*---------------------------------------------------------------------------*/
FoamFile
{
    version     2.0;
    format      ascii;
    arch        "LSB;label=32;scalar=64";
    class       surfaceScalarField;
    location    "7.5";
    object      phi;
}
// * * * * * * * * * * * * * * * * * * * * * * * * * * * * * * * * * * * * * //

dimensions      [1 0 -1 0 0 0 0];

oriented        oriented;

internalField   nonuniform List<scalar> 
10325
(
0.00840003
1.01901e-10
0.00840003
7.88189e-10
0.00840002
2.4308e-09
0.00840002
7.31234e-09
0.0084
1.73809e-08
0.00839994
4.58233e-08
0.00839984
1.04643e-07
0.00839952
2.67441e-07
0.00839892
5.97816e-07
0.008397
1.63189e-06
0.00839302
3.86152e-06
0.00838104
1.09573e-05
0.00834397
3.59487e-05
0.00820743
0.000132798
0.00757047
0.000625269
0.00691652
0.000655052
0.0062803
0.000636881
0.00563106
0.000649087
0.00495935
0.00067149
0.00424947
0.000709293
0.00349014
0.000758839
0.00268192
0.000807362
0.00183074
0.000850903
0.000936768
0.000893449
0.000935771
0.00840003
2.02842e-10
0.00840003
1.57297e-09
0.00840002
4.81902e-09
0.00840002
1.45488e-08
0.0084
3.44964e-08
0.00839994
9.14538e-08
0.00839984
2.08952e-07
0.00839952
5.36519e-07
0.0083989
1.20218e-06
0.00839695
3.31701e-06
0.00839282
7.82789e-06
0.00838013
2.26343e-05
0.00834106
7.38642e-05
0.00819809
0.00027197
0.00754324
0.00126806
0.00688047
0.00131914
0.00625525
0.00126286
0.00561426
0.00128996
0.00494791
0.00133768
0.00423421
0.00142252
0.00347235
0.00152031
0.00266314
0.00161588
0.00180829
0.00170571
0.000912093
0.00178926
0.00184693
0.00840003
2.83136e-10
0.00840003
2.19613e-09
0.00840003
6.73544e-09
0.00840002
2.03408e-08
0.0084
4.81322e-08
0.00839996
1.28653e-07
0.00839987
2.88799e-07
0.00839959
7.72049e-07
0.00839911
1.66254e-06
0.0083972
4.94972e-06
0.00839404
1.0832e-05
0.00837884
3.67642e-05
0.00834261
0.000108858
0.0081966
0.000414104
0.00753487
0.0019169
0.00686854
0.00198747
0.00625621
0.00187646
0.0056294
0.00191703
0.00497343
0.00199372
0.0042666
0.00212898
0.00350766
0.00227924
0.00269548
0.00242726
0.00183352
0.00256756
0.000925932
0.00269635
0.00277196
0.00840003
3.43279e-10
0.00840003
2.66306e-09
0.00840003
8.1913e-09
0.00840002
2.47203e-08
0.00840001
5.83963e-08
0.00839997
1.57166e-07
0.00839991
3.46538e-07
0.00839968
9.61001e-07
0.00839932
2.00856e-06
0.00839777
6.19778e-06
0.00839533
1.32105e-05
0.00838287
4.79765e-05
0.00835937
0.000131606
0.0082156
0.000553654
0.00759038
0.00252793
0.00692218
0.00265852
0.00631707
0.0024832
0.00570008
0.00253411
0.00505469
0.00263918
0.00435411
0.00282935
0.00359911
0.00303383
0.00278454
0.00324142
0.00190515
0.0034482
0.000968202
0.00363327
0.00373943
0.00840003
3.99435e-10
0.00840003
3.09849e-09
0.00840003
9.48943e-09
0.00840002
2.87059e-08
0.00840001
6.76188e-08
0.00839998
1.83275e-07
0.00839992
4.01521e-07
0.0083997
1.13182e-06
0.00839934
2.35324e-06
0.00839789
7.37132e-06
0.00839528
1.57299e-05
0.00838416
5.78972e-05
0.00835872
0.000155957
0.00823873
0.000668433
0.0076889
0.00306199
0.00701422
0.00333714
0.006418
0.00308147
0.00581287
0.0031392
0.00518104
0.00327114
0.00449862
0.00351141
0.00374833
0.00378439
0.00292952
0.00406023
0.00202887
0.00434901
0.0010433
0.00461897
0.00478215
0.00840003
4.23127e-10
0.00840003
3.28288e-09
0.00840003
1.01144e-08
0.00840002
3.05575e-08
0.00840002
7.17359e-08
0.0084
1.97621e-07
0.00839998
4.13558e-07
0.00839979
1.28222e-06
0.00839974
2.38898e-06
0.00839803
8.79833e-06
0.00839613
1.75224e-05
0.0083858
6.69986e-05
0.00836039
0.000180179
0.00827135
0.000752515
0.00787546
0.0034402
0.00718763
0.00403022
0.00658456
0.00368681
0.00598633
0.00373758
0.00536763
0.00388988
0.00469766
0.00418141
0.00395789
0.00452391
0.00313234
0.00488499
0.00220601
0.00527512
0.00115766
0.00566736
0.0059394
0.00840003
4.64286e-10
0.00840003
3.59747e-09
0.00840003
1.1058e-08
0.00840002
3.34217e-08
0.00840002
7.84521e-08
0.00839999
2.16029e-07
0.00839995
4.52209e-07
0.00839978
1.40397e-06
0.0083996
2.56528e-06
0.00839843
9.69394e-06
0.00839692
1.89824e-05
0.00839037
7.23241e-05
0.00837569
0.000193553
0.00833895
0.000784997
0.00822685
0.00353318
0.0075215
0.00474135
0.0068595
0.00435168
0.00625571
0.00434195
0.00565454
0.00449109
0.00498805
0.00484823
0.00425473
0.00525822
0.00342702
0.00571386
0.0024724
0.00622984
0.00134187
0.00679808
0.0072811
0.00840003
5.02613e-10
0.00840003
3.892e-09
0.00840003
1.19335e-08
0.00840002
3.60295e-08
0.00840002
8.47245e-08
0.0084
2.3035e-07
0.00839995
4.94598e-07
0.00839986
1.45996e-06
0.00839968
2.73654e-06
0.0083992
9.92234e-06
0.00839883
1.92847e-05
0.0083985
7.14713e-05
0.00839689
0.000193884
0.00842236
0.000755039
0.00880351
0.0031321
0.00809029
0.00545946
0.00728876
0.0051566
0.00666493
0.00496689
0.00605572
0.00510076
0.00540147
0.00550208
0.0046657
0.00599417
0.00382745
0.00655227
0.00285356
0.00720471
0.00163467
0.0080172
0.00891582
0.00840003
4.32588e-10
0.00840003
4.0815e-09
0.00840003
1.22918e-08
0.00840003
3.74193e-08
0.00840002
8.7551e-08
0.00840001
2.35203e-07
0.00839999
5.12168e-07
0.00840001
1.41364e-06
0.00839996
2.76443e-06
0.00840077
8.92813e-06
0.00840428
1.56558e-05
0.00841358
6.11893e-05
0.00846059
0.000144834
0.00868183
0.000535106
0.00977429
0.00201486
0.0090042
0.00623392
0.00793884
0.00622497
0.00730721
0.00560061
0.00659533
0.00581411
0.00594238
0.00615545
0.00521818
0.00671838
0.00441691
0.00735314
0.00346515
0.00815726
0.00216481
0.00931911
0.0110812
0.00840003
1.61028e-10
0.00840003
5.62996e-09
0.00840003
8.09682e-09
0.00840002
4.84055e-08
0.00840005
5.87153e-08
0.00839997
3.0728e-07
0.00840016
3.20138e-07
0.00839963
1.92209e-06
0.00840096
1.41606e-06
0.00839737
1.23811e-05
0.00840699
6.00121e-06
0.00838547
8.2049e-05
0.00846419
6.49717e-05
0.00846548
0.000532026
0.00903778
0.00143077
0.0090197
0.0062438
0.00862401
0.0066176
0.00784505
0.0063809
0.00718358
0.00647618
0.00654542
0.00679397
0.00589333
0.00737056
0.00518712
0.00805928
0.00429776
0.00904641
0.00303294
0.0105841
0.0141146
0.00840003
7.18553e-10
0.00840003
1.15833e-09
0.00840003
1.08853e-08
0.00840007
1.26747e-08
0.00840005
7.67018e-08
0.00840027
7.83056e-08
0.00840009
4.95497e-07
0.00840159
4.07027e-07
0.00839949
3.45105e-06
0.00840962
2.21971e-06
0.00839046
2.48051e-05
0.00845741
1.48454e-05
0.00833451
0.000186554
0.00863379
0.000230905
0.0085901
0.00146912
0.00873172
0.00608587
0.00849459
0.00685398
0.00805195
0.00682436
0.0076072
0.00692103
0.00710601
0.00729478
0.00662905
0.00784693
0.00610672
0.00858119
0.00563509
0.00951802
0.0055688
0.0106507
0.0114064
0.00827725
0.00840003
3.93032e-10
0.00840003
2.18437e-09
0.00840003
7.41122e-09
0.00840002
2.08246e-08
0.00840005
5.25833e-08
0.00839999
1.31583e-07
0.00840016
3.22089e-07
0.00839977
7.74187e-07
0.00840124
1.97889e-06
0.00839843
4.89554e-06
0.00841027
1.29526e-05
0.00839016
3.42373e-05
0.00847795
9.85308e-05
0.00834432
0.000362167
0.00871971
0.00108898
0.00887027
0.00591935
0.00855704
0.00716745
0.00820416
0.00717761
0.00788229
0.00724292
0.0075382
0.00763796
0.00719599
0.008188
0.00690277
0.00887313
0.00677004
0.00964977
0.00712894
0.0102912
0.0104647
0.00807022
0.00840003
2.98333e-10
0.00840003
2.32049e-09
0.00840003
7.18456e-09
0.00840003
2.16629e-08
0.00840003
5.1231e-08
0.00840002
1.36648e-07
0.00840004
3.05097e-07
0.00839997
8.24787e-07
0.00840024
1.69488e-06
0.00839955
5.49097e-06
0.00840288
9.58316e-06
0.00839649
4.00811e-05
0.00841486
7.97366e-05
0.00841591
0.000359224
0.00851075
0.000990619
0.00907786
0.0053364
0.00878865
0.00745821
0.00846386
0.00750311
0.00817956
0.00752703
0.00794306
0.00787378
0.00772288
0.0084078
0.00760064
0.00899466
0.00770939
0.0095398
0.00812488
0.00987437
0.00985109
0.00873737
0.00840003
3.20817e-10
0.00840003
2.48665e-09
0.00840003
7.60926e-09
0.00840003
2.29849e-08
0.00840002
5.43938e-08
0.00840001
1.45189e-07
0.00839999
3.26747e-07
0.00839994
8.5841e-07
0.00839974
1.89331e-06
0.00839993
5.21623e-06
0.00839869
1.08164e-05
0.00840177
3.64588e-05
0.00840875
7.26071e-05
0.00844845
0.000317651
0.00859217
0.000844425
0.00967464
0.00423717
0.00927063
0.00786228
0.00882488
0.00794866
0.00853367
0.00781806
0.00835348
0.00805352
0.00826093
0.00849994
0.00826538
0.00899001
0.00840009
0.00940435
0.00873229
0.00954062
0.00938761
0.00919397
0.00840003
3.02524e-10
0.00840003
2.3496e-09
0.00840003
7.21279e-09
0.00840003
2.17821e-08
0.00840003
5.16104e-08
0.00840004
1.37603e-07
0.00840005
3.10169e-07
0.00840009
8.096e-07
0.00840017
1.80669e-06
0.0084006
4.72293e-06
0.00840062
1.07465e-05
0.00840885
2.78766e-05
0.00840901
7.21929e-05
0.00851188
0.000213444
0.00874054
0.000612918
0.0103889
0.00258182
0.00993828
0.00830679
0.0095276
0.00835557
0.00901513
0.0083303
0.00877403
0.00829449
0.00870712
0.00856644
0.00878232
0.00891466
0.00895495
0.00923187
0.00920329
0.00929228
0.00904494
0.00954481
0.00840003
2.67342e-10
0.00840003
2.07578e-09
0.00840003
6.35831e-09
0.00840003
1.92025e-08
0.00840004
4.55138e-08
0.00840005
1.2115e-07
0.00840009
2.73657e-07
0.00840018
7.04807e-07
0.00840036
1.61811e-06
0.0084011
3.92267e-06
0.0084021
9.71627e-06
0.00840701
2.26526e-05
0.0084205
5.8323e-05
0.00846901
0.000163332
0.00856665
0.000515681
0.00922189
0.00192003
0.0100308
0.00748305
0.0097929
0.00859186
0.00941656
0.00870564
0.00918203
0.00852889
0.00910622
0.0086423
0.00916841
0.00885135
0.00936206
0.00903691
0.00958791
0.00906462
0.00880581
0.0098264
0.00840003
2.06221e-10
0.00840003
1.59671e-09
0.00840003
4.96011e-09
0.00840004
1.48459e-08
0.00840005
3.5231e-08
0.00840007
9.25276e-08
0.00840014
2.07631e-07
0.0084003
5.39194e-07
0.00840075
1.15385e-06
0.00840136
3.26591e-06
0.00840469
6.36605e-06
0.00840597
2.10831e-05
0.00842272
4.14349e-05
0.0084355
0.000149219
0.00855981
0.000390198
0.00888747
0.00158828
0.00989663
0.0064572
0.00985851
0.00862976
0.00971133
0.00885283
0.00951918
0.00872164
0.00946067
0.00870104
0.00950153
0.00881256
0.00965268
0.00888598
0.00986137
0.00885429
0.00861072
0.0100541
0.00840003
1.70642e-10
0.00840003
1.39303e-09
0.00840003
4.30901e-09
0.00840003
1.28347e-08
0.00840004
3.06234e-08
0.00840005
8.01413e-08
0.00840007
1.81352e-07
0.00840014
4.66096e-07
0.00840026
1.02777e-06
0.00840072
2.76872e-06
0.00840142
5.64771e-06
0.00840424
1.80261e-05
0.00841114
3.44506e-05
0.00842989
0.000129335
0.00849808
0.000320869
0.00875402
0.00132757
0.0104144
0.00478167
0.0102508
0.00879183
0.0100818
0.00902165
0.00985064
0.00895305
0.00979094
0.0087599
0.00983013
0.00877153
0.00993398
0.00878207
0.0100882
0.00869997
0.00846254
0.0102349
0.00840003
6.49347e-11
0.00840003
1.4628e-09
0.00840003
2.71252e-09
0.00840003
1.2783e-08
0.00840004
1.99688e-08
0.00840004
7.93556e-08
0.0084001
1.1947e-07
0.0084001
4.62402e-07
0.00840045
6.74757e-07
0.00840046
2.74051e-06
0.00840257
3.51217e-06
0.00840277
1.76723e-05
0.00841968
1.74237e-05
0.00842961
0.000118757
0.00858751
0.000161054
0.00907234
0.000841623
0.0111636
0.00267402
0.0110935
0.00885516
0.0107765
0.00934019
0.0104123
0.00931929
0.0101827
0.00899194
0.0101396
0.00881339
0.0102027
0.00871736
0.0103132
0.00858838
0.00835062
0.0104242
0.00840003
1.30734e-10
0.00840003
7.56304e-10
0.00840003
2.79086e-09
0.00840004
7.2125e-09
0.00840004
1.97186e-08
0.00840007
4.51648e-08
0.00840007
1.16557e-07
0.00840027
2.59851e-07
0.00840026
6.73834e-07
0.00840154
1.45158e-06
0.00840093
4.06277e-06
0.00841029
8.23196e-06
0.00840194
2.5472e-05
0.00846574
5.43685e-05
0.00844316
0.000182243
0.00878145
0.000500885
0.00941784
0.00203216
0.0109939
0.00726032
0.0110298
0.00930385
0.0108293
0.00952052
0.0105633
0.00926016
0.0104551
0.00892223
0.0104416
0.00872973
0.0104932
0.00853575
0.00826966
0.010573
0.00840003
1.62751e-10
0.00840003
4.75384e-10
0.00840003
2.77319e-09
0.00840003
4.85667e-09
0.00840003
1.91921e-08
0.00840005
3.08603e-08
0.00840005
1.13417e-07
0.00840013
1.77849e-07
0.00840015
6.52056e-07
0.0084006
9.9374e-07
0.00840078
3.84092e-06
0.00840361
5.36354e-06
0.00840409
2.47257e-05
0.00842714
3.12513e-05
0.00843635
0.000171743
0.00861672
0.00031923
0.00923266
0.00141233
0.0110702
0.00540177
0.0112186
0.00915427
0.0111878
0.00955157
0.0109822
0.00946709
0.0108109
0.0090968
0.0107436
0.0087975
0.0107186
0.00855974
0.00825912
0.0107276
0.00840003
5.85144e-11
0.00840003
6.41309e-10
0.00840003
1.47216e-09
0.00840003
5.78748e-09
0.00840004
1.06529e-08
0.00840003
3.62708e-08
0.00840008
6.40168e-08
0.00840005
2.1192e-07
0.00840033
3.69242e-07
0.00840008
1.22967e-06
0.00840181
2.09459e-06
0.00839982
7.28139e-06
0.00841256
1.19255e-05
0.00839875
4.46265e-05
0.00849436
7.58266e-05
0.00848723
0.000324762
0.00917868
0.00071732
0.0117226
0.00285137
0.0118046
0.00905934
0.011621
0.00973268
0.0113513
0.00973582
0.0111069
0.00934342
0.0110098
0.00889695
0.0109757
0.00859506
0.00829477
0.0109392
0.00840003
7.74533e-11
0.00840003
2.99359e-10
0.00840003
1.48761e-09
0.00840003
2.95395e-09
0.00840003
1.04055e-08
0.00840005
1.87469e-08
0.00840005
6.17546e-08
0.00840015
1.08829e-07
0.00840016
3.56402e-07
0.00840078
6.10435e-07
0.00840072
2.12126e-06
0.00840471
3.25523e-06
0.0084031
1.33781e-05
0.00842964
1.79414e-05
0.00841768
8.69232e-05
0.00861244
0.000129249
0.00864721
0.000679558
0.00974013
0.00175118
0.0118245
0.00695438
0.0119332
0.00962285
0.0117474
0.00991885
0.0114013
0.0096898
0.0112507
0.00904907
0.0111815
0.00866614
0.00833408
0.0111429
0.00840003
2.55482e-11
0.00840003
3.14245e-10
0.00840003
6.91007e-10
0.00840003
2.81404e-09
0.00840004
4.99134e-09
0.00840004
1.74057e-08
0.00840007
2.94888e-08
0.00840008
9.97788e-08
0.00840027
1.66209e-07
0.0084003
5.70958e-07
0.00840149
9.18408e-07
0.00840127
3.42825e-06
0.00840946
5.15966e-06
0.00840491
2.21768e-05
0.00845892
3.27528e-05
0.00843306
0.000153617
0.00880936
0.000301504
0.00923565
0.00132
0.0117086
0.00445875
0.0121347
0.00919199
0.0121695
0.00988588
0.0119789
0.00988107
0.0115769
0.00945184
0.0114141
0.00883012
0.00841837
0.0113311
0.00840003
3.21984e-11
0.00840003
1.83303e-10
0.00840003
6.84085e-10
0.00840003
1.74426e-09
0.00840003
4.83268e-09
0.00840004
1.09649e-08
0.00840004
2.86914e-08
0.00840007
6.34419e-08
0.00840007
1.64371e-07
0.00840028
3.62068e-07
0.00840025
9.37142e-07
0.00840158
2.08557e-06
0.00840122
5.43029e-06
0.00841091
1.24191e-05
0.00840985
3.3359e-05
0.00848183
8.11846e-05
0.00853868
0.000242624
0.00915779
0.000700001
0.0109818
0.00262482
0.0123145
0.00784533
0.0123991
0.00980156
0.0122706
0.0100103
0.0119272
0.00979622
0.0117248
0.00903183
0.00858779
0.011555
0.00840003
3.45723e-11
0.00840003
1.13686e-10
0.00840003
6.05376e-10
0.00840003
1.14854e-09
0.00840003
4.2014e-09
0.00840004
7.3155e-09
0.00840004
2.4833e-08
0.00840006
4.25119e-08
0.00840008
1.42158e-07
0.0084002
2.41856e-07
0.00840031
8.11129e-07
0.00840102
1.3683e-06
0.0084017
4.69555e-06
0.00840637
7.69195e-06
0.00841072
2.87031e-05
0.00844618
4.54264e-05
0.00849683
0.000190484
0.00878568
0.000409353
0.00981922
0.00158665
0.0120811
0.00556223
0.012478
0.00940059
0.012566
0.0099233
0.0124871
0.00987702
0.0120907
0.00942894
0.008812
0.0118667
0.00840003
1.23985e-11
0.00840003
1.26597e-10
0.00840003
3.05822e-10
0.00840003
1.14543e-09
0.00840003
2.20372e-09
0.00840003
7.1373e-09
0.00840004
1.31602e-08
0.00840004
4.12615e-08
0.00840011
7.54313e-08
0.00840012
2.35121e-07
0.0084005
4.2829e-07
0.00840051
1.34277e-06
0.00840277
2.41522e-06
0.00840254
7.8392e-06
0.00841758
1.36313e-05
0.00841479
4.76908e-05
0.00851991
8.51132e-05
0.00859354
0.000333938
0.00940225
0.000773603
0.0121529
0.002805
0.0128918
0.00864596
0.0128281
0.00998442
0.0126735
0.0100308
0.0123404
0.00976291
0.00901442
0.0121373
0.00840003
1.4906e-11
0.00840003
5.74974e-11
0.00840003
2.80148e-10
0.00840003
5.69903e-10
0.00840003
1.95261e-09
0.00840003
3.60805e-09
0.00840004
1.14937e-08
0.00840006
2.08438e-08
0.00840007
6.52495e-08
0.00840018
1.17754e-07
0.00840024
3.68293e-07
0.00840092
6.60486e-07
0.00840119
2.11161e-06
0.00840538
3.63194e-06
0.00840596
1.28825e-05
0.00843367
1.98604e-05
0.00843322
8.47671e-05
0.00863266
0.000133246
0.00875765
0.000645901
0.00989468
0.00165959
0.0126009
0.00591775
0.0129607
0.00962161
0.0130214
0.00996861
0.0128702
0.00991338
0.00941134
0.0124727
0.00840003
7.0027e-12
0.00840003
5.00214e-11
0.00840003
1.54993e-10
0.00840003
4.65636e-10
0.00840003
1.10087e-09
0.00840003
2.90301e-09
0.00840004
6.49997e-09
0.00840004
1.66505e-08
0.00840007
3.68037e-08
0.00840009
9.37021e-08
0.00840025
2.06276e-07
0.00840038
5.25944e-07
0.00840132
1.15654e-06
0.00840191
2.98462e-06
0.0084082
6.5507e-06
0.00841
1.771e-05
0.00845584
3.87192e-05
0.00847304
0.000114198
0.00882816
0.00028904
0.0095056
0.000974481
0.012401
0.00299363
0.0133157
0.00869821
0.0132795
0.0100044
0.0131561
0.0100367
0.00975075
0.0128159
0.00840003
2.84064e-12
0.00840003
4.02871e-11
0.00840003
9.07945e-11
0.00840003
3.5739e-10
0.00840003
6.58497e-10
0.00840003
2.20101e-09
0.00840003
3.90579e-09
0.00840004
1.25705e-08
0.00840005
2.21308e-08
0.00840007
7.06224e-08
0.00840016
1.23797e-07
0.00840028
3.96067e-07
0.00840074
6.88447e-07
0.00840143
2.25405e-06
0.00840422
3.72824e-06
0.00840805
1.36751e-05
0.00842686
1.96769e-05
0.00844993
9.00986e-05
0.0086015
0.000135923
0.00890004
0.000672398
0.0101255
0.00175725
0.0128647
0.00593785
0.0133293
0.00953853
0.0134784
0.00988882
0.00991614
0.0133147
0.00840003
3.49654e-12
0.00840003
2.01149e-11
0.00840003
7.4442e-11
0.00840003
1.91687e-10
0.00840003
5.24161e-10
0.00840003
1.19722e-09
0.00840003
3.07878e-09
0.00840004
6.85146e-09
0.00840004
1.73713e-08
0.00840007
3.84114e-08
0.0084001
9.71246e-08
0.00840028
2.1422e-07
0.00840041
5.42992e-07
0.00840146
1.19595e-06
0.00840205
3.07157e-06
0.00840893
6.74339e-06
0.00841012
1.80945e-05
0.00846013
3.98216e-05
0.00847818
0.000115867
0.0088558
0.000293007
0.00961284
0.000991094
0.0125512
0.00297009
0.0135645
0.00851956
0.0135306
0.00992325
0.0098827
0.0135645
0.00840003
3.14844e-12
0.00840003
1.12524e-11
0.00840003
5.61089e-11
0.00840003
1.12463e-10
0.00840003
3.87672e-10
0.00840003
7.09192e-10
0.00840003
2.2644e-09
0.00840003
4.06715e-09
0.00840004
1.2747e-08
0.00840005
2.28002e-08
0.00840008
7.11729e-08
0.00840016
1.26881e-07
0.0084003
3.97209e-07
0.00840079
7.03129e-07
0.00840158
2.24411e-06
0.00840446
3.82681e-06
0.00840896
1.33759e-05
0.00842793
2.06214e-05
0.00845591
8.68302e-05
0.0086046
0.00014274
0.00894809
0.00064416
0.0101172
0.0017901
0.0131029
0.0055152
0.0136525
0.00936859
0.00987145
0.013657
0.00840003
1.01588e-12
0.00840003
1.05639e-11
0.00840003
2.5823e-11
0.00840003
9.53539e-11
0.00840003
1.85453e-10
0.00840003
5.88612e-10
0.00840003
1.0948e-09
0.00840003
3.35345e-09
0.00840004
6.17836e-09
0.00840004
1.87569e-08
0.00840008
3.44731e-08
0.0084001
1.04493e-07
0.0084003
1.91632e-07
0.00840041
5.82593e-07
0.00840158
1.06698e-06
0.00840208
3.2723e-06
0.00840941
5.9987e-06
0.00841061
1.91274e-05
0.00846235
3.47285e-05
0.00848085
0.000122772
0.00886671
0.000255817
0.00971134
0.000942597
0.0124538
0.0027445
0.0138448
0.00797004
0.00987231
0.0138369
0.00840003
9.03716e-13
0.00840003
5.39719e-12
0.00840003
1.98115e-11
0.00840003
5.11874e-11
0.00840003
1.39582e-10
0.00840003
3.19303e-10
0.00840003
8.19722e-10
0.00840003
1.82542e-09
0.00840003
4.6219e-09
0.00840004
1.02246e-08
0.00840005
2.58169e-08
0.0084001
5.69832e-08
0.00840014
1.43968e-07
0.0084004
3.1726e-07
0.00840065
8.04435e-07
0.00840214
1.77135e-06
0.0084035
4.55001e-06
0.00841256
9.98081e-06
0.00841979
2.70481e-05
0.00848367
5.81699e-05
0.00855588
0.000181395
0.00903684
0.000458294
0.0100511
0.00172212
0.0131273
0.00486757
0.0090117
0.0139686
0.00840003
6.36031e-13
0.00840003
3.44688e-12
0.00840003
1.26836e-11
0.00840003
3.28245e-11
0.00840003
8.87381e-11
0.00840003
2.04378e-10
0.00840003
5.18384e-10
0.00840003
1.16317e-09
0.00840003
2.90606e-09
0.00840004
6.47894e-09
0.00840005
1.61263e-08
0.00840007
3.58701e-08
0.00840012
8.92326e-08
0.00840024
1.9805e-07
0.00840054
4.93604e-07
0.0084012
1.0926e-06
0.00840295
2.7459e-06
0.0084068
6.04884e-06
0.00841792
1.56158e-05
0.00844038
3.51646e-05
0.00852545
9.47666e-05
0.00873722
0.000243592
0.0096628
0.000789422
0.0122466
0.00226471
0.00714498
0.0140822
0.00840003
5.17961e-13
0.00840003
1.70448e-12
0.00840003
8.9166e-12
0.00840003
1.72511e-11
0.00840003
6.12759e-11
0.00840003
1.08335e-10
0.00840003
3.55141e-10
0.00840003
6.15054e-10
0.00840003
1.97968e-09
0.00840003
3.40578e-09
0.00840004
1.09275e-08
0.00840006
1.87182e-08
0.00840008
6.01447e-08
0.00840018
1.02429e-07
0.00840033
3.30904e-07
0.00840085
5.57965e-07
0.00840172
1.82804e-06
0.00840468
3.01844e-06
0.0084096
1.03657e-05
0.00842822
1.61794e-05
0.00845649
6.46023e-05
0.00859976
9.83565e-05
0.00892374
0.000457256
0.0100389
0.00114055
0.00361312
0.0135338
0.00840003
1.86876e-13
0.00840003
1.3146e-12
0.00840003
4.13823e-12
0.00840003
1.22286e-11
0.00840003
2.91496e-11
0.00840003
7.5219e-11
0.00840003
1.69304e-10
0.00840003
4.22525e-10
0.00840003
9.38944e-10
0.00840003
2.31915e-09
0.00840004
5.14304e-09
0.00840004
1.264e-08
0.00840007
2.80479e-08
0.0084001
6.86855e-08
0.00840028
1.5255e-07
0.00840044
3.72688e-07
0.00840141
8.27152e-07
0.00840224
2.02598e-06
0.00840794
4.48724e-06
0.00841195
1.11194e-05
0.00845017
2.52738e-05
0.00847887
6.33963e-05
0.00875972
0.000167758
0.00934404
0.000523169
0.00150922
0.0113723
0.00840003
5.16337e-14
0.00840003
9.74914e-13
0.00840003
1.83436e-12
0.00840003
8.45838e-12
0.00840003
1.32058e-11
0.00840003
5.1254e-11
0.00840003
7.64453e-11
0.00840003
2.87002e-10
0.00840003
4.19195e-10
0.00840003
1.57585e-09
0.00840003
2.26392e-09
0.00840004
8.61202e-09
0.00840005
1.2157e-08
0.00840007
4.70904e-08
0.00840015
6.48071e-08
0.00840024
2.58881e-07
0.00840071
3.31914e-07
0.00840112
1.46933e-06
0.00840391
1.50633e-06
0.00840519
8.63805e-06
0.00842443
5.9574e-06
0.00842622
5.21234e-05
0.0085566
3.26629e-05
0.00872423
0.000314517
0.000492293
0.0096342
0.00840003
9.64765e-14
0.00840003
1.89097e-13
0.00840003
1.50494e-12
0.00840003
1.98545e-12
0.00840003
1.01351e-11
0.00840003
1.1986e-11
0.00840003
5.6832e-11
0.00840003
6.29725e-11
0.00840003
3.02609e-10
0.00840003
3.13719e-10
0.00840003
1.57731e-09
0.00840004
1.50722e-09
0.00840004
8.10475e-09
0.00840008
6.93002e-09
0.00840009
4.13225e-08
0.00840031
2.95932e-08
0.00840036
2.21564e-07
0.00840174
8.36845e-08
0.00840135
1.40164e-06
0.00840988
-2.35377e-07
0.0084022
1.01897e-05
0.00845349
-4.43373e-06
0.00839039
7.02009e-05
0.00865788
4.76728e-06
0.000293648
0.00873281
0.00840003
2.8611e-14
0.00840003
2.03344e-13
0.00840003
6.28483e-13
0.00840003
1.86477e-12
0.00840003
4.37189e-12
0.00840003
1.12795e-11
0.00840003
2.48938e-11
0.00840003
6.19711e-11
0.00840003
1.34587e-10
0.00840003
3.31538e-10
0.00840003
7.16582e-10
0.00840003
1.75777e-09
0.00840003
3.79165e-09
0.00840003
9.27041e-09
0.00840004
1.99445e-08
0.0084
4.86431e-08
0.00840009
1.04201e-07
0.00839975
2.53398e-07
0.0084004
5.39806e-07
0.00839747
1.31791e-06
0.00840446
2.77096e-06
0.0083824
7.37398e-06
0.00842708
1.63836e-05
0.00833254
5.29667e-05
0.000131341
0.00836137
0.00840003
-9.56697e-15
0.00840003
2.82924e-13
0.00840003
1.89772e-13
0.00840003
2.31048e-12
0.00840003
1.49083e-12
0.00840003
1.41857e-11
0.00840003
9.04918e-12
0.00840003
8.26079e-11
0.00840003
5.25412e-11
0.00840003
4.78557e-10
0.00840003
3.06378e-10
0.00840003
2.79108e-09
0.00840003
1.80894e-09
0.00840002
1.64555e-08
0.00840002
1.05459e-08
0.00839995
9.89347e-08
0.00839997
5.30021e-08
0.00839945
6.24599e-07
0.00839961
1.85999e-07
0.00839579
3.94193e-06
0.00839907
-9.10374e-07
0.00837201
2.54056e-05
0.00839206
-1.16694e-05
0.00825855
0.000143934
9.76367e-05
0.00817003
0.00840003
2.40687e-14
0.00840003
-9.46191e-15
0.00840003
3.27886e-13
0.00840003
5.44198e-14
0.00840003
2.20035e-12
0.00840003
4.10506e-13
0.00840003
1.27308e-11
0.00840003
1.89531e-12
0.00840003
7.14518e-11
0.00840003
6.72183e-12
0.00840003
3.99385e-10
0.00840003
9.67525e-12
0.00840003
2.24201e-09
0.00840005
-1.59721e-10
0.00840004
1.2957e-08
0.00840013
-3.31748e-09
0.00840004
8.59671e-08
0.00840071
-5.92743e-08
0.00839981
6.97558e-07
0.00840407
-5.8986e-07
0.00839522
5.40314e-06
0.00842063
-4.12842e-06
0.0083529
3.60354e-05
0.00845049
8.02117e-06
0.000211194
0.00825232
0.00840003
-3.18274e-14
0.00840003
1.18626e-13
0.00840003
-2.26189e-13
0.00840003
8.51935e-13
0.00840003
-1.35241e-12
0.00840003
5.16737e-12
0.00840003
-7.61249e-12
0.00840003
3.05551e-11
0.00840003
-4.23209e-11
0.00840003
1.80719e-10
0.00840003
-2.3283e-10
0.00840003
1.07744e-09
0.00840003
-1.2679e-09
0.00840002
6.53341e-09
0.00840004
-6.74125e-09
0.00839997
4.048e-08
0.00840007
-3.41927e-08
0.00839961
2.78344e-07
0.00840044
-2.77196e-07
0.00839653
2.51975e-06
0.00840453
-3.4611e-06
0.00837419
2.07715e-05
0.008421
-1.94733e-05
0.00827169
0.000123082
7.21738e-05
0.00832461
0.00840003
-8.09032e-16
0.00840003
-4.40563e-15
0.00840003
-1.58807e-14
0.00840003
-3.83808e-14
0.00840003
-1.01975e-13
0.00840003
-2.21e-13
0.00840003
-5.49797e-13
0.00840003
-1.1786e-12
0.00840003
-2.75511e-12
0.00840003
-5.84012e-12
0.00840003
-1.17862e-11
0.00840003
-2.40348e-11
0.00840003
-2.42363e-11
0.00840003
-4.56194e-11
0.00840002
8.68638e-11
0.00840005
6.121e-10
0.00839998
4.00311e-09
0.0084002
1.0958e-08
0.00839959
5.3933e-08
0.00840186
1.80495e-07
0.00839571
6.62558e-07
0.00841275
2.3246e-06
0.00837424
8.54632e-06
0.00844735
2.7382e-05
0.000110828
0.00840122
0.00840003
4.63622e-14
0.00840003
-1.6851e-13
0.00840003
3.07159e-13
0.00840003
-1.20737e-12
0.00840003
1.8424e-12
0.00840003
-7.27924e-12
0.00840003
1.03646e-11
0.00840003
-4.30591e-11
0.00840003
5.70129e-11
0.00840003
-2.55462e-10
0.00840003
3.08309e-10
0.00840003
-1.52776e-09
0.00840003
1.6413e-09
0.00840004
-9.26448e-09
0.00840002
8.69983e-09
0.00840008
-5.71935e-08
0.0084
5.12191e-08
0.00840034
-3.75911e-07
0.00839969
4.56742e-07
0.0084026
-2.82267e-06
0.0083961
5.47626e-06
0.00841732
-2.02406e-05
0.00837072
4.66145e-05
0.00846761
-8.72202e-05
0.000133585
0.00843744
0.00840003
1.0177e-14
0.00840003
-3.60051e-14
0.00840003
5.62038e-14
0.00840003
-2.55843e-13
0.00840003
3.45112e-13
0.00840003
-1.49278e-12
0.00840003
2.15516e-12
0.00840003
-8.58744e-12
0.00840003
1.18622e-11
0.00840003
-4.97776e-11
0.00840003
6.7086e-11
0.00840003
-2.9215e-10
0.00840003
3.65672e-10
0.00840002
-1.74718e-09
0.00840002
1.99074e-09
0.00839996
-1.06837e-08
0.00839998
1.18363e-08
0.00839957
-6.93933e-08
0.00839981
1.01607e-07
0.00839685
-4.94015e-07
0.00840048
1.08931e-06
0.0083799
-3.28233e-06
0.00841164
9.92384e-06
0.00831841
-1.2067e-05
4.4995e-05
0.00839438
0.00840003
-6.89225e-15
0.00840003
6.02528e-14
0.00840003
2.85428e-14
0.00840003
4.89242e-13
0.00840003
3.49216e-13
0.00840003
3.02588e-12
0.00840003
2.49477e-12
0.00840003
1.80743e-11
0.00840003
1.69047e-11
0.00840003
1.08093e-10
0.00840003
1.13645e-10
0.00840003
6.51359e-10
0.00840003
7.58277e-10
0.00840002
3.96408e-09
0.00840001
4.95549e-09
0.00839996
2.43653e-08
0.00839993
2.89123e-08
0.00839961
1.5574e-07
0.0083995
1.02232e-07
0.00839743
9.95117e-07
0.00839793
-1.02843e-07
0.00838517
6.04682e-06
0.00839403
-3.37971e-06
0.00832862
3.59336e-05
3.62863e-05
0.008331
0.00840003
-2.51688e-14
0.00840003
1.60399e-13
0.00840003
-6.64734e-14
0.00840003
1.21167e-12
0.00840003
-2.87127e-13
0.00840003
7.44386e-12
0.00840003
-1.16888e-12
0.00840003
4.44296e-11
0.00840003
-3.63793e-12
0.00840003
2.65232e-10
0.00840003
-4.46053e-13
0.00840003
1.59311e-09
0.00840003
1.27014e-10
0.00840002
9.6641e-09
0.00840002
1.41074e-09
0.00839997
5.93805e-08
0.00839998
6.03687e-09
0.00839965
3.88132e-07
0.00839974
-9.09345e-08
0.00839751
2.64497e-06
0.00839911
-2.42058e-06
0.00838451
1.73727e-05
0.00839874
-2.21639e-05
0.00832817
8.96604e-05
-5.13364e-06
0.00836365
0.00840003
3.01625e-14
0.00840003
-1.21816e-13
0.00840003
2.00548e-13
0.00840003
-8.55999e-13
0.00840003
1.20225e-12
0.00840003
-5.16642e-12
0.00840003
6.63748e-12
0.00840003
-3.07405e-11
0.00840003
3.54556e-11
0.00840003
-1.83929e-10
0.00840003
1.84036e-10
0.00840003
-1.11272e-09
0.00840003
9.25499e-10
0.00840005
-6.84416e-09
0.00840004
4.59525e-09
0.00840014
-4.29975e-08
0.00840008
2.92786e-08
0.00840075
-2.95124e-07
0.00840012
3.2801e-07
0.00840479
-2.1754e-06
0.00839719
3.97114e-06
0.00842783
-1.50414e-05
0.00836955
3.00264e-05
0.00851815
-7.41089e-05
6.26429e-05
0.0084266
0.00840003
0.00840003
0.00840003
0.00840003
0.00840003
0.00840003
0.00840003
0.00840003
0.00840003
0.00840003
0.00840003
0.00840003
0.00840003
0.00840002
0.00840002
0.00839997
0.00839998
0.00839959
0.00839982
0.00839707
0.00840034
0.00838207
0.00840761
0.00831694
0.00837382
0.00392372
0.00435178
0.00181675
0.00209966
-0.000185941
0.00199557
-0.00145133
0.00127176
-0.00205865
0.000606907
-0.00248643
0.000428852
-0.00266009
0.000174348
-0.00276799
0.000108843
-0.00292155
0.000154471
-0.00307615
0.000155351
-0.00320198
0.000126104
-0.00329807
9.59738e-05
-0.00338507
8.6702e-05
-0.00346096
7.52854e-05
-0.00351564
5.39903e-05
-0.00354936
3.2395e-05
-0.00359298
4.01709e-05
-0.00363332
3.66863e-05
-0.0036594
2.20891e-05
-0.00366821
2.04814e-06
-0.00365842
-1.82164e-05
-0.00362074
-4.81319e-05
-0.00354835
-8.32566e-05
-0.00344272
-0.000116939
-0.00331029
-0.000143113
-0.00315861
-0.000162103
-0.00299324
-0.000175833
-0.00281225
-0.000190179
-0.00262434
-0.000197168
-0.00243042
-0.000202434
-0.00223148
-0.000206936
-0.00202703
-0.000211696
-0.00181716
-0.000217051
-0.00160102
-0.000222241
-0.00137537
-0.000231497
-0.0011467
-0.000233581
-0.000919514
-0.000231705
-0.000691864
-0.000231803
-0.000463733
-0.000231873
-0.000233962
-0.000232839
3.80734e-06
-0.000241369
0.000236403
-0.0002346
0.000457818
-0.000223818
0.000670243
-0.0002144
0.00087632
-0.000207869
0.00107483
-0.000200283
0.00126578
-0.000192538
0.00144868
-0.000184001
0.00162619
-0.000178201
0.0018012
-0.000175781
0.00197171
-0.000171253
0.00213611
-0.000164807
0.00229366
-0.000157683
0.00244469