/*--------------------------------*- C++ -*----------------------------------*\
| =========                 |                                                 |
| \\      /  F ield         | OpenFOAM: The Open Source CFD Toolbox           |
|  \\    /   O peration     | Version:  2412                                  |
|   \\  /    A nd           | Website:  www.openfoam.com                      |
|    \\/     M anipulation  |                                                 |
\*---------------------------------------------------------------------------*/
FoamFile
{
    version     2.0;
    format      ascii;
    arch        "LSB;label=32;scalar=64";
    class       volScalarField;
    location    "7.5";
    object      T;
}
// * * * * * * * * * * * * * * * * * * * * * * * * * * * * * * * * * * * * * //

dimensions      [0 0 0 1 0 0 0];

internalField   nonuniform List<scalar> 
5250
(
1.00001
1.00002
1.00008
1.00014
1.00046
1.00085
1.0025
1.00524
1.0135
1.03578
1.0802
1.24669
1.59819
2.40948
2.70463
2.73055
2.72982
2.734
2.74709
2.76048
2.77212
2.78024
2.78645
2.78971
2.79355
1.00001
1.00002
1.00008
1.00014
1.00045
1.00083
1.00246
1.00516
1.01328
1.0353
1.07902
1.24421
1.58815
2.40022
2.70157
2.73085
2.72998
2.73387
2.74676
2.75982
2.77113
2.77901
2.78482
2.787
2.7907
1.00001
1.00002
1.00007
1.00014
1.00044
1.00081
1.00237
1.00501
1.01282
1.03429
1.07653
1.23887
1.56688
2.37864
2.69319
2.73
2.72885
2.73192
2.74456
2.75757
2.7687
2.77612
2.7824
2.78453
2.78699
1.00001
1.00002
1.00007
1.00013
1.00042
1.00077
1.00226
1.00479
1.01219
1.03275
1.07278
1.2288
1.5318
2.34191
2.67859
2.7279
2.72647
2.72789
2.74094
2.7522
2.76423
2.7722
2.77761
2.78043
2.78287
1.00001
1.00002
1.00007
1.00012
1.00039
1.00073
1.00213
1.00451
1.01148
1.03077
1.06848
1.21458
1.49456
2.29135
2.6582
2.72556
2.72289
2.72296
2.73542
2.74676
2.75598
2.76393
2.7684
2.77076
2.77325
1.00001
1.00002
1.00006
1.00011
1.00036
1.00067
1.00197
1.00416
1.01065
1.02834
1.06346
1.19666
1.45223
2.21942
2.62994
2.72201
2.71799
2.7156
2.72704
2.73969
2.7491
2.75549
2.76085
2.76265
2.76447
1.00001
1.00002
1.00006
1.0001
1.00033
1.00061
1.00184
1.00376
1.00985
1.02521
1.05755
1.17494
1.40165
2.11764
2.59129
2.71603
2.71238
2.70472
2.71672
2.72426
2.73745
2.74296
2.74587
2.74562
2.74567
1.00001
1.00001
1.00005
1.00009
1.0003
1.00055
1.00169
1.00331
1.00899
1.0217
1.05101
1.15095
1.34574
1.99732
2.53774
2.70295
2.70027
2.69298
2.70708
2.71197
2.71837
2.72623
2.73015
2.7278
2.72372
1.00001
1.00001
1.00005
1.00008
1.00027
1.00048
1.00151
1.00285
1.0081
1.01808
1.04455
1.12617
1.28864
1.80019
2.49237
2.67177
2.67002
2.66657
2.68618
2.69704
2.70168
2.70134
2.7017
2.69658
2.67642
1.00001
1.00001
1.00004
1.00007
1.00023
1.00042
1.0013
1.00249
1.00706
1.01567
1.03917
1.10862
1.25144
1.6876
2.50484
2.6614
2.64387
2.64452
2.65253
2.66998
2.68008
2.67861
2.6701
2.6481
2.60064
1
1.00001
1.00002
1.00008
1.00014
1.00042
1.00088
1.00227
1.00563
1.01303
1.03729
1.07927
1.2518
1.62045
2.3935
2.64326
2.64152
2.63607
2.63163
2.64013
2.6471
2.64533
2.62836
2.58062
2.41523
1
1.00001
1.00003
1.00006
1.00017
1.00032
1.00099
1.00191
1.00536
1.01192
1.02965
1.08264
1.18021
1.5589
2.33221
2.58417
2.63262
2.62535
2.61837
2.61808
2.618
2.60866
2.58096
2.52273
2.3574
1
1.00001
1.00003
1.00005
1.00015
1.00028
1.00087
1.00161
1.00473
1.00994
1.02555
1.06896
1.15231
1.4737
2.20881
2.52794
2.62441
2.6157
2.60088
2.59513
2.58818
2.57553
2.54326
2.48998
2.36128
1
1.00001
1.00002
1.00004
1.00013
1.00024
1.00076
1.00137
1.00427
1.00818
1.0229
1.05411
1.12873
1.3693
2.0124
2.44952
2.60798
2.60011
2.59115
2.5724
2.55966
2.53389
2.50438
2.46384
2.3707
1
1.00001
1.00002
1.00003
1.00011
1.0002
1.00062
1.00113
1.0035
1.00661
1.01914
1.04137
1.10747
1.27215
1.81233
2.3428
2.56577
2.56302
2.56426
2.55679
2.54
2.51609
2.465
2.43324
2.36796
1
1
1.00001
1.00003
1.00009
1.00016
1.0005
1.0009
1.00278
1.00529
1.0149
1.03391
1.08147
1.22857
1.58752
2.29276
2.53897
2.53806
2.53112
2.52531
2.51481
2.49688
2.45417
2.40229
2.35535
1
1
1.00001
1.00002
1.00007
1.00012
1.00038
1.0007
1.00208
1.00422
1.01102
1.02788
1.06355
1.19137
1.43902
2.12398
2.48167
2.53004
2.51231
2.50423
2.48507
2.47075
2.44313
2.39313
2.34161
1
1
1.00001
1.00002
1.00005
1.0001
1.00031
1.00055
1.00172
1.00327
1.00904
1.02097
1.05005
1.14524
1.33082
1.93752
2.36267
2.50686
2.50195
2.48951
2.46925
2.44137
2.4192
2.3802
2.33344
1
1
1.00001
1.00001
1.00004
1.00007
1.00023
1.00042
1.00131
1.00245
1.00715
1.01504
1.0385
1.10005
1.23986
1.61054
2.273
2.45202
2.46668
2.46296
2.45139
2.42788
2.40021
2.365
2.32077
1
1
1
1.00001
1.00002
1.00007
1.00013
1.0004
1.00076
1.00219
1.00458
1.01176
1.03009
1.06851
1.19826
1.48137
2.12846
2.41575
2.44599
2.43342
2.42379
2.40216
2.38435
2.35569
2.31698
1
1
1
1.00001
1.00002
1.00006
1.0001
1.00032
1.00057
1.00176
1.00337
1.00936
1.02133
1.05153
1.1456
1.34268
1.86266
2.31772
2.42878
2.42263
2.40542
2.38148
2.3527
2.33121
2.3076
1
1
1
1.00001
1.00002
1.00003
1.0001
1.00018
1.00054
1.00102
1.003
1.006
1.01645
1.03709
1.0952
1.23375
1.7111
2.12483
2.36256
2.39754
2.39227
2.37438
2.34443
2.3101
2.28522
1
1
1
1
1.00001
1.00003
1.00005
1.00016
1.00029
1.00086
1.00173
1.00456
1.01083
1.02549
1.07214
1.15114
1.4745
2.09425
2.29004
2.3406
2.35016
2.34803
2.33481
2.3058
2.27352
1
1
1
1
1.00001
1.00002
1.00005
1.00009
1.00026
1.0005
1.00137
1.00304
1.00742
1.01972
1.04408
1.1295
1.28689
1.79137
2.22084
2.32642
2.32478
2.31271
2.30758
2.2946
2.26757
1
1
1
1
1
1.00001
1.00003
1.00008
1.00015
1.00047
1.00087
1.00259
1.0051
1.01417
1.03118
1.0797
1.19522
1.56177
2.05085
2.28914
2.30404
2.29765
2.2797
2.26616
2.25293
1
1
1
1
1
1.00001
1.00002
1.00006
1.00011
1.00033
1.0006
1.00183
1.00344
1.0099
1.0211
1.05279
1.13685
1.34067
1.80367
2.18927
2.28548
2.2827
2.27076
2.24987
2.22528
1
1
1
1
1
1.00001
1.00002
1.00003
1.00009
1.00017
1.00051
1.00097
1.00282
1.00561
1.01532
1.03377
1.08729
1.20688
1.62273
1.99803
2.22009
2.25866
2.25746
2.24433
2.22105
1
1
1
1
1
1
1.00001
1.00003
1.00005
1.00014
1.00026
1.00078
1.00151
1.00408
1.00917
1.02199
1.06035
1.12749
1.39208
1.91231
2.14509
2.20769
2.22275
2.22132
2.2125
1
1
1
1
1
1
1.00001
1.00001
1.00004
1.00007
1.00022
1.00041
1.00122
1.00236
1.00644
1.01439
1.03484
1.09429
1.20872
1.5893
2.01289
2.18356
2.19376
2.19964
2.19367
1
1
1
1
1
1
1
1.00001
1.00003
1.00005
1.00015
1.00027
1.00082
1.00152
1.00434
1.00908
1.02281
1.06
1.12865
1.38638
1.8852
2.12058
2.17702
2.17595
2.16914
1
1
1
1
1
1
1
1.00001
1.00001
1.00004
1.00007
1.00022
1.00041
1.00121
1.00233
1.00638
1.01408
1.03435
1.09189
1.20358
1.56445
1.96985
2.14612
2.16462
2.16313
1
1
1
1
1
1
1
1
1.00001
1.00003
1.00005
1.00014
1.00026
1.0008
1.00147
1.00424
1.00875
1.02218
1.05738
1.12411
1.36729
1.84632
2.06587
2.13836
2.14929
1
1
1
1
1
1
1
1
1.00001
1.00001
1.00004
1.00007
1.00021
1.00039
1.00115
1.0022
1.0062
1.01305
1.03285
1.0807
1.19668
1.47381
1.95491
2.10903
2.13379
1
1
1
1
1
1
1
1
1
1.00001
1.00002
1.00006
1.00011
1.00032
1.00059
1.00175
1.00335
1.00937
1.02011
1.0496
1.12661
1.30735
1.72842
2.04265
2.13331
1
1
1
1
1
1
1
1
1
1.00001
1.00001
1.00004
1.00007
1.0002
1.00037
1.00113
1.00206
1.00607
1.01186
1.03196
1.07153
1.18042
1.42901
1.89442
2.10838
1
1
1
1
1
1
1
1
1
1
1.00001
1.00002
1.00004
1.00013
1.00024
1.00073
1.00133
1.00397
1.00763
1.02088
1.04741
1.11169
1.30036
1.76237
2.05029
1
1
1
1
1
1
1
1
1
1
1.00001
1.00001
1.00004
1.00007
1.00021
1.00039
1.00116
1.00217
1.00635
1.01271
1.0337
1.07969
1.19664
1.49328
2.07652
1
1
1
1
1
1
1
1
1
1
1.00001
1.00001
1.00003
1.00005
1.00016
1.00029
1.00089
1.00165
1.00493
1.00989
1.02612
1.06569
1.14998
1.43722
2.09727
1
1
1
1
1
1
1
1
1
1
1
1.00001
1.00002
1.00005
1.0001
1.00029
1.00057
1.00152
1.00355
1.00838
1.02353
1.05065
1.16031
1.36318
2.01507
1
1
1
1
1
1
1
1
1
1
1
1.00001
1.00002
1.00004
1.00013
1.00023
1.00073
1.00136
1.00411
1.00836
1.02242
1.05697
1.13296
1.39255
2.09623
1
1
1
1
1
1
1
1
1
1
1
1.00001
1.00002
1.00004
1.00012
1.00022
1.00069
1.00129
1.00393
1.00797
1.02155
1.05478
1.12845
1.38149
2.08391
1
1
1
1
1
1
1
1
1
1
1
1.00001
1.00001
1.00004
1.00008
1.00024
1.00049
1.00129
1.00313
1.00734
1.02092
1.04528
1.14382
1.32813
1.95424
1
1
1
1
1
1
1
1
1
1
1
1.00001
1.00002
1.00003
1.00011
1.0002
1.00062
1.00121
1.00339
1.00765
1.01916
1.05302
1.11987
1.35679
2.01693
1
1
1
1
1
1
1
1
1
1
1
1.00001
1.00001
1.00004
1.00008
1.00025
1.00047
1.00136
1.00289
1.0074
1.01938
1.04428
1.13339
1.30513
1.85183
1
1
1
1
1
1
1
1
1
1
1
1.00001
1.00001
1.00004
1.00008
1.00025
1.00046
1.00137
1.00283
1.00737
1.01874
1.04338
1.12946
1.29612
1.80265
1
1
1
1
1
1
1
1
1
1
1
1.00001
1.00002
1.00003
1.00011
1.0002
1.00063
1.00116
1.00357
1.00709
1.01957
1.04738
1.11422
1.32224
1.93747
1
1
1
1
1
1
1
1
1
1
1
1.00001
1.00002
1.00003
1.00011
1.0002
1.00064
1.00115
1.00362
1.00693
1.01995
1.04523
1.11385
1.31102
1.9184
1
1
1
1
1
1
1
1
1
1
1
1.00001
1.00002
1.00003
1.00011
1.0002
1.00062
1.00114
1.0035
1.00693
1.01917
1.04611
1.11118
1.31383
1.90842
1
1
1
1
1
1
1
1
1
1
1
1.00001
1.00001
1.00004
1.00007
1.00023
1.00044
1.00121
1.00276
1.00668
1.01837
1.04091
1.12445
1.27981
1.76212
1
1
1
1
1
1
1
1
1
1
1
1.00001
1.00002
1.00003
1.0001
1.00019
1.0006
1.00112
1.00343
1.00683
1.01871
1.04571
1.1093
1.31024
1.89302
2.43338
2.73092
2.87063
3.07802
3.11404
3.05819
3.04182
3.02616
3.01072
2.98735
2.96751
2.94577
2.92776
2.90643
2.88741
2.86487
2.85034
2.84003
2.8374
2.83722
2.84403
2.85896
2.87947
2.90434
2.92763
2.95206
2.97097
2.99007
3.00427
3.01782
3.02787
3.03708
3.04415
3.04859
3.05255
3.05407
3.05454
3.05458
3.0524
3.05003
3.04707
3.04544
3.03959
3.03591
3.02833
3.02366
3.01655
3.01045
3.00119
2.99369
2.98489
2.97681
2.96744
2.95892
2.94886
2.94003
2.92972
2.92076
2.91046
2.90104
2.89084
2.88088
2.87044
2.86052
2.84968
2.83987
2.82899
2.81889
2.80811
2.79769
2.78674
2.77608
2.76508
2.75394
2.74324
2.73145
2.72108
2.70886
2.69846
2.68622
2.67548
2.66345
2.65246
2.64049
2.62955
2.61748
2.60673
2.59458
2.58401
2.57189
2.56148
2.54957
2.5394
2.5279
2.51835
2.50743
2.4993
2.48962
2.4844
2.47735
2.32393
2.5029
2.64238
2.93089
3.06897
3.17264
3.22354
3.20707
3.19048
3.182
3.17407
3.16942
3.16144
3.15338
3.14348
3.13196
3.1234
3.1175
3.11872
3.1246
3.13142
3.14449
3.15711
3.17149
3.17812
3.18316
3.1847
3.18384
3.17609
3.16712
3.15449
3.1392
3.12604
3.11545
3.10252
3.08996
3.07156
3.05816
3.04285
3.02788
3.01091
2.9964
2.98169
2.96698
2.95137
2.93783
2.92293
2.91031
2.89707
2.88534
2.87148
2.85904
2.84604
2.8344
2.82245
2.81101
2.79978
2.78864
2.77784
2.76699
2.75663
2.74575
2.73589
2.72494
2.71544
2.70436
2.69494
2.68399
2.6748
2.6639
2.65522
2.64413
2.63606
2.62467
2.61703
2.60551
2.59787
2.58649
2.57855
2.5674
2.55915
2.54804
2.53966
2.52839
2.52002
2.50854
2.5002
2.48859
2.48018
2.46862
2.46007
2.44868
2.44004
2.42891
2.4205
2.4098
2.4024
2.39295
2.38817
2.38164
2.29296
2.32207
2.43005
2.52394
2.69349
2.83293
3.02776
3.12783
3.18346
3.23416
3.26472
3.27676
3.2874
3.2979
3.30225
3.30318
3.30083
3.29987
3.3081
3.30987
3.319
3.32336
3.32551
3.32453
3.30843
3.29212
3.27222
3.25015
3.22514
3.19881
3.16978
3.14427
3.11854
3.09001
3.06102
3.03203
3.00286
2.97506
2.94776
2.92278
2.89809
2.87555
2.85318
2.83222
2.81225
2.79285
2.77509
2.75726
2.74184
2.72493
2.71023
2.69347
2.67982
2.66464
2.65156
2.63747
2.62478
2.61157
2.59954
2.58709
2.57549
2.56363
2.55234
2.54104
2.52998
2.51932
2.50858
2.49836
2.48795
2.47807
2.46802
2.45839
2.44857
2.43922
2.4295
2.4205
2.41073
2.40204
2.39225
2.38383
2.37421
2.36601
2.35664
2.34858
2.33948
2.33157
2.32273
2.31511
2.30649
2.29925
2.29074
2.28382
2.27539
2.2688
2.26073
2.2547
2.24763
2.24284
2.23814
2.23622
2.29881
2.26163
2.29286
2.33858
2.40701
2.51198
2.61027
2.77253
2.90632
3.04243
3.13905
3.19311
3.23432
3.27081
3.29849
3.31666
3.33437
3.33878
3.32229
3.3358
3.35315
3.34963
3.33606
3.31034
3.27496
3.2374
3.19814
3.1577
3.11786
3.07655
3.03779
2.99812
2.96117
2.92388
2.89138
2.85841
2.83071
2.80215
2.77864
2.7544
2.73431
2.7135
2.69599
2.67789
2.66214
2.64611
2.63173
2.61793
2.6051
2.59302
2.58052
2.56877
2.55668
2.54605
2.53469
2.52474
2.51387
2.50446
2.49403
2.48506
2.47502
2.46636
2.45663
2.44803
2.43862
2.42979
2.42074
2.41149
2.40273
2.39305
2.38439
2.37448
2.36575
2.35587
2.34701
2.33732
2.32834
2.31882
2.30978
2.30037
2.29132
2.28194
2.27291
2.26353
2.25456
2.24522
2.23627
2.22706
2.21807
2.20903
2.20008
2.19137
2.18267
2.17431
2.16619
2.15838
2.15141
2.14472
2.14008
2.13616
2.29845
2.25824
2.23311
2.25002
2.2728
2.31993
2.37794
2.44826
2.54551
2.63776
2.76374
2.88883
3.00906
3.10174
3.1668
3.21155
3.24161
3.26678
3.27086
3.27278
3.2599
3.23725
3.19717
3.14817
3.09375
3.03493
2.97997
2.92826
2.87875
2.83333
2.79148
2.75299
2.71774
2.68648
2.65864
2.63398
2.6128
2.59279
2.57591
2.55962
2.54626
2.53333
2.52217
2.51133
2.50187
2.49221
2.48368
2.47496
2.46777
2.46007
2.45318
2.445
2.43798
2.43011
2.42341
2.41555
2.40883
2.40082
2.39412
2.38597
2.37944
2.37119
2.36486
2.35645
2.35021
2.34165
2.33542
2.32683
2.32065
2.31223
2.30604
2.29783
2.29142
2.28338
2.27666
2.26874
2.26171
2.25383
2.24657
2.23867
2.2313
2.22339
2.21588
2.20787
2.20017
2.19207
2.18413
2.176
2.16786
2.15978
2.15152
2.1435
2.13534
2.12746
2.11972
2.11213
2.10537
2.09864
2.09403
2.08992
2.2962
2.25075
2.22586
2.20678
2.21323
2.22749
2.25433
2.28687
2.33179
2.38693
2.44921
2.53094
2.61277
2.71022
2.80879
2.90313
2.98184
3.03555
3.07377
3.07284
3.05164
3.00649
2.94645
2.87402
2.80419
2.73975
2.68429
2.63912
2.59961
2.56754
2.54108
2.51851
2.50088
2.48559
2.47368
2.4635
2.45525
2.44787
2.44269
2.43704
2.43352
2.42864
2.42582
2.42149
2.41849
2.41423
2.41067
2.40643
2.40283
2.39891
2.3947
2.38974
2.38431
2.37889
2.37317
2.36759
2.36142
2.3555
2.34888
2.34255
2.33573
2.32903
2.32229
2.31523
2.30864
2.30114
2.2945
2.28657
2.27969
2.27148
2.26435
2.25609
2.24879
2.24063
2.2332
2.22517
2.21765
2.20969
2.20214
2.19418
2.18662
2.17853
2.17094
2.16276
2.15521
2.14701
2.13948
2.13127
2.12376
2.11557
2.10813
2.09999
2.09273
2.08465
2.07781
2.06989
2.06385
2.05661
2.05227
2.04758
2.29074
2.24281
2.21204
2.19222
2.17787
2.1794
2.18846
2.20119
2.22143
2.2481
2.28029
2.32
2.37065
2.42483
2.49354
2.5553
2.62591
2.67137
2.71137
2.7103
2.68934
2.64417
2.58638
2.52542
2.47385
2.43419
2.40923
2.39421
2.3854
2.38127
2.37777
2.37583
2.37481
2.37477
2.37502
2.37571
2.37625
2.37702
2.37746
2.37742
2.3771
2.37651
2.37513
2.37394
2.37136
2.36937
2.36573
2.36256
2.35872
2.35518
2.35095
2.34601
2.34053
2.33445
2.32868
2.32213
2.31622
2.30932
2.30335
2.29618
2.29022
2.28279
2.27684
2.26916
2.26317
2.25524
2.24916
2.24107
2.23482
2.22674
2.22027
2.21236
2.2057
2.19802
2.19125
2.18375
2.17692
2.16948
2.16254
2.15512
2.14808
2.14061
2.13352
2.12604
2.11881
2.11132
2.10394
2.09648
2.08902
2.08163
2.07419
2.0669
2.05962
2.05241
2.04551
2.03849
2.03229
2.02593
2.02134
2.01755
2.28668
2.24197
2.20332
2.1813
2.16034
2.15261
2.14685
2.15186
2.1582
2.16968
2.18593
2.20561
2.23561
2.26795
2.31335
2.35555
2.40411
2.4416
2.47118
2.47364
2.45662
2.42277
2.38205
2.34305
2.31405
2.29207
2.28377
2.28087
2.28702
2.29481
2.30227
2.30781
2.31255
2.31599
2.31861
2.32097
2.32175
2.32257
2.32248
2.3221
2.32137
2.31973
2.31827
2.31534
2.31274
2.30884
2.30522
2.30089
2.29688
2.29286
2.28857
2.28388
2.27837
2.27289
2.26712
2.26164
2.25598
2.25045
2.24476
2.23888
2.23295
2.22656
2.22033
2.21347
2.20695
2.19979
2.19296
2.18566
2.17858
2.17132
2.16409
2.15699
2.14972
2.14279
2.13552
2.12873
2.12138
2.11462
2.10721
2.1004
2.09296
2.08613
2.07869
2.07185
2.06442
2.05763
2.05025
2.04351
2.03622
2.02952
2.02239
2.01571
2.00886
2.00216
1.99573
1.98908
1.98326
1.97709
1.97259
1.96886
2.2766
2.23786
2.1997
2.17196
2.1513
2.13458
2.12769
2.11971
2.12096
2.12434
2.13254
2.14253
2.16352
2.18748
2.21845
2.25303
2.29102
2.32831
2.35012
2.34848
2.33348
2.30729
2.27398
2.24369
2.21822
2.20619
2.19533
2.19363
2.19688
2.20575
2.21681
2.22639
2.23436
2.24002
2.24444
2.24793
2.24992
2.25221
2.25293
2.25446
2.25477
2.25472
2.25439
2.25365
2.25232
2.25065
2.24879
2.24626
2.24404
2.24143
2.23914
2.23579
2.23231
2.22776
2.22361
2.21859
2.21417
2.20878
2.20415
2.19837
2.19357
2.18745
2.18247
2.17612
2.17095
2.1644
2.15896
2.15223
2.14647
2.13967
2.13367
2.12687
2.12069
2.11385
2.10745
2.10047
2.0939
2.08682
2.08018
2.07296
2.06627
2.05892
2.05219
2.04476
2.03801
2.03058
2.02384
2.01648
2.00978
2.00252
1.9959
1.98868
1.98222
1.97501
1.96883
1.96167
1.95597
1.94927
1.94473
1.94042
2.27164
2.23291
2.19506
2.16447
2.14115
2.12257
2.11002
2.10231
2.09623
2.09609
2.10059
2.11088
2.12707
2.15033
2.17678
2.2097
2.25251
2.28456
2.29737
2.29182
2.27726
2.25145
2.2215
2.18869
2.16813
2.15205
2.14508
2.14022
2.14076
2.1458
2.15606
2.16768
2.18072
2.19063
2.19959
2.20503
2.21057
2.21371
2.21722
2.2192
2.22098
2.22175
2.22253
2.22238
2.22204
2.22125
2.22023
2.21849
2.21653
2.21432
2.21217
2.20947
2.20632
2.20235
2.19836
2.19383
2.18957
2.18459
2.1801
2.17461
2.16984
2.16386
2.1588
2.15242
2.14708
2.14043
2.13483
2.128
2.12213
2.11519
2.10907
2.10209
2.09578
2.08878
2.08234
2.07541
2.06894
2.06203
2.05548
2.04857
2.04193
2.03505
2.02835
2.02155
2.0148
2.00811
2.00133
1.99473
1.98797
1.98142
1.97479
1.96827
1.96184
1.9553
1.94918
1.94263
1.93694
1.93078
1.92617
1.92234
2.26869
2.23082
2.19487
2.16103
2.13557
2.11343
2.09799
2.0868
2.08075
2.0775
2.08236
2.09511
2.11434
2.1357
2.16882
2.2109
2.25538
2.27791
2.28134
2.27292
2.25258
2.22622
2.19147
2.16175
2.13742
2.12063
2.10989
2.1038
2.0994
2.09938
2.10301
2.11043
2.12044
2.1328
2.14319
2.15255
2.15907
2.16477
2.16826
2.17154
2.17292
2.1746
2.17493
2.17567
2.17562
2.1753
2.17466
2.17337
2.17184
2.16985
2.16819
2.16601
2.16367
2.16032
2.15693
2.1529
2.14902
2.14454
2.1403
2.13548
2.13089
2.12574
2.12078
2.11535
2.11003
2.10436
2.09866
2.09273
2.08664
2.0805
2.07409
2.06783
2.06118
2.05498
2.04828
2.04211
2.03534
2.02915
2.02231
2.01605
2.00918
2.00284
1.99598
1.98961
1.98278
1.97644
1.96969
1.96339
1.95673
1.95046
1.94392
1.93761
1.93124
1.92482
1.91872
1.91223
1.90655
1.90036
1.89571
1.89176
2.25841
2.22633
2.19398
2.16089
2.13354
2.10982
2.09164
2.07708
2.07083
2.06753
2.07572
2.09162
2.11123
2.1385
2.18038
2.23283
2.26822
2.27839
2.27491
2.26061
2.23983
2.2058
2.17369
2.14512
2.12188
2.10213
2.08798
2.07737
2.07078
2.06682
2.06531
2.06687
2.07222
2.08087
2.09328
2.10604
2.11708
2.1264
2.13297
2.13814
2.14154
2.14469
2.14656
2.14877
2.14965
2.15091
2.15083
2.15052
2.14985
2.14845
2.14733
2.14557
2.14396
2.14107
2.13825
2.13426
2.13084
2.12633
2.12257
2.11773
2.11368
2.10851
2.10407
2.09854
2.09366
2.08779
2.08246
2.07629
2.07053
2.06414
2.05803
2.05156
2.04534
2.03893
2.03262
2.02623
2.01983
2.0134
2.00694
2.00048
1.99401
1.98753
1.98109
1.97459
1.96818
1.96165
1.95527
1.9487
1.94237
1.93577
1.92951
1.92288
1.91676
1.9101
1.90418
1.89759
1.89204
1.8859
1.88132
1.87748
2.24463
2.2137
2.18895
2.15977
2.13317
2.10935
2.09071
2.07559
2.06816
2.06976
2.08182
2.09847
2.12348
2.16318
2.21894
2.26226
2.28178
2.28182
2.27414
2.25574
2.2273
2.19542
2.16529
2.13879
2.11476
2.09439
2.07656
2.06278
2.05178
2.0451
2.04035
2.03846
2.03855
2.042
2.04988
2.06105
2.07376
2.08505
2.09511
2.10257
2.10877
2.11272
2.11596
2.1178
2.11926
2.12003
2.12031
2.11995
2.11922
2.11789
2.11642
2.1148
2.11331
2.11108
2.10856
2.10515
2.10186
2.09782
2.09407
2.08961
2.08549
2.08063
2.07604
2.07075
2.06566
2.05998
2.05448
2.04852
2.04271
2.03659
2.03057
2.02446
2.01833
2.01225
2.00598
1.99988
1.99346
1.98731
1.9808
1.97464
1.96815
1.96204
1.95565
1.94962
1.94335
1.93736
1.9312
1.92519
1.9191
1.91301
1.90703
1.90087
1.89506
1.88888
1.8833
1.87725
1.872
1.86645
1.86208
1.85878
2.23902
2.20669
2.17841
2.1529
2.13083
2.10866
2.09227
2.07943
2.07668
2.084
2.09874
2.12
2.15731
2.21034
2.26007
2.28635
2.2894
2.28463
2.26981
2.24644
2.21711
2.18821
2.16131
2.13694
2.11395
2.09348
2.07434
2.05819
2.04393
2.03317
2.02451
2.02016
2.01716
2.01662
2.01781
2.02313
2.03146
2.04282
2.05407
2.06505
2.07362
2.08097
2.08569
2.08952
2.09172
2.09314
2.09412
2.09422
2.0939
2.09312
2.09212
2.09071
2.08962
2.08788
2.08604
2.08312
2.08024
2.07658
2.07304
2.06883
2.06469
2.06001
2.05535
2.05029
2.04518
2.03982
2.03434
2.02873
2.02292
2.01712
2.01115
2.00527
1.99915
1.99319
1.98692
1.98087
1.97447
1.96836
1.96188
1.95579
1.94931
1.94329
1.93689
1.93097
1.92472
1.91885
1.91277
1.90689
1.90096
1.89501
1.88921
1.88318
1.87752
1.87148
1.86601
1.86011
1.85498
1.8496
1.8454
1.8422
2.23262
2.20434
2.17655
2.14969
2.12686
2.10829
2.09502
2.09042
2.09421
2.10814
2.12578
2.16007
2.21068
2.26184
2.29124
2.29816
2.29515
2.28403
2.26543
2.23815
2.21145
2.18574
2.16201
2.13913
2.11786
2.09712
2.07794
2.05991
2.04374
2.02948
2.01734
2.00793
2.00136
1.99739
1.99565
1.99487
1.99729
2.00341
2.01317
2.02399
2.03533
2.04486
2.05318
2.05897
2.06323
2.06592
2.06727
2.06836
2.06836
2.06802
2.06743
2.06619
2.06533
2.06386
2.06244
2.05991
2.05734
2.05388
2.0506
2.04658
2.04271
2.03829
2.03391
2.02915
2.02428
2.01917
2.01386
2.00836
2.00268
1.99696
1.9911
1.98524
1.97923
1.97328
1.96716
1.96117
1.95493
1.94894
1.94262
1.93666
1.93035
1.92445
1.91826
1.91243
1.90641
1.90062
1.89476
1.88895
1.8832
1.87735
1.87171
1.86585
1.86035
1.85454
1.84927
1.84365
1.83878
1.83372
1.82986
1.82688
2.20955
2.19511
2.17372
2.14953
2.12874
2.11127
2.10355
2.1052
2.11872
2.13535
2.16877
2.21674
2.27013
2.30132
2.3101
2.30791
2.29959
2.28318
2.25847
2.23278
2.20991
2.18766
2.16671
2.14531
2.12473
2.10344
2.08405
2.06431
2.04711
2.02985
2.01576
2.00213
1.99173
1.98371
1.97852
1.97539
1.97398
1.97351
1.97704
1.9848
1.99443
2.00588
2.01615
2.02579
2.03275
2.03826
2.04167
2.04353
2.04491
2.04481
2.04439
2.04348
2.04272
2.04153
2.04062
2.03871
2.03684
2.03377
2.03093
2.02713
2.02354
2.0192
2.01504
2.01028
2.00563
2.00049
1.9954
1.98993
1.98461
1.97898
1.97345
1.96767
1.96192
1.95602
1.95006
1.94411
1.93803
1.93209
1.92596
1.92005
1.91397
1.90812
1.90216
1.89638
1.8906
1.88487
1.87926
1.87353
1.86804
1.86228
1.85691
1.85115
1.84597
1.84032
1.83542
1.83012
1.82569
1.82117
1.81786
1.81536
2.19837
2.17771
2.16301
2.14781
2.13099
2.1222
2.12127
2.13268
2.14779
2.17907
2.22449
2.27658
2.30748
2.31828
2.31683
2.30997
2.29639
2.27347
2.25158
2.2302
2.2106
2.19084
2.17058
2.15015
2.12907
2.10871
2.08844
2.06898
2.04997
2.03216
2.01561
2.0006
1.98786
1.97614
1.96764
1.96014
1.95655
1.95256
1.95202
1.95231
1.95751
1.96544
1.97649
1.98677
1.99736
2.00509
2.01182
2.01563
2.0186
2.0197
2.02035
2.01993
2.01945
2.01847
2.0178
2.01632
2.01495
2.01216
2.00969
2.00609
2.00281
1.99863
1.99468
1.99004
1.98552
1.98041
1.9754
1.97
1.96476
1.95919
1.9538
1.94814
1.94264
1.93693
1.93131
1.92556
1.91978
1.91397
1.90806
1.90222
1.89625
1.89044
1.88456
1.87886
1.87318
1.86764
1.86217
1.85675
1.85145
1.84608
1.84091
1.83562
1.83062
1.82552
1.82087
1.81623
1.81227
1.80858
1.80597
1.80413
2.19269
2.17189
2.15336
2.14183
2.13586
2.1369
2.1493
2.16461
2.1957
2.24056
2.29091
2.32017
2.32992
2.32829
2.32127
2.30747
2.28742
2.26733
2.2482
2.23079
2.21223
2.19456
2.1743
2.15538
2.13443
2.1152
2.09448
2.07535
2.05546
2.03746
2.01954
2.0033
1.98774
1.97361
1.96067
1.95042
1.94203
1.93621
1.93243
1.92937
1.9294
1.93092
1.93717
1.94694
1.95722
1.9684
1.97725
1.98561
1.99032
1.99469
1.99598
1.9975
1.99706
1.99617
1.99563
1.99451
1.99349
1.99134
1.98934
1.98625
1.9834
1.97967
1.97606
1.97172
1.9674
1.96248
1.95765
1.95242
1.94732
1.94188
1.93658
1.93104
1.92554
1.91998
1.91431
1.90878
1.90295
1.89746
1.89151
1.88605
1.88006
1.87463
1.86871
1.86332
1.85758
1.85225
1.84676
1.84149
1.83626
1.83106
1.82608
1.82104
1.81636
1.81163
1.80745
1.80339
1.80011
1.79722
1.79535
1.79385
2.18403
2.16831
2.15568
2.14516
2.14799
2.16132
2.17864
2.21086
2.25715
2.30513
2.3322
2.34076
2.33884
2.33112
2.31722
2.29866
2.28027
2.26349
2.24711
2.23167
2.21455
2.19758
2.17825
2.15978
2.13942
2.12031
2.09968
2.08045
2.06028
2.0417
2.02251
2.00516
1.98778
1.97234
1.95785
1.94539
1.9335
1.92543
1.91767
1.9134
1.90895
1.90788
1.90821
1.9111
1.91852
1.92838
1.939
1.94922
1.95816
1.9647
1.96981
1.97194
1.97385
1.97348
1.97294
1.972
1.97127
1.96973
1.96802
1.96539
1.96265
1.95943
1.95591
1.95211
1.9478
1.94344
1.93867
1.93398
1.9289
1.92393
1.9186
1.91343
1.90792
1.90265
1.89703
1.89175
1.88604
1.88079
1.87501
1.86978
1.86398
1.85882
1.8531
1.84804
1.84251
1.83755
1.83223
1.82737
1.82231
1.8175
1.8128
1.80805
1.80391
1.79948
1.79615
1.79257
1.79044
1.78806
1.78733
1.78615
2.16364
2.1563
2.15277
2.15832
2.1723
2.19162
2.22413
2.27406
2.32102
2.34777
2.35386
2.35117
2.3418
2.32498
2.3064
2.28967
2.27416
2.26025
2.24573
2.23126
2.21483
2.19803
2.17957
2.1613
2.14199
2.12275
2.10299
2.08322
2.06353
2.04417
2.02524
2.00724
1.98971
1.97342
1.95781
1.94337
1.93002
1.91843
1.90788
1.90048
1.89384
1.88962
1.88555
1.88543
1.88571
1.88985
1.89817
1.90787
1.91868
1.92802
1.9362
1.94158
1.94543
1.94675
1.9472
1.94639
1.94573
1.94456
1.94324
1.9412
1.93871
1.936
1.9327
1.92938
1.92533
1.92143
1.91689
1.91257
1.90768
1.903
1.89782
1.89287
1.88748
1.88245
1.87695
1.87195
1.86641
1.86152
1.85598
1.85117
1.8457
1.84097
1.83567
1.83101
1.82599
1.82136
1.8167
1.81199
1.8078
1.80307
1.79934
1.79491
1.7917
1.78804
1.78577
1.78338
1.7822
1.78132
1.78206
1.78137
2.15524
2.15057
2.15722
2.17603
2.20295
2.23958
2.29329
2.34043
2.36474
2.36685
2.36304
2.35139
2.33163
2.31306
2.29642
2.28251
2.26907
2.25633
2.24266
2.22836
2.213
2.1966
2.17977
2.16168
2.14378
2.12461
2.10604
2.08639
2.06782
2.04834
2.03017
2.01143
1.99395
1.97618
1.95972
1.94331
1.92866
1.91433
1.90172
1.89061
1.88111
1.87365
1.86738
1.86261
1.85944
1.85934
1.86031
1.86561
1.87404
1.88396
1.89384
1.90285
1.90952
1.91462
1.91696
1.91844
1.91804
1.91742
1.91653
1.91539
1.91329
1.91099
1.90784
1.9048
1.9009
1.89731
1.8929
1.8889
1.88409
1.87976
1.87469
1.87017
1.86498
1.86037
1.85515
1.85051
1.84531
1.84068
1.83552
1.83088
1.82584
1.82121
1.81637
1.81186
1.80727
1.80295
1.79864
1.79463
1.79056
1.78712
1.78336
1.78075
1.77781
1.77632
1.77478
1.77443
1.77469
1.77609
1.7787
1.77865
2.15269
2.1579
2.17361
2.20503
2.2481
2.30433
2.3524
2.37781
2.38052
2.37639
2.36325
2.342
2.32246
2.3066
2.29295
2.28076
2.26887
2.25657
2.24369
2.2294
2.21428
2.19777
2.18091
2.16296
2.14516
2.12624
2.10789
2.08842
2.06981
2.05037
2.03196
2.01287
1.99497
1.97646
1.95954
1.94192
1.92634
1.90987
1.89616
1.8817
1.87032
1.85893
1.85096
1.84268
1.83717
1.83226
1.8308
1.83068
1.83298
1.83931
1.84849
1.85863
1.86847
1.87702
1.88331
1.88772
1.8896
1.89056
1.88988
1.88935
1.88812
1.88649
1.88347
1.88074
1.87706
1.87382
1.86972
1.86597
1.8615
1.85729
1.85249
1.84798
1.84297
1.83835
1.8333
1.82863
1.82366
1.81896
1.81416
1.80948
1.80488
1.80033
1.796
1.79164
1.78763
1.78362
1.77984
1.77645
1.77288
1.77024
1.76744
1.76564
1.76431
1.76393
1.76413
1.76531
1.76815
1.77113
1.77711
1.77956
2.14942
2.17034
2.20526
2.25733
2.32186
2.36808
2.39014
2.39116
2.38405
2.36684
2.3453
2.32541
2.30907
2.29645
2.28526
2.27453
2.26388
2.25215
2.23971
2.22574
2.21091
2.19497
2.17855
2.16128
2.14386
2.12556
2.10721
2.08834
2.06949
2.05063
2.03159
2.01304
1.99417
1.97623
1.95783
1.94047
1.92281
1.90643
1.89008
1.87511
1.8607
1.84796
1.83659
1.82667
1.81909
1.81148
1.80677
1.80295
1.80298
1.80358
1.808
1.81593
1.8259
1.8368
1.84659
1.85479
1.86068
1.86402
1.86568
1.86542
1.86486
1.86394
1.86193
1.85935
1.85586
1.85261
1.8486
1.84482
1.8404
1.83623
1.83157
1.82723
1.82246
1.81804
1.81324
1.80874
1.80398
1.79934
1.79472
1.78992
1.7856
1.78074
1.77681
1.77218
1.76862
1.76453
1.76136
1.7581
1.7555
1.75336
1.75192
1.75136
1.75172
1.75246
1.75523
1.75811
1.76291
1.77024
1.78135
1.78869
2.16793
2.20895
2.27367
2.33616
2.37898
2.39433
2.39487
2.3865
2.36676
2.34362
2.32389
2.30772
2.29495
2.28376
2.27409
2.26352
2.25312
2.2418
2.22953
2.21658
2.20191
2.18727
2.17092
2.15488
2.13731
2.12007
2.10164
2.08375
2.06485
2.04664
2.02761
2.00923
1.99036
1.97196
1.95329
1.93517
1.91717
1.89996
1.88316
1.86771
1.85268
1.83941
1.82626
1.81585
1.80521
1.79794
1.78995
1.78495
1.78045
1.78
1.78044
1.78273
1.78888
1.79843
1.80874
1.81974
1.82878
1.83612
1.84052
1.84291
1.84332
1.84278
1.84161
1.84016
1.83727
1.83424
1.83065
1.82689
1.82291
1.81866
1.81441
1.80989
1.80545
1.80084
1.7963
1.79167
1.78712
1.7825
1.77804
1.77351
1.76914
1.76481
1.76063
1.75655
1.75274
1.74909
1.74595
1.74302
1.74108
1.73945
1.73935
1.73964
1.74075
1.7436
1.74681
1.75317
1.76219
1.77536
1.79017
1.79951
2.19871
2.28649
2.36705
2.41017
2.41937
2.41378
2.39808
2.37102
2.34715
2.32674
2.31086
2.29798
2.28746
2.27751
2.2676
2.25704
2.24573
2.23433
2.22176
2.20913
2.19504
2.18072
2.16531
2.14937
2.13305
2.11602
2.09879
2.08088
2.06255
2.04389
2.02487
2.00581
1.98661
1.96753
1.94893
1.93077
1.9132
1.89623
1.87985
1.8642
1.84925
1.83506
1.82192
1.8095
1.79859
1.78865
1.78063
1.77343
1.76749
1.76265
1.76087
1.76137
1.76279
1.76692
1.77494
1.78521
1.79644
1.80656
1.81518
1.82091
1.82442
1.82541
1.82489
1.82412
1.82245
1.82004
1.81677
1.81298
1.80928
1.80503
1.80101
1.79654
1.79224
1.78773
1.78324
1.77887
1.77423
1.77012
1.76542
1.76155
1.75697
1.75333
1.749
1.74571
1.74183
1.73907
1.73601
1.73434
1.73279
1.73288
1.7332
1.73499
1.73728
1.74211
1.7486
1.76019
1.77382
1.78915
1.8055
1.81437
2.2626
2.40098
2.45242
2.45183
2.43411
2.41106
2.37944
2.35201
2.32949
2.31092
2.29678
2.28495
2.27451
2.26424
2.25374
2.24269
2.23095
2.21897
2.20646
2.19378
2.18048
2.16654
2.1522
2.13698
2.12153
2.10499
2.08829
2.07073
2.05297
2.03497
2.01671
1.99867
1.9805
1.96277
1.945
1.92762
1.91069
1.89417
1.87823
1.86278
1.84804
1.83373
1.82052
1.80748
1.79608
1.78479
1.77552
1.76678
1.76014
1.75393
1.74966
1.74736
1.7478
1.7489
1.75171
1.75746
1.76651
1.77677
1.78769
1.79691
1.80403
1.80844
1.81026
1.8101
1.80891
1.80736
1.80483
1.80131
1.79747
1.79313
1.78904
1.78446
1.78031
1.77565
1.77139
1.76676
1.76247
1.75801
1.75378
1.74961
1.7456
1.74178
1.73817
1.73485
1.73187
1.72962
1.72779
1.72727
1.72755
1.72835
1.73028
1.7342
1.73953
1.74861
1.76134
1.77633
1.79286
1.80828
1.82286
1.82922
2.37165
2.52827
2.52193
2.49497
2.45961
2.41554
2.38145
2.35458
2.33277
2.31504
2.30041
2.28747
2.27573
2.26442
2.2529
2.24122
2.22902
2.21682
2.2039
2.19088
2.17712
2.16283
2.14796
2.13225
2.11631
2.09953
2.08275
2.06529
2.04791
2.03017
2.01248
1.99485
1.97727
1.95997
1.94294