/*--------------------------------*- C++ -*----------------------------------*\
| =========                 |                                                 |
| \\      /  F ield         | OpenFOAM: The Open Source CFD Toolbox           |
|  \\    /   O peration     | Version:  2412                                  |
|   \\  /    A nd           | Website:  www.openfoam.com                      |
|    \\/     M anipulation  |                                                 |
\*---------------------------------------------------------------------------*/
FoamFile
{
    version     2.0;
    format      ascii;
    arch        "LSB;label=32;scalar=64";
    class       volVectorField;
    location    "7.5";
    object      U;
}
// * * * * * * * * * * * * * * * * * * * * * * * * * * * * * * * * * * * * * //

dimensions      [0 1 -1 0 0 0 0];

internalField   nonuniform List<vector> 
5250
(
(2.99999 1.51639e-08 0)
(2.99998 1.17301e-07 0)
(2.99995 3.6157e-07 0)
(2.99988 1.08766e-06 0)
(2.99969 2.58309e-06 0)
(2.99932 6.80355e-06 0)
(2.99815 1.55082e-05 0)
(2.99618 3.94441e-05 0)
(2.98846 8.76434e-05 0)
(2.9761 0.000233821 0)
(2.92626 0.000534568 0)
(2.80906 0.00137074 0)
(2.47775 0.00390022 0)
(1.46136 0.0103279 0)
(0.680827 0.0240413 0)
(0.544863 0.0246162 0)
(0.563709 0.0252211 0)
(0.551728 0.026563 0)
(0.49555 0.0280493 0)
(0.408065 0.0298143 0)
(0.327395 0.0321044 0)
(0.259706 0.0347203 0)
(0.190772 0.0373974 0)
(0.113605 0.0403103 0)
(0.0489601 0.0439681 0)
(2.99999 4.54191e-08 0)
(2.99998 3.52655e-07 0)
(2.99995 1.08588e-06 0)
(2.99988 3.27501e-06 0)
(2.9997 7.78094e-06 0)
(2.99934 2.05622e-05 0)
(2.99818 4.69752e-05 0)
(2.99624 0.000119876 0)
(2.98862 0.000266951 0)
(2.97647 0.000718433 0)
(2.92716 0.00164358 0)
(2.81208 0.00425541 0)
(2.48458 0.0120961 0)
(1.47518 0.0322975 0)
(0.689821 0.0733306 0)
(0.541303 0.0709105 0)
(0.560991 0.0692993 0)
(0.549757 0.0707906 0)
(0.493769 0.0727513 0)
(0.406733 0.0755723 0)
(0.326445 0.0792386 0)
(0.25867 0.0831457 0)
(0.189323 0.0866579 0)
(0.111424 0.0899063 0)
(0.046509 0.0924853 0)
(2.99999 7.2435e-08 0)
(2.99998 5.6322e-07 0)
(2.99995 1.73299e-06 0)
(2.99989 5.23397e-06 0)
(2.99971 1.24177e-05 0)
(2.99936 3.30328e-05 0)
(2.99824 7.47601e-05 0)
(2.99636 0.000195653 0)
(2.98896 0.000426609 0)
(2.97726 0.00120585 0)
(2.92907 0.00265007 0)
(2.81847 0.00766763 0)
(2.4994 0.0206793 0)
(1.50732 0.0568861 0)
(0.711945 0.129095 0)
(0.536429 0.121012 0)
(0.559205 0.116104 0)
(0.550646 0.118815 0)
(0.495816 0.122733 0)
(0.410167 0.128594 0)
(0.330649 0.135355 0)
(0.262724 0.142454 0)
(0.192667 0.149108 0)
(0.113457 0.154964 0)
(0.0466709 0.158417 0)
(2.99999 9.32639e-08 0)
(2.99998 7.24249e-07 0)
(2.99995 2.22799e-06 0)
(2.99989 6.72594e-06 0)
(2.99972 1.5908e-05 0)
(2.99939 4.26356e-05 0)
(2.99832 9.47571e-05 0)
(2.99653 0.000257332 0)
(2.98946 0.000543331 0)
(2.97835 0.0016177 0)
(2.93228 0.00340221 0)
(2.82833 0.0110018 0)
(2.52272 0.0274026 0)
(1.56404 0.0819179 0)
(0.75133 0.186883 0)
(0.53266 0.170854 0)
(0.561063 0.161638 0)
(0.556966 0.16582 0)
(0.503539 0.171948 0)
(0.419452 0.181222 0)
(0.340392 0.191459 0)
(0.272099 0.202341 0)
(0.200921 0.213044 0)
(0.11922 0.222442 0)
(0.04876 0.227423 0)
(2.99999 1.10619e-07 0)
(2.99998 8.59466e-07 0)
(2.99996 2.64321e-06 0)
(2.9999 7.98814e-06 0)
(2.99974 1.88617e-05 0)
(2.99942 5.08983e-05 0)
(2.99842 0.000111913 0)
(2.99673 0.000311796 0)
(2.99008 0.000647348 0)
(2.97967 0.00197736 0)
(2.93649 0.00409541 0)
(2.84006 0.0138206 0)
(2.55388 0.032869 0)
(1.64715 0.106073 0)
(0.804572 0.246286 0)
(0.527005 0.220101 0)
(0.564805 0.206013 0)
(0.56753 0.211787 0)
(0.515986 0.220104 0)
(0.433932 0.232737 0)
(0.355449 0.246771 0)
(0.286752 0.261967 0)
(0.214101 0.277499 0)
(0.128872 0.291579 0)
(0.0528795 0.299202 0)
(3 1.2247e-07 0)
(2.99999 9.50628e-07 0)
(2.99996 2.92256e-06 0)
(2.99991 8.83486e-06 0)
(2.99975 2.07826e-05 0)
(2.99946 5.67556e-05 0)
(2.99853 0.000121501 0)
(2.99698 0.000358382 0)
(2.99084 0.000703263 0)
(2.98125 0.00235555 0)
(2.94166 0.00473853 0)
(2.8541 0.0164871 0)
(2.59295 0.0391248 0)
(1.75797 0.128474 0)
(0.873882 0.307228 0)
(0.522046 0.269683 0)
(0.57295 0.250546 0)
(0.584229 0.257604 0)
(0.534479 0.267955 0)
(0.454733 0.284262 0)
(0.376777 0.302687 0)
(0.307654 0.323188 0)
(0.233283 0.345122 0)
(0.143428 0.366123 0)
(0.0596851 0.378829 0)
(3 1.32026e-07 0)
(2.99999 1.023e-06 0)
(2.99996 3.14492e-06 0)
(2.99991 9.50104e-06 0)
(2.99978 2.22885e-05 0)
(2.99951 6.1356e-05 0)
(2.99867 0.000128375 0)
(2.99722 0.000396818 0)
(2.99173 0.000733007 0)
(2.98307 0.00268899 0)
(2.94772 0.00523831 0)
(2.87082 0.018602 0)
(2.63935 0.0443776 0)
(1.89639 0.145329 0)
(0.96454 0.361135 0)
(0.526267 0.318755 0)
(0.590571 0.296017 0)
(0.610251 0.303039 0)
(0.561844 0.314951 0)
(0.484528 0.335707 0)
(0.406847 0.35944 0)
(0.337223 0.386605 0)
(0.261222 0.416984 0)
(0.165907 0.448521 0)
(0.0711851 0.471435 0)
(3 1.43937e-07 0)
(2.99999 1.11633e-06 0)
(2.99997 3.4336e-06 0)
(2.99992 1.03751e-05 0)
(2.9998 2.44095e-05 0)
(2.99955 6.67308e-05 0)
(2.99881 0.000141827 0)
(2.99748 0.000427368 0)
(2.99273 0.00079438 0)
(2.98505 0.00288533 0)
(2.95437 0.00559523 0)
(2.88901 0.019615 0)
(2.69013 0.0478721 0)
(2.05511 0.154008 0)
(1.07751 0.402243 0)
(0.552059 0.372525 0)
(0.622589 0.349259 0)
(0.64833 0.351321 0)
(0.601517 0.363227 0)
(0.526627 0.387918 0)
(0.448647 0.417447 0)
(0.378345 0.452771 0)
(0.301277 0.494027 0)
(0.201093 0.541718 0)
(0.0912801 0.585715 0)
(3 1.5134e-07 0)
(2.99999 1.16408e-06 0)
(2.99997 3.5842e-06 0)
(2.99993 1.07513e-05 0)
(2.99982 2.53944e-05 0)
(2.9996 6.78217e-05 0)
(2.99897 0.00014883 0)
(2.99776 0.0004133 0)
(2.99377 0.000825558 0)
(2.9871 0.00265695 0)
(2.96117 0.0052233 0)
(2.9083 0.0173511 0)
(2.74301 0.0430476 0)
(2.22945 0.129492 0)
(1.24416 0.359387 0)
(0.626347 0.402579 0)
(0.677228 0.404134 0)
(0.700559 0.399479 0)
(0.656307 0.414604 0)
(0.583563 0.441482 0)
(0.505077 0.477566 0)
(0.434426 0.521231 0)
(0.358849 0.575665 0)
(0.258896 0.648357 0)
(0.128982 0.736997 0)
(3 5.01108e-08 0)
(2.99999 1.59253e-06 0)
(2.99997 3.10217e-06 0)
(2.99994 1.4019e-05 0)
(2.99985 2.25218e-05 0)
(2.99966 8.8887e-05 0)
(2.9991 0.000124978 0)
(2.99805 0.000549178 0)
(2.99459 0.000555249 0)
(2.98874 0.00345524 0)
(2.96625 0.00207421 0)
(2.92219 0.0214817 0)
(2.77553 0.0205051 0)
(2.33838 0.113537 0)
(1.39908 0.258658 0)
(0.680891 0.432231 0)
(0.704133 0.459946 0)
(0.731308 0.454691 0)
(0.705686 0.470829 0)
(0.643218 0.497257 0)
(0.571097 0.538874 0)
(0.504506 0.590294 0)
(0.439293 0.662318 0)
(0.356242 0.776354 0)
(0.201222 0.980677 0)
(3 1.15359e-07 0)
(2.99999 8.97659e-07 0)
(2.99998 2.76376e-06 0)
(2.99995 8.33051e-06 0)
(2.99988 1.97314e-05 0)
(2.99969 5.23969e-05 0)
(2.99935 0.000117646 0)
(2.99812 0.000308222 0)
(2.99618 0.000674038 0)
(2.98839 0.00185788 0)
(2.97559 0.00392237 0)
(2.92493 0.0115278 0)
(2.80375 0.0299518 0)
(2.46616 0.0763669 0)
(1.49411 0.23854 0)
(0.762738 0.481018 0)
(0.707729 0.507001 0)
(0.739145 0.505708 0)
(0.736165 0.520957 0)
(0.69378 0.549278 0)
(0.638329 0.594215 0)
(0.587374 0.653768 0)
(0.552473 0.740866 0)
(0.546877 0.880136 0)
(0.572945 1.11545 0)
(3 1.9012e-07 0)
(2.99999 2.69887e-07 0)
(2.99998 2.63037e-06 0)
(2.99995 3.24831e-06 0)
(2.99988 1.83571e-05 0)
(2.99974 1.97943e-05 0)
(2.99931 0.00011863 0)
(2.99851 9.40022e-05 0)
(2.99589 0.000833428 0)
(2.99144 0.000481815 0)
(2.97428 0.00602601 0)
(2.94372 0.00337479 0)
(2.82842 0.0396371 0)
(2.51612 0.0590702 0)
(1.75932 0.223551 0)
(0.880431 0.524405 0)
(0.715767 0.536694 0)
(0.747398 0.540065 0)
(0.761624 0.556809 0)
(0.738647 0.590951 0)
(0.703646 0.638953 0)
(0.675318 0.704789 0)
(0.673125 0.797051 0)
(0.721902 0.92818 0)
(0.837673 1.1001 0)
(3 9.2501e-08 0)
(2.99999 7.22527e-07 0)
(2.99998 2.21898e-06 0)
(2.99996 6.73499e-06 0)
(2.9999 1.58857e-05 0)
(2.99977 4.27723e-05 0)
(2.99941 9.53645e-05 0)
(2.99872 0.000259199 0)
(2.99651 0.000541974 0)
(2.99272 0.00167108 0)
(2.97818 0.00316427 0)
(2.95305 0.0111726 0)
(2.85624 0.0235329 0)
(2.59992 0.0832034 0)
(1.97024 0.208449 0)
(1.01259 0.561632 0)
(0.725405 0.564451 0)
(0.758977 0.567987 0)
(0.787505 0.584157 0)
(0.782229 0.622589 0)
(0.765856 0.673911 0)
(0.760212 0.740476 0)
(0.782046 0.82684 0)
(0.852466 0.932706 0)
(0.985226 1.03799 0)
(3 9.20479e-08 0)
(2.99999 7.13985e-07 0)
(2.99999 2.19536e-06 0)
(2.99997 6.62114e-06 0)
(2.99991 1.56471e-05 0)
(2.9998 4.17148e-05 0)
(2.99949 9.33746e-05 0)
(2.99888 0.000248487 0)
(2.99706 0.000526992 0)
(2.99363 0.00156887 0)
(2.98207 0.00294766 0)
(2.96103 0.0108147 0)
(2.88438 0.0208741 0)
(2.68567 0.0806102 0)
(2.1769 0.196202 0)
(1.17748 0.575215 0)
(0.761693 0.595255 0)
(0.78573 0.602089 0)
(0.821068 0.611464 0)
(0.829477 0.647924 0)
(0.825888 0.699534 0)
(0.835489 0.762083 0)
(0.871927 0.835716 0)
(0.947838 0.916718 0)
(1.07519 0.98452 0)
(3 9.297e-08 0)
(3 7.23386e-07 0)
(2.99999 2.22614e-06 0)
(2.99997 6.72662e-06 0)
(2.99993 1.59626e-05 0)
(2.99984 4.25532e-05 0)
(2.99958 9.60101e-05 0)
(2.99908 0.000250859 0)
(2.99761 0.000557505 0)
(2.99474 0.00148598 0)
(2.98579 0.00320744 0)
(2.96829 0.00928553 0)
(2.91056 0.0202227 0)
(2.7642 0.0649144 0)
(2.38133 0.161503 0)
(1.38591 0.492721 0)
(0.851422 0.607211 0)
(0.837203 0.635317 0)
(0.863941 0.645378 0)
(0.882157 0.67318 0)
(0.886021 0.718884 0)
(0.902539 0.77442 0)
(0.944904 0.835155 0)
(1.0201 0.89678 0)
(1.13617 0.944948 0)
(3 8.49218e-08 0)
(3 6.61085e-07 0)
(2.99999 2.03429e-06 0)
(2.99998 6.14566e-06 0)
(2.99994 1.45908e-05 0)
(2.99987 3.88515e-05 0)
(2.99967 8.78087e-05 0)
(2.99927 0.000227379 0)
(2.99809 0.000515326 0)
(2.99584 0.00129378 0)
(2.98852 0.00305095 0)
(2.97544 0.00733685 0)
(2.92839 0.0182721 0)
(2.81386 0.0472797 0)
(2.50325 0.124689 0)
(1.58832 0.359731 0)
(0.943605 0.632468 0)
(0.875893 0.67117 0)
(0.897389 0.686565 0)
(0.924918 0.701103 0)
(0.939444 0.736083 0)
(0.961359 0.782327 0)
(1.00545 0.832231 0)
(1.07699 0.87983 0)
(1.18069 0.915721 0)
(3 7.03441e-08 0)
(3 5.45188e-07 0)
(2.99999 1.67915e-06 0)
(2.99998 5.0502e-06 0)
(2.99995 1.19705e-05 0)
(2.9999 3.16695e-05 0)
(2.99974 7.12796e-05 0)
(2.99944 0.000184152 0)
(2.99849 0.000409306 0)
(2.99686 0.0010606 0)
(2.99079 0.00235335 0)
(2.98114 0.0063039 0)
(2.94237 0.0140486 0)
(2.85778 0.0404153 0)
(2.60625 0.104288 0)
(1.82374 0.308365 0)
(1.09632 0.671571 0)
(0.905596 0.702927 0)
(0.919231 0.718283 0)
(0.953007 0.723959 0)
(0.982198 0.749468 0)
(1.01112 0.787317 0)
(1.05624 0.828496 0)
(1.12344 0.866255 0)
(1.21554 0.893901 0)
(3 5.76032e-08 0)
(3 4.43349e-07 0)
(2.99999 1.3666e-06 0)
(2.99999 4.0888e-06 0)
(2.99996 9.67098e-06 0)
(2.99992 2.54382e-05 0)
(2.9998 5.69369e-05 0)
(2.99955 0.00014771 0)
(2.99882 0.00031766 0)
(2.99747 0.000882673 0)
(2.99286 0.00173821 0)
(2.98527 0.00563451 0)
(2.95563 0.0109317 0)
(2.89318 0.0374938 0)
(2.70275 0.0877766 0)
(2.09745 0.28233 0)
(1.29551 0.690392 0)
(0.958486 0.732978 0)
(0.951602 0.741111 0)
(0.981986 0.74311 0)
(1.02085 0.758652 0)
(1.05513 0.789429 0)
(1.09994 0.823881 0)
(1.16247 0.854724 0)
(1.24447 0.876673 0)
(3 3.06325e-08 0)
(3 4.32037e-07 0)
(3 1.04177e-06 0)
(2.99999 3.86936e-06 0)
(2.99997 7.55222e-06 0)
(2.99994 2.41128e-05 0)
(2.99984 4.50387e-05 0)
(2.99965 0.000140576 0)
(2.99911 0.000255122 0)
(2.99804 0.000834729 0)
(2.99473 0.0013519 0)
(2.98885 0.0053616 0)
(2.96801 0.00717368 0)
(2.92521 0.0347981 0)
(2.79291 0.0598743 0)
(2.39297 0.229961 0)
(1.59206 0.573368 0)
(1.07263 0.739042 0)
(1.0131 0.759053 0)
(1.02566 0.766132 0)
(1.0631 0.771804 0)
(1.09998 0.793367 0)
(1.1418 0.820969 0)
(1.19799 0.846105 0)
(1.27032 0.863677 0)
(3 2.35017e-08 0)
(3 3.30744e-07 0)
(3 7.98001e-07 0)
(2.99999 2.96389e-06 0)
(2.99998 5.78398e-06 0)
(2.99995 1.84328e-05 0)
(2.99989 3.44327e-05 0)
(2.99972 0.00010688 0)
(2.9994 0.000196191 0)
(2.99838 0.000618769 0)
(2.99662 0.00108216 0)
(2.99016 0.00378199 0)
(2.97948 0.00568654 0)
(2.93904 0.0239885 0)
(2.84672 0.0407771 0)
(2.58079 0.147426 0)
(1.81936 0.399679 0)
(1.19303 0.743474 0)
(1.05707 0.779784 0)
(1.06162 0.794391 0)
(1.09743 0.793844 0)
(1.13941 0.802597 0)
(1.1806 0.821798 0)
(1.23125 0.841111 0)
(1.29489 0.854872 0)
(3 4.76984e-08 0)
(3 1.73025e-07 0)
(3 8.23311e-07 0)
(2.99999 1.72638e-06 0)
(2.99999 5.71595e-06 0)
(2.99996 1.08816e-05 0)
(2.99992 3.36898e-05 0)
(2.99979 6.23369e-05 0)
(2.99953 0.000193748 0)
(2.99878 0.000343286 0)
(2.99737 0.00115678 0)
(2.9927 0.00183739 0)
(2.98481 0.00737873 0)
(2.95492 0.0112781 0)
(2.8913 0.0478957 0)
(2.70021 0.0976122 0)
(2.10413 0.336186 0)
(1.39024 0.74801 0)
(1.11236 0.808738 0)
(1.09842 0.820303 0)
(1.12501 0.817948 0)
(1.17082 0.815777 0)
(1.21511 0.826296 0)
(1.26212 0.839706 0)
(1.31869 0.849594 0)
(3 3.08249e-08 0)
(3 1.67905e-07 0)
(3 6.249e-07 0)
(3 1.60382e-06 0)
(2.99999 4.41597e-06 0)
(2.99997 1.01292e-05 0)
(2.99994 2.6323e-05 0)
(2.99986 5.89246e-05 0)
(2.99963 0.000151513 0)
(2.99918 0.000337493 0)
(2.99786 0.000871721 0)
(2.99532 0.00192108 0)
(2.98738 0.00522286 0)
(2.97167 0.0110914 0)
(2.92167 0.0325584 0)
(2.79799 0.0826102 0)
(2.45272 0.225908 0)
(1.64474 0.648514 0)
(1.21445 0.811816 0)
(1.15166 0.833987 0)
(1.16166 0.839352 0)
(1.20272 0.832707 0)
(1.24849 0.834523 0)
(1.29225 0.841943 0)
(1.34224 0.847943 0)
(3 1.79622e-08 0)
(3 1.39973e-07 0)
(3 4.30697e-07 0)
(3 1.3006e-06 0)
(2.99999 3.08431e-06 0)
(2.99998 8.19621e-06 0)
(2.99996 1.84864e-05 0)
(2.99989 4.7916e-05 0)
(2.99976 0.000106983 0)
(2.99938 0.000275299 0)
(2.99869 0.000620818 0)
(2.99633 0.00156641 0)
(2.99245 0.0036398 0)
(2.9776 0.00899331 0)
(2.95133 0.0220915 0)
(2.85416 0.0560227 0)
(2.60254 0.159208 0)
(1.98467 0.418927 0)
(1.33506 0.805389 0)
(1.19584 0.850118 0)
(1.19395 0.86274 0)
(1.22823 0.855949 0)
(1.27651 0.847261 0)
(1.3204 0.84719 0)
(1.36592 0.849203 0)
(3 1.57755e-08 0)
(3 8.47029e-08 0)
(3 3.15586e-07 0)
(3 8.08975e-07 0)
(2.99999 2.21859e-06 0)
(2.99999 5.07227e-06 0)
(2.99997 1.30937e-05 0)
(2.99993 2.91359e-05 0)
(2.99982 7.46556e-05 0)
(2.99961 0.000162998 0)
(2.99894 0.000433257 0)
(2.99783 0.000890962 0)
(2.99357 0.00264795 0)
(2.98693 0.0051446 0)
(2.96072 0.0166899 0)
(2.90726 0.0351272 0)
(2.73948 0.114318 0)
(2.25151 0.316113 0)
(1.57136 0.74875 0)
(1.26959 0.859528 0)
(1.23606 0.878507 0)
(1.25344 0.878183 0)
(1.29792 0.864495 0)
(1.34493 0.85664 0)
(1.38909 0.85373 0)
(3 6.03136e-09 0)
(3 7.4479e-08 0)
(3 1.88499e-07 0)
(3 6.70643e-07 0)
(3 1.35952e-06 0)
(2.99999 4.15332e-06 0)
(2.99998 8.0378e-06 0)
(2.99994 2.38474e-05 0)
(2.99988 4.53461e-05 0)
(2.99968 0.000136728 0)
(2.9993 0.00024817 0)
(2.99817 0.000822153 0)
(2.99599 0.00134805 0)
(2.9893 0.00523973 0)
(2.97616 0.00822701 0)
(2.93478 0.0334623 0)
(2.83371 0.0661031 0)
(2.55121 0.220476 0)
(1.84795 0.595716 0)
(1.38646 0.853108 0)
(1.28843 0.887639 0)
(1.28699 0.897107 0)
(1.32018 0.885125 0)
(1.36674 0.869577 0)
(1.41087 0.861778 0)
(3 1.07516e-08 0)
(3 4.33753e-08 0)
(3 1.92621e-07 0)
(3 4.28232e-07 0)
(3 1.34576e-06 0)
(2.99999 2.71675e-06 0)
(2.99998 7.9815e-06 0)
(2.99996 1.57849e-05 0)
(2.99991 4.58203e-05 0)
(2.99978 9.00503e-05 0)
(2.99951 0.000262434 0)
(2.99875 0.0005122 0)
(2.99726 0.00152311 0)
(2.99267 0.00291362 0)
(2.98429 0.00911457 0)
(2.95581 0.017503 0)
(2.89218 0.0571518 0)
(2.70966 0.130484 0)
(2.16194 0.41322 0)
(1.5692 0.820398 0)
(1.34838 0.898741 0)
(1.32399 0.911969 0)
(1.34086 0.905674 0)
(1.38418 0.886798 0)
(1.43064 0.873084 0)
(3 6.55268e-09 0)
(3 3.56911e-08 0)
(3 1.32679e-07 0)
(3 3.40432e-07 0)
(3 9.35276e-07 0)
(3 2.14367e-06 0)
(2.99999 5.55179e-06 0)
(2.99998 1.24231e-05 0)
(2.99994 3.17962e-05 0)
(2.99986 7.06985e-05 0)
(2.99965 0.000180902 0)
(2.99922 0.000401212 0)
(2.99799 0.00103183 0)
(2.9956 0.00228511 0)
(2.98837 0.00601344 0)
(2.97377 0.0132728 0)
(2.92931 0.0362563 0)
(2.8204 0.0935319 0)
(2.51495 0.252457 0)
(1.82856 0.685267 0)
(1.44997 0.880569 0)
(1.37483 0.912047 0)
(1.37281 0.920033 0)
(1.40434 0.905906 0)
(1.44908 0.884492 0)
(3 3.48747e-09 0)
(3 2.71048e-08 0)
(3 8.34863e-08 0)
(3 2.51175e-07 0)
(3 5.95384e-07 0)
(3 1.57125e-06 0)
(2.99999 3.53696e-06 0)
(2.99998 9.0805e-06 0)
(2.99996 2.01928e-05 0)
(2.9999 5.16077e-05 0)
(2.99979 0.000114311 0)
(2.99945 0.000293065 0)
(2.99883 0.000646845 0)
(2.99682 0.00167462 0)
(2.99344 0.00371693 0)
(2.98087 0.00964376 0)
(2.95907 0.0228784 0)
(2.87889 0.0589925 0)
(2.67853 0.16296 0)
(2.17428 0.430103 0)
(1.58245 0.854734 0)
(1.4205 0.920781 0)
(1.403 0.93227 0)
(1.41931 0.924366 0)
(1.46042 0.900188 0)
(3 3.54427e-09 0)
(3 1.4814e-08 0)
(3 6.41164e-08 0)
(3 1.45709e-07 0)
(3 4.46639e-07 0)
(3 9.1907e-07 0)
(3 2.62547e-06 0)
(2.99999 5.28736e-06 0)
(2.99997 1.48622e-05 0)
(2.99994 2.97225e-05 0)
(2.99985 8.35176e-05 0)
(2.99967 0.000165692 0)
(2.99914 0.000475235 0)
(2.99815 0.000904689 0)
(2.99501 0.00284358 0)
(2.98963 0.00491321 0)
(2.97022 0.0177644 0)
(2.93195 0.0308894 0)
(2.81159 0.114363 0)
(2.47103 0.278167 0)
(1.8655 0.70779 0)
(1.51925 0.893034 0)
(1.45209 0.92576 0)
(1.44777 0.9325 0)
(1.47571 0.917098 0)
(3 1.26131e-09 0)
(3 1.32859e-08 0)
(3 3.579e-08 0)
(3 1.20283e-07 0)
(3 2.56727e-07 0)
(3 7.44299e-07 0)
(3 1.51841e-06 0)
(2.99999 4.25883e-06 0)
(2.99998 8.5984e-06 0)
(2.99996 2.39481e-05 0)
(2.9999 4.81331e-05 0)
(2.99978 0.000134389 0)
(2.99944 0.000268174 0)
(2.99879 0.000764473 0)
(2.99678 0.00146961 0)
(2.9933 0.00457127 0)
(2.9807 0.00802226 0)
(2.95867 0.028362 0)
(2.87981 0.0544593 0)
(2.67411 0.186303 0)
(2.18776 0.460652 0)
(1.64542 0.863153 0)
(1.4957 0.929945 0)
(1.47572 0.940617 0)
(1.48837 0.932995 0)
(3 8.53837e-10 0)
(3 8.84618e-09 0)
(3 2.39406e-08 0)
(3 8.00375e-08 0)
(3 1.71385e-07 0)
(3 4.94537e-07 0)
(3 1.012e-06 0)
(3 2.82486e-06 0)
(2.99999 5.72271e-06 0)
(2.99997 1.58535e-05 0)
(2.99994 3.19917e-05 0)
(2.99985 8.86951e-05 0)
(2.99967 0.000178105 0)
(2.99916 0.000500757 0)
(2.99818 0.000976443 0)
(2.9951 0.0029488 0)
(2.98979 0.00526963 0)
(2.97081 0.0183381 0)
(2.93373 0.0324502 0)
(2.81601 0.117044 0)
(2.48491 0.289436 0)
(1.9153 0.712902 0)
(1.58853 0.897965 0)
(1.52057 0.93237 0)
(1.51277 0.935866 0)
(3 1.03929e-09 0)
(3 4.49291e-09 0)
(3 1.90412e-08 0)
(3 4.38807e-08 0)
(3 1.32315e-07 0)
(3 2.75426e-07 0)
(3 7.74504e-07 0)
(3 1.57742e-06 0)
(2.99999 4.36364e-06 0)
(2.99998 8.83896e-06 0)
(2.99996 2.43751e-05 0)
(2.9999 4.92074e-05 0)
(2.99979 0.000136118 0)
(2.99946 0.000273068 0)
(2.99882 0.000769631 0)
(2.99688 0.0014977 0)
(2.9935 0.00455068 0)
(2.98139 0.00824649 0)
(2.9603 0.0280796 0)
(2.88521 0.0556214 0)
(2.69073 0.185283 0)
(2.23248 0.462535 0)
(1.71087 0.868507 0)
(1.55841 0.9356 0)
(1.53322 0.940639 0)
(3 5.83688e-10 0)
(3 3.17646e-09 0)
(3 1.17761e-08 0)
(3 3.02113e-08 0)
(3 8.24316e-08 0)
(3 1.88509e-07 0)
(3 4.83173e-07 0)
(3 1.0775e-06 0)
(3 2.72175e-06 0)
(2.99999 6.03304e-06 0)
(2.99997 1.51886e-05 0)
(2.99994 3.35775e-05 0)
(2.99986 8.45863e-05 0)
(2.99968 0.00018641 0)
(2.9992 0.000474495 0)
(2.99824 0.00102474 0)
(2.99541 0.00275194 0)
(2.99018 0.00563338 0)
(2.97328 0.0167122 0)
(2.93795 0.0352898 0)
(2.83277 0.107322 0)
(2.54097 0.291772 0)
(1.99215 0.689192 0)
(1.64394 0.899995 0)
(1.5654 0.932327 0)
(3 2.26424e-10 0)
(3 2.34011e-09 0)
(3 6.34773e-09 0)
(3 2.12069e-08 0)
(3 4.54932e-08 0)
(3 1.30984e-07 0)
(3 2.6839e-07 0)
(3 7.46751e-07 0)
(3 1.51485e-06 0)
(2.99999 4.1791e-06 0)
(2.99998 8.45663e-06 0)
(2.99996 2.32934e-05 0)
(2.99991 4.70488e-05 0)
(2.99978 0.000129906 0)
(2.99952 0.000261573 0)
(2.99878 0.00072994 0)
(2.99734 0.00145178 0)
(2.99299 0.00422191 0)
(2.98502 0.00811656 0)
(2.95864 0.0250087 0)
(2.90119 0.053604 0)
(2.73351 0.159717 0)
(2.27218 0.429579 0)
(1.79069 0.824838 0)
(1.59593 0.91356 0)
(3 2.36946e-10 0)
(3 1.27861e-09 0)
(3 4.74756e-09 0)
(3 1.21712e-08 0)
(3 3.32155e-08 0)
(3 7.59031e-08 0)
(3 1.94515e-07 0)
(3 4.33344e-07 0)
(3 1.09432e-06 0)
(3 2.42318e-06 0)
(2.99999 6.09888e-06 0)
(2.99998 1.3477e-05 0)
(2.99994 3.39233e-05 0)
(2.99986 7.48147e-05 0)
(2.9997 0.000188877 0)
(2.99924 0.000415335 0)
(2.99832 0.00106139 0)
(2.99572 0.00230403 0)
(2.99061 0.00616656 0)
(2.97538 0.0130525 0)
(2.94295 0.0369174 0)
(2.84874 0.0889362 0)
(2.57598 0.258826 0)
(2.05815 0.631665 0)
(1.66409 0.863547 0)
(3 1.72379e-10 0)
(3 7.42903e-10 0)
(3 3.16057e-09 0)
(3 7.23616e-09 0)
(3 2.18648e-08 0)
(3 4.51607e-08 0)
(3 1.27126e-07 0)
(3 2.56587e-07 0)
(3 7.10289e-07 0)
(3 1.42494e-06 0)
(2.99999 3.92895e-06 0)
(2.99998 7.86028e-06 0)
(2.99996 2.16665e-05 0)
(2.99991 4.32004e-05 0)
(2.9998 0.000119381 0)
(2.99951 0.000236688 0)
(2.99892 0.000659884 0)
(2.99723 0.00129157 0)
(2.994 0.0037037 0)
(2.98389 0.00712054 0)
(2.96508 0.0217673 0)
(2.9025 0.0433513 0)
(2.74615 0.140912 0)
(2.36346 0.343011 0)
(1.7701 0.740341 0)
(3 1.0474e-10 0)
(3 4.2713e-10 0)
(3 1.87882e-09 0)
(3 4.18391e-09 0)
(3 1.29537e-08 0)
(3 2.60439e-08 0)
(3 7.50053e-08 0)
(3 1.47089e-07 0)
(3 4.16868e-07 0)
(3 8.10584e-07 0)
(3 2.29208e-06 0)
(2.99999 4.43325e-06 0)
(2.99997 1.25578e-05 0)
(2.99994 2.4142e-05 0)
(2.99986 6.87056e-05 0)
(2.99969 0.000130878 0)
(2.9992 0.000376538 0)
(2.99825 0.000704421 0)
(2.99547 0.00210063 0)
(2.99024 0.00371007 0)
(2.9734 0.0125148 0)
(2.93966 0.0201171 0)
(2.83261 0.0759705 0)
(2.55238 0.164959 0)
(1.97102 0.446936 0)
(3 2.56357e-11 0)
(3 3.39924e-10 0)
(3 8.38339e-10 0)
(3 3.02467e-09 0)
(3 5.98391e-09 0)
(3 1.84349e-08 0)
(3 3.476e-08 0)
(3 1.0355e-07 0)
(3 1.92247e-07 0)
(3 5.70125e-07 0)
(3 1.04958e-06 0)
(2.99999 3.12383e-06 0)
(2.99998 5.70587e-06 0)
(2.99996 1.71147e-05 0)
(2.99989 3.08889e-05 0)
(2.99976 9.40862e-05 0)
(2.99939 0.000163681 0)
(2.99867 0.000527929 0)
(2.9965 0.000809096 0)
(2.99255 0.00301773 0)
(2.9788 0.00361009 0)
(2.95412 0.0169622 0)
(2.86413 0.0196323 0)
(2.63519 0.0896109 0)
(2.09326 0.170705 0)
(3 1.95405e-11 0)
(3 1.48949e-10 0)
(3 4.61061e-10 0)
(3 1.35843e-09 0)
(3 3.20856e-09 0)
(3 8.19041e-09 0)
(3 1.82385e-08 0)
(3 4.48276e-08 0)
(3 9.82157e-08 0)
(3 2.38258e-07 0)
(3 5.19056e-07 0)
(2.99999 1.2503e-06 0)
(2.99999 2.71541e-06 0)
(2.99996 6.50115e-06 0)
(2.99992 1.40799e-05 0)
(2.9998 3.34813e-05 0)
(2.99957 7.22517e-05 0)
(2.99879 0.000170728 0)
(2.99754 0.000365219 0)
(2.99258 0.000870141 0)
(2.9848 0.00181447 0)
(2.95303 0.00458325 0)
(2.88485 0.009523 0)
(2.67748 0.0253312 0)
(2.04971 0.0579753 0)
(3 2.24098e-11 0)
(3 2.7995e-11 0)
(3 2.9895e-10 0)
(3 3.42582e-10 0)
(3 1.97317e-09 0)
(3 2.0362e-09 0)
(3 1.0931e-08 0)
(3 9.93294e-09 0)
(3 5.73343e-08 0)
(3 4.30834e-08 0)
(3 2.92956e-07 0)
(2.99999 1.58745e-07 0)
(2.99999 1.46545e-06 0)
(2.99997 3.58818e-07 0)
(2.99992 7.20598e-06 0)
(2.99981 -1.53381e-06 0)
(2.99951 3.75634e-05 0)
(2.99891 -3.92662e-05 0)
(2.99708 0.000248563 0)
(2.99375 -0.00042872 0)
(2.98185 0.0019994 0)
(2.96043 -0.00322034 0)
(2.88011 0.0129225 0)
(2.67064 -0.00907608 0)
(2.11623 0.0323992 0)
(3 -3.10321e-12 0)
(3 8.51775e-11 0)
(3 1.00479e-10 0)
(3 7.16667e-10 0)
(3 7.79651e-10 0)
(3 4.3937e-09 0)
(3 4.67105e-09 0)
(3 2.53722e-08 0)
(3 2.67002e-08 0)
(3 1.45416e-07 0)
(3 1.52659e-07 0)
(2.99999 8.38436e-07 0)
(2.99999 8.80984e-07 0)
(2.99997 4.88705e-06 0)
(2.99992 5.03654e-06 0)
(2.99982 2.90398e-05 0)
(2.99953 2.53545e-05 0)
(2.99897 0.000181378 0)
(2.99722 7.69682e-05 0)
(2.99404 0.00113287 0)
(2.98258 -0.000274159 0)
(2.962 0.00693067 0)
(2.88395 -0.00335583 0)
(2.6793 0.032453 0)
(2.12959 0.0256816 0)
(3 3.39483e-12 0)
(3 2.66555e-11 0)
(3 8.1704e-11 0)
(3 2.45242e-10 0)
(3 5.7866e-10 0)
(3 1.52907e-09 0)
(3 3.43059e-09 0)
(3 8.86139e-09 0)
(3 1.97109e-08 0)
(3 5.09068e-08 0)
(3 1.13457e-07 0)
(2.99999 2.93854e-07 0)
(2.99999 6.58935e-07 0)
(2.99997 1.70527e-06 0)
(2.99994 3.8563e-06 0)
(2.99983 9.87509e-06 0)
(2.99964 2.26492e-05 0)
(2.99896 5.4239e-05 0)
(2.99787 0.00013877 0)
(2.99346 0.00026293 0)
(2.98657 0.000780964 0)
(2.95802 0.00139082 0)
(2.89692 0.00369916 0)
(2.70883 0.0105925 0)
(2.11008 0.0310137 0)
(3 7.64926e-13 0)
(3 2.68382e-12 0)
(3 1.10743e-11 0)
(3 2.76007e-11 0)
(3 7.4715e-11 0)
(3 1.64714e-10 0)
(3 4.00743e-10 0)
(3 8.40912e-10 0)
(3 1.9475e-09 0)
(3 3.93495e-09 0)
(3 8.80808e-09 0)
(3 1.61461e-08 0)
(2.99999 3.64833e-08 0)
(2.99997 4.86142e-08 0)
(2.99993 2.0173e-07 0)
(2.99984 -1.94048e-07 0)
(2.99957 3.51411e-06 0)
(2.99906 -6.34798e-06 0)
(2.99739 4.77129e-05 0)
(2.99457 2.64243e-05 0)
(2.98351 0.000360682 0)
(2.96438 0.000755856 0)
(2.89155 0.00309856 0)
(2.70266 0.00962578 0)
(2.20104 0.0277101 0)
(3 -9.83162e-12 0)
(3 3.04221e-11 0)
(3 -6.60648e-11 0)
(3 2.17509e-10 0)
(3 -3.92519e-10 0)
(3 1.32631e-09 0)
(3 -2.16955e-09 0)
(3 7.97467e-09 0)
(3 -1.16938e-08 0)
(3 4.81842e-08 0)
(3 -6.16267e-08 0)
(2.99999 2.94543e-07 0)
(2.99999 -3.1623e-07 0)
(2.99997 1.83694e-06 0)
(2.99994 -1.57613e-06 0)
(2.99983 1.1802e-05 0)
(2.99963 -8.38612e-06 0)
(2.99899 8.40449e-05 0)
(2.9979 -7.88363e-05 0)
(2.99372 0.000712224 0)
(2.98718 -0.000947802 0)
(2.96032 0.00543985 0)
(2.90436 -0.00544462 0)
(2.72996 0.0255766 0)
(2.18014 0.0171503 0)
(3 9.51406e-12 0)
(3 -3.24897e-11 0)
(3 5.90353e-11 0)
(3 -2.35138e-10 0)
(3 3.48356e-10 0)
(3 -1.42542e-09 0)
(3 1.93335e-09 0)
(3 -8.49512e-09 0)
(3 1.04856e-08 0)
(3 -5.07422e-08 0)
(3 5.60036e-08 0)
(2.99999 -3.04926e-07 0)
(2.99999 2.95846e-07 0)
(2.99997 -1.85331e-06 0)
(2.99994 1.57021e-06 0)
(2.99983 -1.14302e-05 0)
(2.99963 9.59175e-06 0)
(2.99901 -7.52933e-05 0)
(2.99792 9.28604e-05 0)
(2.99386 -0.000560586 0)
(2.98745 0.00114366 0)
(2.96129 -0.00373638 0)
(2.90744 0.00900263 0)
(2.73818 -0.0113758 0)
(2.20519 0.0248572 0)
(3 9.25734e-12 0)
(3 -3.48001e-11 0)
(3 5.27785e-11 0)
(3 -2.53264e-10 0)
(3 3.11785e-10 0)
(3 -1.51615e-09 0)
(3 1.76432e-09 0)
(3 -8.89388e-09 0)
(3 9.74594e-09 0)
(3 -5.24104e-08 0)
(3 5.25529e-08 0)
(3 -3.11997e-07 0)
(2.99999 2.76019e-07 0)
(2.99997 -1.88749e-06 0)
(2.99993 1.42363e-06 0)
(2.99984 -1.16455e-05 0)
(2.99958 8.18706e-06 0)
(2.99906 -7.60156e-05 0)
(2.9975 7.61425e-05 0)
(2.99459 -0.000551505 0)
(2.98454 0.000928484 0)
(2.96626 -0.00374906 0)
(2.8994 0.0075309 0)
(2.72832 -0.0145086 0)
(2.27062 0.0154883 0)
(3 3.46575e-13 0)
(3 3.09239e-12 0)
(3 9.19195e-12 0)
(3 2.88691e-11 0)
(3 6.76245e-11 0)
(3 1.89472e-10 0)
(3 4.28027e-10 0)
(3 1.17834e-09 0)
(3 2.65245e-09 0)
(3 7.28545e-09 0)
(3 1.64373e-08 0)
(3 4.51495e-08 0)
(2.99999 1.02213e-07 0)
(2.99997 2.80833e-07 0)
(2.99993 6.36843e-07 0)
(2.99984 1.75397e-06 0)
(2.99958 3.96685e-06 0)
(2.99906 1.10718e-05 0)
(2.99752 2.46234e-05 0)
(2.99457 7.27845e-05 0)
(2.98487 0.000151649 0)
(2.96667 0.000505422 0)
(2.90169 0.0011535 0)
(2.73542 0.00383131 0)
(2.2867 0.00973667 0)
(3 -7.31977e-12 0)
(3 4.6173e-11 0)
(3 -1.07091e-11 0)
(3 3.60975e-10 0)
(3 -5.89497e-12 0)
(3 2.22354e-09 0)
(3 1.59205e-10 0)
(3 1.3273e-08 0)
(3 2.08419e-09 0)
(3 7.93233e-08 0)
(3 1.99622e-08 0)
(3 4.7765e-07 0)
(2.99999 1.67408e-07 0)
(2.99997 2.90792e-06 0)
(2.99993 1.25876e-06 0)
(2.99984 1.79259e-05 0)
(2.99958 6.83104e-06 0)
(2.99908 0.000116569 0)
(2.99755 -3.59044e-06 0)
(2.99469 0.000771736 0)
(2.9849 -0.000535916 0)
(2.96711 0.00467846 0)
(2.90205 -0.00506714 0)
(2.73596 0.0210096 0)
(2.29099 0.00111533 0)
(3 5.55677e-13 0)
(3 4.1552e-12 0)
(3 1.27684e-11 0)
(3 3.92612e-11 0)
(3 9.38314e-11 0)
(3 2.57825e-10 0)
(3 5.90687e-10 0)
(3 1.58783e-09 0)
(3 3.60783e-09 0)
(3 9.62799e-09 0)
(3 2.18175e-08 0)
(3 5.78328e-08 0)
(2.99999 1.30805e-07 0)
(2.99997 3.43702e-07 0)
(2.99994 7.76141e-07 0)
(2.99984 2.0142e-06 0)
(2.99966 4.53634e-06 0)
(2.99905 1.14831e-05 0)
(2.99807 2.64656e-05 0)
(2.99413 5.98272e-05 0)
(2.98804 0.000164618 0)
(2.96302 0.000306617 0)
(2.91213 0.000820383 0)
(2.75004 0.00204986 0)
(2.25124 0.00555602 0)
(3 8.62117e-12 0)
(3 -3.58721e-11 0)
(3 4.18682e-11 0)
(3 -2.67489e-10 0)
(3 2.24675e-10 0)
(3 -1.64008e-09 0)
(3 1.14758e-09 0)
(3 -9.8529e-09 0)
(3 5.52862e-09 0)
(3 -5.94374e-08 0)
(3 2.43543e-08 0)
(3 -3.62061e-07 0)
(2.99999 9.10448e-08 0)
(2.99997 -2.23741e-06 0)
(2.99993 2.46455e-07 0)
(2.99984 -1.4065e-05 0)
(2.99959 1.83596e-06 0)
(2.9991 -9.49203e-05 0)
(2.99759 5.33961e-05 0)
(2.99481 -0.000670092 0)
(2.98511 0.000875539 0)
(2.96765 -0.00429368 0)
(2.90348 0.00655604 0)
(2.73994 -0.0184735 0)
(2.30098 0.00583677 0)
(1.14714 0.994283 0)
(1.11604 0.70184 0)
(0.367254 0.473432 0)
(-0.464933 0.0839789 0)
(-0.45004 -0.0125147 0)
(-0.666695 -0.0185797 0)
(-0.741455 -0.0163268 0)
(-0.790375 0.00289595 0)
(-0.846955 0.0178324 0)
(-0.913107 0.0201073 0)
(-0.973881 0.0154282 0)
(-1.02578 0.00911296 0)
(-1.07334 0.00571322 0)
(-1.11933 0.0032512 0)
(-1.16416 0.000798763 0)
(-1.20847 3.7787e-05 0)
(-1.24202 0.00287211 0)
(-1.2575 0.0033507 0)
(-1.26162 0.00186611 0)
(-1.25799 -0.000506619 0)
(-1.24025 -0.00363103 0)
(-1.20348 -0.00705486 0)
(-1.15016 -0.010652 0)
(-1.08522 -0.0138402 0)
(-1.01425 -0.0161243 0)
(-0.941261 -0.0174842 0)
(-0.868435 -0.0181298 0)
(-0.796375 -0.0185188 0)
(-0.726628 -0.018544 0)
(-0.659553 -0.0183413 0)
(-0.594855 -0.018097 0)
(-0.53216 -0.0180252 0)
(-0.471062 -0.0182195 0)
(-0.411145 -0.0187762 0)
(-0.350768 -0.0208944 0)
(-0.292187 -0.0220518 0)
(-0.235774 -0.0231551 0)
(-0.180924 -0.023833 0)
(-0.127707 -0.0243908 0)
(-0.0753249 -0.0252548 0)
(-0.0268801 -0.0276946 0)
(0.0290603 -0.0272777 0)
(0.078901 -0.0250209 0)
(0.125162 -0.023309 0)
(0.170035 -0.0224045 0)
(0.212715 -0.0214188 0)
(0.25372 -0.0204343 0)
(0.291838 -0.0193478 0)
(0.328761 -0.0187487 0)
(0.366936 -0.018805 0)
(0.405021 -0.0184252 0)
(0.441446 -0.017694 0)
(0.476396 -0.0168824 0)
(0.510224 -0.01614 0)
(0.543109 -0.0154929 0)
(0.575118 -0.0148809 0)
(0.606324 -0.0143107 0)
(0.636759 -0.0137497 0)
(0.666485 -0.0132231 0)
(0.69552 -0.0127057 0)
(0.723922 -0.0122117 0)
(0.751708 -0.0117283 0)
(0.778918 -0.0112629 0)
(0.805583 -0.0108049 0)
(0.831729 -0.0103639 0)
(0.857381 -0.00992679 0)
(0.88257 -0.00950924 0)
(0.90731 -0.00909951 0)
(0.931631 -0.00870583 0)
(0.955544 -0.00832209 0)
(0.97907 -0.00795173 0)
(1.00222 -0.0075914 0)
(1.02502 -0.00724282 0)
(1.04747 -0.00690448 0)
(1.06958 -0.00657474 0)
(1.09136 -0.00625591 0)
(1.11281 -0.00594226 0)
(1.13394 -0.00563968 0)
(1.15475 -0.00534076 0)
(1.17522 -0.00505239 0)
(1.19536 -0.00476814 0)
(1.21516 -0.00449434 0)
(1.23462 -0.00422542 0)
(1.25374 -0.00396678 0)
(1.27251 -0.00371256 0)
(1.29094 -0.00346747 0)
(1.30903 -0.00322512 0)
(1.32677 -0.00298954 0)