/*--------------------------------*- C++ -*----------------------------------*\
| =========                 |                                                 |
| \\      /  F ield         | OpenFOAM: The Open Source CFD Toolbox           |
|  \\    /   O peration     | Version:  2412                                  |
|   \\  /    A nd           | Website:  www.openfoam.com                      |
|    \\/     M anipulation  |                                                 |
\*---------------------------------------------------------------------------*/
FoamFile
{
    version     2.0;
    format      ascii;
    arch        "LSB;label=32;scalar=64";
    class       volScalarField;
    location    "6";
    object      p;
}
// * * * * * * * * * * * * * * * * * * * * * * * * * * * * * * * * * * * * * //

dimensions      [0 2 -2 0 0 0 0];

internalField   nonuniform List<scalar> 
20000
(
6.62535e+06
-5.26011e+06
-2.89746e+06
-2.0116e+06
-1.41657e+06
-1.02482e+06
-756204
-566119
-427806
-324620
-245859
-184453
-135617
-96039
-63359.9
-35862.5
-12277.1
8339.01
26679.7
43245.3
58385.9
72337.9
85256.1
97240.2
108354
118640
128129
136843
144801
152018
158513
164312
169461
174036
178148
181930
185517
189020
192511
196035
199613
203257
206966
210721
214498
218274
222004
225606
228958
231951
234531
236704
238503
239977
241193
242230
243144
243958
244659
245201
245531
245640
245551
245302
244930
244457
243879
243171
242322
241348
240261
239074
237808
236512
235259
234121
233115
232171
231175
230051
228782
227404
225970
224546
223180
221893
220703
219615
218603
217642
216748
215953
215264
214692
214255
213974
213852
213822
213812
213688
1.68668e+06
-1.90281e+06
-1.23419e+06
-973863
-751236
-580886
-451979
-353854
-278183
-218748
-171099
-132037
-99284
-71205.4
-46627.7
-24716.4
-4889.24
13250.1
29963.7
45422
59739.9
73003.2
85285.3
96656.3
107185
116937
125973
134346
142102
149283
155924
162055
167711
172935
177784
182326
186633
190769
194777
198685
202510
206255
209913
213471
216913
220222
223370
226315
229009
231410
233499
235278
236777
238037
239108
240033
240836
241527
242101
242544
242847
243002
243010
242875
242613
242245
241783
241223
240559
239781
238891
237897
236826
235722
234636
233610
232664
231779
230900
229952
228883
227688
226399
225061
223727
222432
221190
220028
218970
218016
217145
216354
215663
215082
214612
214241
213941
213732
213654
213647
499855
-486817
-269479
-202596
-172449
-141396
-116846
-98621.7
-84855.8
-73376
-62746.6
-52044.8
-40789.6
-28796.7
-16097
-2845.3
10739.3
24416.3
37952.5
51141
63814.5
75854.9
87194.4
97812.8
107728
116983
125637
133755
141401
148630
155491
162019
168238
174164
179809
185180
190283
195122
199697
204009
208056
211837
215352
218598
221576
224285
226727
228904
230820
232484
233918
235148
236203
237110
237890
238557
239120
239577
239924
240160
240296
240340
240295
240162
239947
239657
239295
238860
238347
237753
237079
236331
235524
234680
233822
232972
232140
231326
230517
229684
228797
227836
226797
225689
224529
223342
222153
220992
219893
218878
217958
217138
216419
215789
215236
214746
214316
213965
213742
213666
139278
112370
215424
224255
167966
161763
140129
111159
81428
55462.9
35173.3
21160
13106.3
10228.8
11588.2
16269.2
23440.9
32377.4
42462.9
53192.5
64169.6
75100.4
85782.2
96089.7
105958
115365
124319
132841
140958
148701
156092
163153
169896
176327
182445
188243
193710
198831
203594
207989
212012
215664
218954
221892
224493
226773
228750
230449
231895
233118
234147
235012
235742
236359
236875
237297
237629
237873
238031
238106
238105
238032
237891
237689
237433
237129
236781
236388
235944
235448
234898
234300
233663
232997
232312
231614
230906
230188
229456
228706
227930
227118
226265
225367
224423
223440
222429
221408
220401
219432
218520
217684
216928
216245
215624
215058
214551
214127
213844
213761
-71979.7
-87600.3
92437.4
278126
415761
437054
362040
276973
202668
142726
97140.9
63886.2
41163.8
27379.3
20841.5
19962.3
23341.8
29796.5
38360.9
48275.6
58963.5
70002.7
81097.1
92048.4
102730
113062
122997
132503
141561
150160
158298
165976
173196
179962
186280
192154
197586
202582
207148
211293
215026
218363
221325
223934
226213
228187
229883
231328
232547
233570
234423
235128
235705
236172
236541
236824
237025
237148
237199
237186
237113
236983
236797
236559
236275
235951
235592
235197
234762
234284
233765
233207
232619
232006
231377
230733
230072
229392
228691
227968
227220
226446
225643
224809
223945
223050
222130
221193
220253
219328
218434
217587
216798
216069
215397
214785
214253
213847
213653
213755
-458492
-686049
-373486
206701
489515
460469
326273
219834
139756
82306.6
43558.4
16736.4
-1570.61
-11584.1
-14413.1
-11565.8
-4509.47
5485.85
17391
30411.5
43958.7
57614.5
71093.7
84208.5
96837.3
108900
120345
131137
141261
150715
159509
167656
175174
182085
188414
194186
199429
204172
208443
212270
215679
218696
221350
223676
225704
227461
228973
230268
231370
232300
233078
233722
234247
234666
234991
235231
235394
235487
235517
235492
235417
235290
235111
234883
234613
234308
233971
233604
233202
232760
232278
231760
231211
230637
230046
229438
228811
228159
227482
226778
226049
225293
224511
223703
222870
222014
221137
220245
219348
218462
217602
216784
216022
215323
214687
214127
213677
213404
213420
213836
-1.48941e+06
-4.11008e+06
-2.4179e+06
-1.39426e+06
-785806
-508522
-381222
-289011
-230550
-195860
-177081
-164631
-150367
-133033
-113168
-91591.3
-69140.9
-46524.7
-24283.9
-2800.92
17675.6
37001.7
55110.4
71986.2
87644.5
102118
115452
127699
138921
149182
158546
167071
174814
181825
188156
193856
198976
203561
207656
211298
214527
217373
219867
222046
223951
225612
227050
228290
229354
230261
231025
231661
232179
232593
232913
233151
233311
233401
233431
233410
233340
233221
233050
232831
232570
232275
231952
231603
231219
230796
230334
229836
229308
228755
228185
227601
227002
226383
225739
225069
224376
223660
222923
222169
221401
220622
219831
219034
218241
217468
216730
216040
215413
214856
214379
214003
213769
213749
214053
214794
9.6658e+06
-2.16011e+07
-1.08029e+07
-6.6978e+06
-4.07428e+06
-2.58686e+06
-1.72747e+06
-1.22925e+06
-941653
-759441
-624751
-514786
-422321
-343577
-275898
-217338
-166386
-121828
-82673.9
-48119.7
-17510.4
9687.69
33909.8
55516.6
74811.3
92053.6
107471
121267
133625
144706
154649
163574
171582
178759
185184
190927
196052
200618
204677
208279
211469
214281
216747
218907
220805
222479
223954
225248
226375
227352
228190
228898
229486
229963
230338
230617
230811
230932
230993
231000
230953
230850
230690
230480
230227
229939
229622
229279
228907
228502
228061
227587
227088
226568
226036
225494
224945
224381
223798
223194
222573
221936
221287
220632
219975
219322
218677
218045
217436
216863
216342
215889
215515
215228
215037
214962
215036
215314
215881
216808
1.27992e+08
-9.94976e+07
-4.05538e+07
-2.43026e+07
-1.41049e+07
-8.60604e+06
-5.48924e+06
-3.66837e+06
-2.55464e+06
-1.83829e+06
-1.35714e+06
-1.02103e+06
-778220
-597568
-459621
-351884
-266078
-196544
-139312
-91535.5
-51141.4
-16607.3
13181.6
39052.7
61630.5
81398.9
98746.1
113996
127427
139279
149761
159056
167323
174689
181263
187132
192367
197031
201178
204861
208124
210998
213519
215729
217677
219408
220954
222332
223557
224636
225577
226387
227073
227641
228092
228434
228681
228849
228949
228985
228958
228868
228721
228525
228286
228011
227706
227374
227016
226626
226205
225761
225299
224825
224346
223865
223385
222902
222411
221911
221403
220892
220381
219877
219388
218922
218486
218082
217722
217415
217171
216996
216899
216885
216963
217144
217453
217916
218573
219455
3.78721e+07
-5.72436e+07
-3.13223e+07
-1.93106e+07
-1.18869e+07
-7.78467e+06
-5.33066e+06
-3.76305e+06
-2.72127e+06
-2.00954e+06
-1.51106e+06
-1.15162e+06
-885583
-684217
-528575
-406123
-308379
-229407
-164898
-111631
-67133.1
-29500.1
2684.62
30464.9
54607.4
75679.7
94110.7
110237
124342
136674
147470
156951
165316
172734
179341
185245
190531
195267
199507
203290
206640
209588
212172
214437
216428
218192
219764
221168
222423
223542
224530
225389
226123
226737
227235
227627
227924
228135
228272
228335
228325
228249
228117
227936
227713
227455
227163
226837
226482
226102
225700
225283
224858
224435
224020
223618
223234
222864
222503
222148
221799
221457
221124
220803
220502
220225
219980
219773
219611
219507
219469
219501
219602
219768
219997
220288
220632
221022
221467
222000
-1.10131e+07
-1.52778e+07
-1.04023e+07
-7.28478e+06
-5.58802e+06
-4.35125e+06
-3.35954e+06
-2.58776e+06
-2.00603e+06
-1.56748e+06
-1.23498e+06
-977699
-775026
-613569
-483058
-376195
-287900
-214561
-153460
-102410
-59555.6
-23253.7
7816.99
34682.1
58118.7
78696.9
96826.6
112801
126847
139161
149936
159362
167623
174889
181318
187043
192175
196794
200955
204685
208008
210953
213552
215836
217840
219596
221140
222500
223701
224762
225691
226496
227187
227768
228247
228632
228933
229157
229308
229390
229407
229364
229267
229124
228940
228721
228469
228186
227875
227544
227195
226834
226468
226102
225744
225397
225065
224750
224453
224176
223919
223683
223469
223279
223113
222972
222860
222780
222734
222722
222735
222759
222797
222861
222957
223089
223269
223495
223734
223972
-3.19288e+06
-5.32406e+06
-4.93031e+06
-3.99883e+06
-3.14707e+06
-2.49936e+06
-2.02476e+06
-1.65764e+06
-1.36572e+06
-1.1255e+06
-923562
-752943
-609218
-489603
-389873
-305876
-234362
-173077
-120491
-75475.7
-37067.3
-4231.13
23975.6
48381.4
69695
88477.8
105149
120004
133250
145030
155457
164638
172687
179730
185902
191339
196165
200483
204367
207870
211032
213876
216420
218677
220665
222403
223915
225226
226360
227340
228185
228910
229526
230043
230468
230813
231087
231296
231443
231530
231562
231541
231471
231358
231207
231022
230808
230570
230314
230044
229765
229482
229198
228917
228637
228354
228062
227763
227459
227154
226858
226579
226323
226094
225890
225713
225558
225424
225315
225242
225212
225210
225194
225151
225101
225060
225034
225029
225045
225074
-1.92851e+06
-3.32887e+06
-2.93434e+06
-2.3819e+06
-2.01937e+06
-1.72561e+06
-1.44859e+06
-1.20352e+06
-999874
-830381
-685719
-562198
-457065
-368426
-293627
-229723
-174237
-125470
-82400.3
-44413.9
-11119
17841.9
42942.4
64721.2
83720.1
100435
115284
128591
140581
151399
161131
169831
177550
184346
190300
195512
200088
204136
207749
211003
213950
216625
219045
221219
223154
224859
226344
227626
228726
229664
230462
231137
231707
232185
232583
232906
233161
233353
233487
233566
233593
233571
233504
233394
233245
233061
232846
232606
232347
232075
231796
231517
231246
230990
230750
230509
230253
229981
229702
229414
229110
228800
228497
228212
227950
227713
227498
227297
227109
226937
226789
226668
226564
226455
226336
226214
226096
225982
225871
225762
-1.03862e+06
-1.8156e+06
-1.61495e+06
-1.37336e+06
-1.24119e+06
-1.11702e+06
-972456
-830287
-705152
-596044
-498300
-410215
-332363
-265293
-208247
-159402
-116725
-78635
-44207.9
-13051.7
14937.2
39766.7
61595.5
80688.7
97397.9
112107
125180
136929
147587
157311
166188
174259
181538
188039
193788
198836
203254
207129
210551
213601
216350
218844
221116
223180
225043
226707
228175
229452
230550
231482
232266
232920
233462
233909
234273
234565
234794
234964
235082
235150
235172
235151
235088
234987
234849
234678
234475
234244
233990
233717
233431
233138
232842
232547
232254
231963
231672
231376
231073
230764
230452
230138
229826
229522
229233
228960
228704
228463
228236
228024
227824
227636
227458
227285
227112
226938
226762
226585
226407
226232
-618213
-1.11623e+06
-1.00563e+06
-871178
-806407
-743147
-659729
-571747
-491387
-419236
-352127
-288930
-230884
-179592
-135515
-97787.8
-64880.9
-35339.7
-8206.81
16922.7
40068.6
61095.5
79904.4
96523.3
111118
123953
135335
145559
154870
163446
171390
178740
185491
191619
197106
201953
206194
209890
213117
215961
218500
220798
222898
224825
226589
228190
229622
230884
231977
232907
233687
234332
234857
235281
235619
235884
236086
236232
236330
236382
236393
236366
236302
236204
236074
235913
235724
235508
235266
235002
234720
234425
234121
233812
233500
233185
232868
232547
232222
231893
231561
231228
230898
230575
230262
229961
229673
229398
229135
228881
228635
228396
228164
227936
227713
227491
227270
227050
226830
226618
-360131
-675700
-603923
-526293
-499230
-471396
-425170
-371785
-321342
-274968
-230228
-186142
-143966
-105621
-72189.8
-43480.9
-18452.5
4116.26
25138.5
45045.2
63856.7
81370.2
97351.7
111665
124319
135457
145309
154133
162174
169626
176613
183192
189354
195059
200251
204892
208969
212511
215573
218233
220574
222672
224586
226353
227992
229506
230886
232122
233207
234138
234920
235562
236079
236486
236801
237040
237215
237335
237409
237442
237439
237402
237333
237233
237105
236951
236771
236567
236337
236081
235804
235506
235194
234871
234541
234205
233865
233522
233175
232826
232474
232122
231771
231425
231087
230759
230445
230142
229850
229566
229288
229015
228745
228479
228218
227960
227706
227456
227210
226978
-201498
-405443
-357659
-312696
-303725
-291851
-264023
-229216
-195813
-164942
-134479
-103357
-72548.3
-43861.1
-18549.8
3230.86
22182.8
39309.5
55445.6
71031.9
86117.8
100498
113889
126062
136921
146512
154987
162558
169448
175855
181919
187713
193244
198468
203314
207711
211612
215008
217926
220430
222596
224507
226234
227828
229321
230721
232022
233213
234277
235203
235988
236633
237148
237548
237848
238066
238215
238309
238358
238368
238346
238295
238216
238109
237977
237821
237644
237445
237223
236977
236705
236410
236095
235763
235420
235068
234711
234349
233984
233617
233248
232878
232508
232141
231780
231428
231088
230762
230447
230141
229841
229545
229251
228961
228674
228392
228115
227845
227582
227338
-95957
-224499
-190429
-164616
-165072
-161643
-144646
-121432
-98984.7
-78333
-57592.9
-35649
-13203.6
8152.77
27175.8
43544.9
57736.4
70572.4
82797.3
94842
106783
118438
129512
139733
148942
157112
164335
170779
176638
182100
187310
192352
197248
201959
206413
210523
214216
217453
220233
222597
224611
226354
227904
229324
230658
231923
233122
234242
235265
236173
236954
237601
238119
238516
238807
239009
239137
239206
239229
239213
239167
239096
239000
238881
238740
238577
238395
238194
237974
237731
237465
237173
236859
236524
236174
235811
235441
235065
234685
234303
233919
233535
233150
232766
232387
232015
231653
231305
230970
230646
230330
230018
229710
229404
229102
228805
228513
228230
227956
227703
-23560.2
-100362
-75498.2
-62167.3
-67956
-69002.5
-58241.4
-41991.6
-26243.1
-11971.4
2487.23
18254.5
34853.9
50926.3
65318.7
77650.8
88259.1
97828.7
107022
116254
125628
134995
144075
152582
160318
167210
173306
178736
183675
188294
192735
197088
201379
205580
209620
213409
216861
219914
222545
224772
226646
228239
229627
230880
232052
233172
234251
235279
236239
237110
237873
238516
239033
239430
239715
239905
240015
240061
240057
240014
239942
239845
239727
239590
239434
239259
239067
238858
238631
238386
238119
237828
237514
237179
236826
236458
236080
235694
235304
234910
234515
234119
233722
233326
232933
232546
232168
231802
231449
231109
230777
230453
230134
229818
229507
229202
228903
228612
228330
228066
27844.3
-12145.4
6467.55
11543.4
2819.16
-550.883
6469.25
18297.3
29717.8
39813.1
50055.8
61543.8
73972.5
86190
97154.6
106474
114393
121490
128352
135370
142668
150137
157526
164554
171004
176769
181864
186393
190512
194382
198139
201871
205609
209327
212958
216411
219596
222440
224904
226986
228723
230174
231413
232511
233526
234498
235446
236366
237246
238062
238792
239418
239928
240320
240601
240780
240874
240898
240867
240796
240694
240569
240424
240264
240088
239897
239691
239469
239231
238976
238701
238406
238090
237753
237397
237027
236644
236253
235855
235453
235049
234644
234238
233833
233430
233032
232643
232263
231896
231540
231195
230859
230531
230208
229892
229582
229277
228979
228686
228407
65182.1
51868.1
65945.9
65281.8
54877.3
50299.9
55013.9
63988.5
72613.2
80007.1
87460.8
96020.4
105509
114956
123435
130565
136527
141811
146933
152254
157912
163834
169811
175584
180931
185726
189956
193703
197106
200320
203475
206658
209898
213171
216414
219536
222444
225062
227341
229266
230859
232171
233267
234217
235083
235909
236722
237527
238313
239059
239742
240337
240830
241212
241484
241652
241730
241733
241677
241576
241442
241285
241111
240924
240724
240512
240287
240048
239795
239525
239238
238933
238609
238267
237908
237534
237147
236751
236348
235940
235529
235117
234705
234294
233886
233482
233086
232699
232322
231956
231600
231254
230917
230587
230263
229944
229628
229317
229008
228712
92779.5
99107.6
109807
105093
93797.4
88688.3
91995.3
99113.4
105914
111539
117116
123632
131011
138445
145118
150672
155238
159224
163077
167123
171501
176175
180978
185685
190088
194054
197549
200633
203429
206081
208716
211418
214216
217088
219970
222776
225412
227798
229881
231637
233079
234246
235199
236003
236722
237404
238081
238765
239449
240114
240737
241291
241757
242121
242379
242533
242594
242575
242493
242362
242196
242005
241799
241580
241352
241115
240867
240608
240335
240048
239746
239427
239092
238740
238373
237992
237601
237201
236795
236384
235969
235555
235142
234730
234322
233917
233518
233126
232742
232367
232002
231645
231295
230952
230613
230279
229949
229623
229301
228995
113418
134356
142474
134857
123140
117875
120322
126216
131819
136289
140604
145691
151558
157537
162920
167373
170985
174087
177054
180170
183571
187249
191082
194887
198482
201738
204611
207142
209436
211622
213820
216110
218524
221039
223597
226110
228489
230650
232536
234118
235400
236416
237219
237874
238443
238979
239517
240074
240649
241226
241780
242284
242714
243053
243290
243427
243468
243427
243318
243156
242957
242731
242490
242237
241977
241710
241436
241153
240858
240552
240231
239895
239546
239185
238811
238425
238031
237632
237228
236820
236408
235996
235583
235171
234760
234353
233949
233550
233158
232771
232391
232018
231651
231291
230936
230587
230244
229908
229579
229268
128939
160790
166910
157207
145364
140169
142116
147221
152062
155803
159287
163380
168158
173082
177548
181253
184243
186777
189157
191618
194288
197179
200213
203254
206152
208797
211139
213208
215086
216889
218724
220668
222753
224959
227231
229486
231632
233586
235286
236697
237818
238678
239326
239825
240239
240623
241017
241443
241903
242384
242862
243308
243696
244003
244217
244332
244352
244287
244150
243956
243722
243461
243182
242893
242598
242299
241994
241683
241365
241039
240703
240356
239999
239632
239257
238871
238477
238078
237673
237264
236851
236437
236021
235606
235191
234778
234368
233961
233558
233160
232767
232379
231997
231622
231254
230894
230542
230199
229864
229548
140591
180578
185157
173977
162202
157212
158905
163533
167930
171250
174212
177620
181611
185768
189586
192796
195411
197617
199642
201668
203807
206088
208472
210868
213168
215281
217166
218839
220368
221850
223382
225035
226839
228781
230807
232836
234778
236547
238077
239328
240294
240999
241490
241830
242085
242313
242560
242850
243191
243571
243967
244350
244690
244962
245148
245240
245236
245146
244980
244755
244486
244187
243869
243540
243208
242877
242545
242212
241877
241539
241196
240845
240485
240114
239734
239344
238945
238539
238127
237710
237290
236869
236446
236024
235602
235182
234764
234350
233938
233531
233129
232732
232342
231958
231582
231214
230854
230503
230160
229836
149227
195209
198631
186447
174868
170162
171777
176167
180368
183517
186204
189174
192613
196218
199585
202482
204898
206952
208794
210555
212322
214137
215995
217850
219634
221283
222765
224092
225319
226529
227805
229213
230781
232497
234309
236140
237899
239498
240868
241967
242782
243335
243672
243854
243951
244023
244122
244276
244495
244772
245083
245399
245687
245919
246074
246139
246111
245994
245798
245540
245234
244899
244547
244187
243826
243472
243123
242778
242433
242086
241735
241375
241005
240624
240231
239828
239415
238996
238570
238142
237711
237279
236847
236417
235988
235562
235138
234717
234301
233888
233480
233077
232681
232291
231909
231534
231167
230809
230459
230129
155423
205702
208322
195533
184238
179854
181516
185853
190065
193251
195879
198625
201714
204948
208022
210750
213101
215134
216928
218555
220077
221542
222975
224370
225700
226930
228043
229053
230008
230979
232038
233242
234614
236139
237766
239417
241004
242437
243649
244593
245256
245658
245842
245871
245815
245738
245693
245714
245813
245986
246210
246454
246686
246874
246992
247024
246965
246820
246598
246312
245981
245619
245243
244862
244485
244115
243752
243394
243035
242673
242305
241929
241542
241143
240734
240314
239886
239451
239012
238569
238125
237681
237239
236799
236363
235930
235500
235075
234653
234236
233823
233415
233014
232619
232230
231850
231478
231114
230759
230425
159530
212694
214881
201864
190938
186912
188726
193171
197567
200966
203713
206411
209313
212317
215218
217885
220276
222397
224256
225865
227255
228472
229566
230568
231490
232330
233091
233797
234494
235244
236111
237138
238343
239702
241163
242646
244062
245327
246372
247153
247660
247910
247947
247834
247637
247425
247250
247149
247138
247212
247349
247519
247688
247824
247902
247902
247817
247649
247406
247100
246751
246373
245980
245584
245191
244803
244420
244041
243662
243280
242892
242496
242089
241672
241244
240807
240362
239911
239456
238999
238541
238084
237630
237179
236733
236293
235857
235426
235000
234578
234161
233750
233344
232944
232551
232166
231789
231421
231061
230722
161697
216458
218609
205759
195308
191694
193787
198511
203268
207052
210082
212883
215724
218597
221402
224075
226580
228873
230892
232587
233947
235011
235845
236514
237070
237545
237967
238375
238819
239357
240040
240904
241952
243154
244452
245764
247004
248088
248952
249559
249901
249999
249897
249655
249340
249016
248734
248531
248424
248411
248473
248579
248695
248788
248831
248803
248694
248506
248245
247923
247557
247161
246750
246333
245918
245508
245102
244700
244299
243895
243487
243070
242644
242208
241762
241307
240845
240378
239907
239435
238963
238494
238027
237566
237110
236660
236217
235780
235348
234921
234500
234083
233673
233268
232870
232480
232097
231724
231358
231013
161853
216879
219442
207234
197479
194480
197119
202403
207770
212147
215633
218668
221536
224327
227071
229788
232458
234992
237252
239116
240527
241508
242136
242509
242714
242822
242894
242984
243151
243453
243934
244616
245492
246522
247643
248770
249818
250708
251380
251802
251971
251912
251670
251306
250884
250468
250107
249832
249658
249583
249590
249650
249727
249789
249805
249752
249621
249409
249124
248779
248391
247973
247542
247105
246670
246239
245812
245388
244964
244539
244109
243671
243225
242770
242304
241831
241351
240866
240378
239891
239404
238921
238442
237968
237500
237040
236586
236140
235700
235266
234837
234414
233996
233585
233181
232784
232395
232014
231642
231291
159537
213199
216782
205875
197141
195023
198534
204722
211023
216298
220498
223937
226890
229573
232185
234878
237679
240465
243022
245146
246716
247723
248245
248399
248310
248084
247815
247583
247460
247506
247760
248235
248914
249748
250667
251587
252424
253103
253572
253801
253795
253581
253208
252735
252223
251732
251307
250984
250776
250677
250664
250706
250765
250807
250800
250724
250569
250334
250027
249663
249255
248820
248371
247917
247464
247014
246567
246121
245674
245224
244769
244307
243838
243360
242874
242379
241879
241375
240869
240364
239861
239362
238868
238381
237900
237427
236961
236504
236053
235609
235171
234739
234313
233894
233481
233076
232680
232292
231912
231554
153592
203702
209577
201394
194588
194080
199150
206824
214506
220997
226122
230086
233182
235762
238197
240755
243508
246330
248987
251234
252897
253922
254363
254338
253990
253454
252853
252294
251863
251629
251628
251866
252316
252923
253609
254292
254890
255336
255583
255611
255424
255055
254553
253977
253394
252856
252405
252069
251854
251748
251728
251759
251803
251827
251801
251708
251537
251290
250973
250598
250180
249733
249270
248801
248330
247859
247388
246916
246441
245961
245477
244987
244490
243986
243474
242955
242432
241905
241379
240854
240333
239816
239306
238804
238308
237821
237342
236872
236409
235953
235504
235061
234625
234196
233774
233360
232954
232556
232167
231799
141449
183890
193565
189989
186310
188504
196378
206788
216903
225370
231902
236681
240116
242755
245144
247651
250361
253124
255672
257755
259225
260055
260292
260034
259413
258573
257654
256780
256051
255538
255276
255265
255471
255831
256268
256697
257043
257243
257262
257085
256728
256228
255632
254998
254385
253841
253400
253078
252874
252774
252750
252771
252803
252813
252778
252679
252508
252263
251951
251580
251163
250712
250241
249758
249268
248774
248275
247771
247262
246748
246229
245706
245177
244641
244099
243553
243004
242453
241904
241357
240816
240280
239752
239232
238721
238218
237725
237240
236763
236294
235832
235377
234929
234489
234056
233630
233212
232803
232401
232022
119706
149697
168097
174155
176338
182519
193936
207616
220513
231106
239056
244630
248422
251174
253556
255972
258507
261004
263214
264913
265976
266386
266208
265559
264573
263393
262154
260979
259966
259184
258662
258392
258335
258428
258593
258750
258833
258791
258595
258240
257746
257155
256513
255874
255285
254780
254377
254084
253895
253793
253757
253759
253773
253771
253730
253635
253476
253249
252957
252603
252198
251754
251279
250785
250275
249753
249219
248677
248129
247575
247018
246456
245889
245318
244744
244167
243589
243012
242437
241867
241304
240747
240199
239660
239131
238611
238101
237601
237109
236625
236150
235682
235221
234768
234322
233883
233452
233029
232613
232220
74596.7
75576.9
107130
132082
149089
166926
187683
208346
225992
239520
249103
255488
259641
262514
264833
266983
269040
270879
272319
273217
273508
273209
272394
271178
269697
268087
266479
264983
263683
262631
261843
261300
260962
260762
260626
260483
260279
259975
259558
259035
258433
257790
257149
256552
256030
255598
255263
255019
254856
254759
254713
254699
254697
254688
254651
254572
254439
254243
253981
253655
253271
252838
252364
251858
251324
250768
250195
249610
249018
248420
247818
247214
246607
245998
245389
244780
244172
243566
242965
242370
241783
241203
240634
240075
239526
238989
238462
237945
237438
236939
236449
235968
235493
235026
234566
234113
233667
233229
232797
232387
15825.7
-7875.21
48203.3
91960.5
116587
142258
173954
205214
230530
248585
260492
268014
272728
275808
277998
279663
280898
281666
281911
281623
280834
279612
278040
276217
274251
272251
270323
268553
267001
265698
264644
263813
263158
262622
262147
261682
261186
260639
260038
259396
258741
258102
257513
257000
256578
256247
256000
255823
255702
255626
255587
255574
255577
255578
255563
255515
255419
255263
255038
254742
254380
253957
253479
252953
252388
251793
251175
250544
249903
249257
248609
247960
247310
246662
246016
245374
244735
244100
243471
242849
242236
241633
241041
240461
239894
239339
238795
238262
237740
237227
236722
236227
235738
235257
234783
234315
233854
233400
232950
232523
-182858
-335857
-179427
-4639.03
86527
138978
183272
220513
247928
266170
277563
284536
288663
290978
292204
292715
292623
291935
290672
288968
286971
284780
282468
280112
277783
275542
273439
271510
269777
268252
266928
265785
264792
263908
263095
262320
261564
260819
260091
259395
258751
258177
257685
257285
256976
256751
256595
256493
256432
256405
256407
256433
256475
256518
256546
256541
256485
256362
256164
255888
255532
255099
254597
254036
253428
252786
252119
251436
250743
250047
249350
248657
247966
247279
246597
245919
245246
244580
243922
243272
242634
242008
241395
240797
240212
239641
239083
238536
238000
237474
236957
236449
235948
235453
234966
234484
234008
233538
233072
232626
203345
-1.04725e+06
-830753
-541204
-298643
-97569.1
51442.8
152055
215227
253346
276153
289912
297926
302032
303711
303753
302387
300132
297367
294410
291410
288422
285488
282680
280063
277655
275440
273395
271504
269760
268163
266712
265399
264206
263114
262111
261188
260346
259591
258933
258380
257927
257557
257261
257042
256902
256832
256818
256849
256920
257026
257162
257312
257452
257558
257612
257598
257502
257315
257031
256653
256187
255642
255032
254371
253672
252950
252215
251475
250734
249996
249261
248530
247804
247083
246369
245662
244965
244278
243604
242944
242299
241671
241059
240462
239880
239311
238754
238208
237672
237145
236627
236115
235611
235112
234618
234130
233646
233165
232703
6.21546e+06
-4.6309e+06
-1.94594e+06
-1.0862e+06
-552736
-216671
-5204.12
125530
204742
251722
278951
294218
302421
306402
307856
307764
306435
304050
301096
297882
294570
291273
288086
285092
282324
279750
277331
275042
272869
270813
268885
267097
265461
263972
262621
261408
260335
259400
258613
258006
257584
257307
257093
256888
256727
256648
256651
256729
256884
257103
257368
257682
258030
258357
258607
258764
258799
258709
258497
258168
257732
257202
256593
255920
255199
254443
253667
252879
252089
251302
250519
249741
248969
248203
247444
246692
245952
245224
244512
243817
243139
242482
241844
241224
240621
240034
239460
238899
238349
237808
237276
236752
236235
235724
235218
234717
234219
233726
233233
232760
6.03712e+06
-5.02327e+06
-2.10563e+06
-1.11707e+06
-510911
-156071
48100.4
164067
230477
268338
289425
300666
306271
308635
309057
308456
307162
304972
302177
299046
295829
292635
289480
286378
283373
280520
277832
275318
272962
270745
268644
266658
264837
263228
261850
260698
259742
258931
258252
257691
257230
256828
256478
256218
256062
255981
255969
256047
256291
256705
257226
257747
258246
258729
259187
259538
259713
259658
259420
259032
258524
257919
257238
256499
255718
254909
254085
253255
252428
251607
250793
249987
249188
248396
247611
246836
246071
245322
244592
243883
243197
242535
241896
241277
240676
240092
239522
238963
238416
237877
237346
236823
236305
235793
235285
234782
234281
233783
233286
232806
411437
-1.00548e+06
-772774
-445035
-161454
45744.8
172608
242524
282052
304667
316476
321225
321886
320371
317495
314045