/*--------------------------------*- C++ -*----------------------------------*\
| =========                 |                                                 |
| \\      /  F ield         | OpenFOAM: The Open Source CFD Toolbox           |
|  \\    /   O peration     | Version:  2412                                  |
|   \\  /    A nd           | Website:  www.openfoam.com                      |
|    \\/     M anipulation  |                                                 |
\*---------------------------------------------------------------------------*/
FoamFile
{
    version     2.0;
    format      ascii;
    arch        "LSB;label=32;scalar=64";
    class       surfaceScalarField;
    location    "6";
    object      phi;
}
// * * * * * * * * * * * * * * * * * * * * * * * * * * * * * * * * * * * * * //

dimensions      [0 3 -1 0 0 0 0];

oriented        oriented;

internalField   nonuniform List<scalar> 
39700
(
-40.741
-4.34987
-33.0628
-7.67819
-27.9416
-5.12121
-24.1559
-3.78565
-21.3412
-2.81455
-19.2097
-2.13144
-17.5701
-1.63944
-16.2883
-1.28163
-15.2684
-1.01966
-14.4411
-0.827027
-13.7557
-0.685075
-13.1749
-0.580395
-12.6714
-0.503166
-12.2248
-0.446119
-11.8205
-0.403852
-11.4477
-0.372344
-11.0985
-0.348598
-10.7676
-0.330379
-10.4509
-0.316016
-10.1459
-0.304265
-9.851
-0.294207
-9.56505
-0.285174
-9.28752
-0.2767
-9.01816
-0.268472
-8.75692
-0.2603
-8.50385
-0.252084
-8.25901
-0.24379
-8.02247
-0.235432
-7.79425
-0.227057
-7.5743
-0.218736
-7.36246
-0.210555
-7.1585
-0.202607
-6.96211
-0.194983
-6.77288
-0.187759
-6.59034
-0.18099
-6.41402
-0.174711
-6.24341
-0.168936
-6.078
-0.163664
-5.91729
-0.158887
-5.76082
-0.154584
-5.60813
-0.150723
-5.45883
-0.147257
-5.3126
-0.144117
-5.16918
-0.141219
-5.02843
-0.138463
-4.89033
-0.135741
-4.75492
-0.132951
-4.62237
-0.130017
-4.49283
-0.126903
-4.36648
-0.123616
-4.24346
-0.120183
-4.12389
-0.116643
-4.00781
-0.113037
-3.89525
-0.109417
-3.78615
-0.105837
-3.68043
-0.102344
-3.57799
-0.0989527
-3.47872
-0.0956555
-3.38252
-0.0924545
-3.28927
-0.089384
-3.19878
-0.0864903
-3.11084
-0.0838161
-3.02519
-0.0813796
-2.94162
-0.0791554
-2.85997
-0.0771008
-2.78007
-0.0751986
-2.70174
-0.0734699
-2.62476
-0.0719571
-2.5489
-0.0706765
-2.47394
-0.0696083
-2.39972
-0.0686818
-2.3262
-0.0678035
-2.2534
-0.0668818
-2.18144
-0.0658294
-2.11056
-0.0645453
-2.04104
-0.0629471
-1.9732
-0.0610327
-1.90721
-0.0589214
-1.84309
-0.0567898
-1.7807
-0.0547891
-1.71984
-0.0529571
-1.6604
-0.0512401
-1.60236
-0.0495227
-1.54579
-0.0477162
-1.4908
-0.0457824
-1.43756
-0.0436691
-1.38628
-0.0413359
-1.3371
-0.0388322
-1.29004
-0.0363184
-1.24492
-0.0339478
-1.20153
-0.0317945
-1.15955
-0.0299317
-1.11855
-0.0284861
-1.07782
-0.0277398
-1.03632
-0.0280153
-0.992763
-0.0295408
-0.945393
-0.032796
-0.89138
-0.0388228
-0.825829
-0.0496512
-0.0682259
-0.740833
-16.3906
-3.39494
-17.3006
-6.76816
-17.1026
-5.31912
-16.516
-4.37215
-15.8646
-3.46583
-15.2236
-2.77235
-14.6299
-2.23294
-14.0943
-1.81696
-13.6142
-1.4995
-13.1813
-1.25962
-12.786
-1.08003
-12.4193
-0.94669
-12.0738
-0.848315
-11.7435
-0.775952
-11.4242
-0.722597
-11.1131
-0.682858
-10.8085
-0.652655
-10.5092
-0.628949
-10.215
-0.609514
-9.92581
-0.592754
-9.64167
-0.577542
-9.36289
-0.563104
-9.08976
-0.548922
-8.8226
-0.534672
-8.56171
-0.520168
-8.30738
-0.505332
-8.05986
-0.490165
-7.81936
-0.474727
-7.58603
-0.459121
-7.35995
-0.443474
-7.14117
-0.427931
-6.92966
-0.412639
-6.72535
-0.39774
-6.52812
-0.383364
-6.33779
-0.369621
-6.15412
-0.356602
-5.97683
-0.34437
-5.8056
-0.332957
-5.64009
-0.322366
-5.48
-0.312564
-5.32504
-0.303493
-5.17493
-0.295076
-5.02946
-0.28722
-4.88839
-0.279815
-4.75155
-0.272734
-4.61878
-0.265854
-4.48989
-0.259071
-4.36474
-0.252304
-4.2432
-0.245472
-4.12522
-0.238511
-4.01081
-0.231399
-3.89997
-0.224176
-3.79266
-0.216914
-3.68885
-0.209678
-3.58849
-0.202524
-3.49152
-0.195514
-3.39782
-0.188711
-3.30724
-0.182171
-3.21957
-0.175923
-3.13464
-0.169966
-3.05237
-0.16427
-2.97273
-0.15882
-2.89569
-0.153642
-2.82112
-0.148784
-2.74884
-0.144293
-2.67859
-0.140201
-2.61015
-0.136503
-2.54338
-0.133158
-2.4782
-0.130112
-2.41456
-0.127343
-2.35232
-0.124835
-2.29132
-0.122537
-2.23141
-0.120339
-2.1725
-0.118092
-2.11455
-0.11565
-2.05753
-0.112923
-2.00141
-0.109884
-1.94631
-0.106522
-1.89253
-0.102837
-1.84043
-0.098915
-1.79022
-0.0949448
-1.74183
-0.0911467
-1.69494
-0.0876613
-1.64911
-0.0845327
-1.60387
-0.0817281
-1.55878
-0.0791746
-1.51339
-0.0768316
-1.46732
-0.0746917
-1.42038
-0.0727099
-1.37259
-0.0708246
-1.32398
-0.0691146
-1.27442
-0.0677813
-1.22382
-0.0669469
-1.17233
-0.0666201
-1.12037
-0.0668437
-1.06833
-0.0679003
-1.01649
-0.0703519
-0.965667
-0.0747517
-0.918056
-0.0817349
-0.0920031
-0.878363
-4.763
-1.24772
-8.72062
-2.8105
-9.88276
-4.15692
-10.5276
-3.72724
-11.1056
-2.88768
-11.4388
-2.43899
-11.6178
-2.05369
-11.7044
-1.73011
-11.7257
-1.47795
-11.6935
-1.29147
-11.6148
-1.15831
-11.495
-1.06615
-11.3391
-1.00373
-11.1527
-0.961934
-10.941
-0.933705
-10.7095
-0.913856
-10.4628
-0.898725
-10.2053
-0.885817
-9.94063
-0.873489
-9.67193
-0.860715
-9.40179
-0.846893
-9.13233
-0.831722
-8.86525
-0.815104
-8.6019
-0.797075
-8.34329
-0.777764
-8.0902
-0.757355
-7.84317
-0.736068
-7.60257
-0.714136
-7.36864
-0.691798
-7.1415
-0.669281
-6.92124
-0.6468
-6.70786
-0.624548
-6.50136
-0.602696
-6.30172
-0.581394
-6.10887
-0.560773
-5.92275
-0.540943
-5.74327
-0.521995
-5.57029
-0.503988
-5.40368
-0.486951
-5.24325
-0.470873
-5.08882
-0.455716
-4.94017
-0.441416
-4.79711
-0.427887
-4.6594
-0.415027
-4.52682
-0.402729
-4.39908
-0.390891
-4.27594
-0.379416
-4.15712
-0.368219
-4.04236
-0.357227
-3.93137
-0.346375
-3.82392
-0.335615
-3.71982
-0.324923
-3.61896
-0.314304
-3.52125
-0.30379
-3.42662
-0.293434
-3.33499
-0.283297
-3.24628
-0.273441
-3.16041
-0.263924
-3.07727
-0.254799
-2.99675
-0.24609
-2.91868
-0.237793
-2.84292
-0.22989
-2.76936
-0.222363
-2.69793
-0.215211
-2.62862
-0.208444
-2.56142
-0.202085
-2.49629
-0.196152
-2.43315
-0.190645
-2.37189
-0.185548
-2.31241
-0.180831
-2.25463
-0.176442
-2.19852
-0.172302
-2.14401
-0.168314
-2.09102
-0.164369
-2.0394
-0.160371
-1.98898
-0.156239
-1.93965
-0.151923
-1.89129
-0.147388
-1.84381
-0.142603
-1.79725
-0.137545
-1.7518
-0.132233
-1.7078
-0.126759
-1.66554
-0.121281
-1.62521
-0.115982
-1.58678
-0.111033
-1.55
-0.106576
-1.51453
-0.102675
-1.47999
-0.0993662
-1.44588
-0.0966854
-1.41168
-0.0946366
-1.37697
-0.0931739
-1.34156
-0.0922637
-1.30532
-0.0919628
-1.26803
-0.0923912
-1.22929
-0.0937408
-1.18872
-0.0962907
-1.14623
-0.100311
-1.10197
-0.106109
-1.05639
-0.114032
-0.124059
-1.01079
5.61941
0.524906
1.40042
1.40858
-2.93006
0.173788
-6.25146
-0.405591
-8.02189
-1.11704
-8.47733
-1.98333
-9.12237
-1.40839
-9.69351
-1.15868
-10.1362
-1.03496
-10.4499
-0.977349
-10.648
-0.959891
-10.7404
-0.973302
-10.7427
-1.00098
-10.6714
-1.03276
-10.5419
-1.06268
-10.3676
-1.08755
-10.1599
-1.10586
-9.92792
-1.11714
-9.67917
-1.12154
-9.41961
-1.11954
-9.15392
-1.11179
-8.88579
-1.09901
-8.61807
-1.08193
-8.35293
-1.06126
-8.092
-1.03768
-7.83651
-1.01178
-7.58729
-0.984148
-7.34495
-0.955282
-7.10984
-0.925633
-6.8822
-0.895594
-6.66209
-0.865503
-6.44951
-0.835644
-6.2444
-0.806252
-6.04664
-0.777519
-5.8561
-0.749597
-5.67264
-0.722606
-5.49611
-0.696635
-5.32638
-0.671749
-5.16328
-0.647983
-5.00666
-0.625348
-4.8563
-0.603826
-4.71199
-0.583377
-4.5735
-0.56394
-4.44054
-0.545435
-4.31287
-0.527763
-4.19018
-0.510826
-4.07221
-0.49453
-3.95868
-0.478784
-3.84933
-0.463499
-3.74392
-0.448597
-3.64221
-0.434021
-3.54398
-0.419734
-3.44902
-0.405718
-3.35716
-0.391972
-3.26828
-0.378523
-3.18223
-0.365415
-3.09891
-0.352696
-3.01822
-0.340412
-2.94009
-0.328589
-2.86445
-0.31724
-2.79124
-0.306375
-2.72033
-0.296007
-2.65161
-0.286146
-2.58494
-0.276794
-2.52019
-0.267944
-2.45726
-0.259591
-2.39611
-0.251724
-2.33668
-0.244322
-2.27894
-0.237362
-2.22286
-0.230812
-2.16839
-0.224634
-2.11546
-0.218769
-2.06398
-0.213142
-2.01385
-0.207663
-1.96495
-0.202246
-1.91716
-0.196811
-1.87037
-0.191297
-1.82447
-0.185667
-1.77934
-0.179894
-1.73488
-0.173954
-1.691
-0.16783
-1.6477
-0.161536
-1.60508
-0.155128
-1.56333
-0.148701
-1.5227
-0.142376
-1.48342
-0.136289
-1.44568
-0.130568
-1.40959
-0.125335
-1.37517
-0.120706
-1.34235
-0.11678
-1.31095
-0.11362
-1.28069
-0.111284
-1.25126
-0.109885
-1.22224
-0.109633
-1.19304
-0.110897
-1.16279
-0.114239
-1.13014
-0.12039
-1.09324
-0.130186
-1.04979
-0.144375
-0.163006
-0.997548
9.71437
0.529167
9.34212
1.78088
6.31168
3.20435
2.2377
3.66861
-1.61011
2.73123
-4.31679
0.723947
-6.38945
0.664749
-7.92264
0.374878
-9.01606
0.0588425
-9.75328
-0.239737
-10.2083
-0.504418
-10.4503
-0.730885
-10.5334
-0.917485
-10.4994
-1.06625
-10.3806
-1.18098
-10.2013
-1.26622
-9.98011
-1.32646
-9.73077
-1.36583
-9.46364
-1.38798
-9.18638
-1.39605
-8.90464
-1.39274
-8.62253
-1.38026
-8.34305
-1.36051
-8.06833
-1.33502
-7.7999
-1.30509
-7.53878
-1.27182
-7.28568
-1.2361
-7.04102
-1.19872
-6.80504
-1.16033
-6.5778
-1.12148
-6.35926
-1.08262
-6.14927
-1.04413
-5.94764
-1.0063
-5.75412
-0.969379
-5.56842
-0.933541
-5.39028
-0.898918
-5.21939
-0.865603
-5.05548
-0.833652
-4.89826
-0.803091
-4.74749
-0.77392
-4.60291
-0.746112
-4.46427
-0.719619
-4.33133
-0.69438
-4.20385
-0.670318
-4.08156
-0.64734
-3.96422
-0.625343
-3.8516
-0.604222
-3.74346
-0.583883
-3.63956
-0.564239
-3.53967
-0.545216
-3.44354
-0.526751
-3.35096
-0.5088
-3.26169
-0.491343
-3.17551
-0.474378
-3.09222
-0.45791
-3.01164
-0.441952
-2.93364
-0.426522
-2.8581
-0.41164
-2.78491
-0.397319
-2.71398
-0.38356
-2.64524
-0.370365
-2.5786
-0.357736
-2.514
-0.345675
-2.45138
-0.334185
-2.39067
-0.323264
-2.3318
-0.312905
-2.2747
-0.303091
-2.21934
-0.293792
-2.16564
-0.284981
-2.11357
-0.276631
-2.06305
-0.268712
-2.01402
-0.26118
-1.96637
-0.253985
-1.91997
-0.247066
-1.87467
-0.240351
-1.83033
-0.233762
-1.78682
-0.227216
-1.74404
-0.220645
-1.70192
-0.214005
-1.66037
-0.207274
-1.61929
-0.200449
-1.57858
-0.193548
-1.53815
-0.18661
-1.49796
-0.179689
-1.45801
-0.172853
-1.41836
-0.166177
-1.37913
-0.159742
-1.34047
-0.153645
-1.30251
-0.147989
-1.26541
-0.142887
-1.22925
-0.138457
-1.19405
-0.134833
-1.15974
-0.132201
-1.12619
-0.130838
-1.09321
-0.131176
-1.06051
-0.133889
-1.02752
-0.139973
-0.993199
-0.150749
-0.955728
-0.167767
-0.192546
-0.911916
14.1244
0.122835
14.0685
1.83683
8.88927
8.38366
3.91879
8.63923
-0.826639
7.47695
-5.06903
4.96673
-7.66512
3.26121
-9.31764
2.02771
-10.3342
1.07576
-10.8979
0.3243
-11.1402
-0.261678
-11.1727
-0.697943
-11.062
-1.02776
-10.8564
-1.27142
-10.5896
-1.44724
-10.2853
-1.56992
-9.96009
-1.65107
-9.6254
-1.69987
-9.28912
-1.72356
-8.95657
-1.72785
-8.63125
-1.71726
-8.31537
-1.69529
-8.01027
-1.66469
-7.7167
-1.62762
-7.43498
-1.58577
-7.16517
-1.54052
-6.90714
-1.49296
-6.66062
-1.444
-6.42525
-1.39439
-6.2006
-1.34474
-5.98619
-1.29556
-5.78155
-1.24722
-5.58619
-1.20004
-5.39964
-1.15422
-5.22146
-1.10993
-5.05123
-1.06727
-4.88855
-1.0263
-4.73308
-0.987057
-4.58446
-0.949544
-4.44237
-0.91374
-4.30651
-0.879603
-4.17658
-0.847079
-4.05228
-0.816098
-3.93333
-0.786581
-3.81944
-0.758432
-3.71033
-0.731544
-3.60572
-0.705805
-3.50536
-0.681106
-3.40898
-0.657351
-3.31636
-0.634456
-3.22725
-0.612356
-3.14142
-0.590995
-3.05866
-0.570332
-2.9788
-0.550338
-2.90168
-0.531005
-2.82712
-0.512334
-2.75501
-0.494327
-2.68521
-0.476978
-2.61764
-0.460281
-2.55222
-0.444228
-2.48886
-0.428814
-2.42748
-0.414042
-2.36802
-0.399913
-2.31038
-0.38643
-2.2545
-0.373586
-2.2003
-0.36137
-2.14773
-0.349761
-2.09671
-0.338728
-2.0472
-0.328229
-1.99916
-0.318228
-1.95255
-0.3087
-1.90729
-0.299627
-1.86328
-0.290978
-1.82044
-0.282713
-1.77861
-0.274773
-1.73769
-0.267087
-1.69753
-0.259577
-1.65799
-0.252168
-1.61897
-0.244804
-1.58034
-0.237447
-1.54202
-0.230088
-1.5039
-0.22275
-1.46587
-0.215474
-1.42782
-0.208312
-1.38966
-0.20132
-1.3513
-0.19455
-1.31272
-0.188046
-1.27391
-0.181857
-1.23493
-0.176048
-1.19584
-0.170697
-1.15677
-0.16589
-1.11787
-0.161712
-1.0794
-0.158257
-1.0417
-0.155691
-1.00526
-0.154343
-0.970596
-0.15482
-0.938234
-0.158148
-0.908499
-0.165861
-0.881193
-0.180074
-0.203748
-0.854793
22.9614
1.79616
6.52477
18.2735
-4.23268
19.1412
-10.0993
14.506
-12.7145
10.0922
-14.2396
6.49198
-14.9055
3.92727
-14.9259
2.04829
-14.5713
0.721454
-14.0536
-0.193112
-13.4646
-0.850311
-12.8405
-1.32163
-12.2171
-1.65079
-11.6121
-1.87595
-11.0349
-2.02393
-10.49
-2.11423
-9.97915
-2.16138
-9.50201
-2.17636
-9.05734
-2.16752
-8.64323
-2.14121
-8.25743
-2.10225
-7.89761
-2.05422
-7.56156
-1.9998
-7.24722
-1.94096
-6.95271
-1.87921
-6.67638
-1.81572
-6.41671
-1.75141
-6.17236
-1.68707
-5.94208
-1.62331
-5.72474
-1.56065
-5.51927
-1.4995
-5.32472
-1.44017
-5.14021
-1.38285
-4.96498
-1.32767
-4.79835
-1.27468
-4.63977
-1.22389
-4.48871
-1.17529
-4.34477
-1.12884
-4.20756
-1.08449
-4.07674
-1.0422
-3.95197
-1.00189
-3.83296
-0.963513
-3.71938
-0.926986
-3.61093
-0.892222
-3.50731
-0.859123
-3.40824
-0.827574
-3.31343
-0.79746
-3.22258
-0.768665
-3.13545
-0.741077
-3.05178
-0.714592
-2.97134
-0.689122
-2.89394
-0.664599
-2.81937
-0.640968
-2.74745
-0.618184
-2.67804
-0.596212
-2.61098
-0.57503
-2.54619
-0.55462
-2.48355
-0.534969
-2.42296
-0.516067
-2.36432
-0.497902
-2.30755
-0.480468
-2.25256
-0.463755
-2.19927
-0.447754
-2.14762
-0.432466
-2.09753
-0.417886
-2.04894
-0.403994
-2.00181
-0.390754
-1.95609
-0.378128
-1.91174
-0.366079
-1.8687
-0.35458
-1.8269
-0.343615
-1.78629
-0.333173
-1.74676
-0.323241
-1.70821
-0.313797
-1.67052
-0.3048
-1.63354
-0.296193
-1.59715
-0.287896
-1.56121
-0.279816
-1.52563
-0.271876
-1.49031
-0.264036
-1.45515
-0.256292
-1.42002
-0.248675
-1.3848
-0.241235
-1.34937
-0.234024
-1.31361
-0.227097
-1.27738
-0.2205
-1.24058
-0.214272
-1.2031
-0.208442
-1.16488
-0.203028
-1.12594
-0.198047
-1.08633
-0.193534
-1.04614
-0.18953
-1.00552
-0.186066
-0.964752
-0.183191
-0.924316
-0.181015
-0.885026
-0.17981
-0.848146
-0.18016
-0.815436
-0.18312
-0.789131
-0.190374
-0.204795
-0.771686
-32.3338
-2.37784
-43.8074
29.747
-40.8657
16.1996
-36.378
10.0183
-31.8873
5.60154
-28.0711
2.67592
-24.826
0.682259
-22.0784
-0.699149
-19.7253
-1.63142
-17.6954
-2.22268
-15.9668
-2.57868
-14.4973
-2.79076
-13.2426
-2.90516
-12.1661
-2.95201
-11.2377
-2.95182
-10.4326
-2.91882
-9.73023
-2.86313
-9.11385
-2.79209
-8.56957
-2.71109
-8.08588
-2.62412
-7.65321
-2.53407
-7.26361
-2.44292
-6.91055
-2.35188
-6.58872
-2.26173
-6.29381
-2.17299
-6.02229
-2.08604
-5.77127
-2.00115
-5.53838
-1.91861
-5.32158
-1.83866
-5.11917
-1.76154
-4.92963
-1.68743
-4.75163
-1.61646
-4.58401
-1.54868
-4.42574
-1.48405
-4.27596
-1.42247
-4.13393
-1.36382
-3.99908
-1.30795
-3.8709
-1.25472
-3.74901
-1.20398
-3.63306
-1.15563
-3.52275
-1.10958
-3.41775
-1.06577
-3.31777
-1.0241
-3.22252
-0.984492
-3.13168
-0.946847
-3.04498
-0.911046
-2.96212
-0.87696
-2.88284
-0.844458
-2.80687
-0.813416
-2.734
-0.78371
-2.664
-0.755224
-2.5967
-0.727865
-2.53194
-0.701555
-2.46957
-0.676237
-2.40945
-0.651864
-2.35146
-0.628397
-2.2955
-0.605808
-2.24146
-0.584078
-2.18926
-0.563185
-2.1388
-0.543108
-2.09002
-0.523833
-2.04283
-0.505356
-1.99715
-0.487679
-1.95289
-0.470806
-1.90994
-0.454727
-1.86824
-0.439409
-1.82772
-0.424809
-1.78831
-0.410883
-1.74997
-0.39758
-1.71266
-0.384857
-1.67635
-0.372702
-1.64097
-0.361131
-1.60642
-0.350165
-1.57258
-0.339805
-1.53933
-0.330025
-1.50651
-0.320766
-1.47401
-0.311947
-1.44168
-0.30347
-1.40942
-0.295246
-1.37712
-0.287213
-1.3447
-0.279345
-1.3121
-0.271665
-1.27925
-0.264221
-1.24606
-0.25707
-1.21246
-0.250272
-1.17836
-0.243883
-1.14365
-0.237947
-1.10824
-0.232493
-1.07199
-0.227569
-1.03473
-0.223218
-0.99632
-0.219461
-0.956678
-0.216268
-0.915817
-0.213569
-0.873856
-0.211301
-0.831088
-0.209388
-0.788158
-0.20774
-0.746346
-0.206289
-0.708011
-0.205004
-0.676949
-0.204127
-0.20519
-0.658427
-169.49
7.33496
-123.658
-16.0849
-94.7703
-12.6884
-72.2273
-12.5247
-55.5937
-11.032
-43.4651
-9.45263
-34.5243
-8.25844
-27.9725
-7.25083
-23.1666
-6.43711
-19.5756
-5.81342
-16.8313
-5.32278
-14.6905
-4.9312
-12.9928
-4.60251
-11.6258
-4.31857
-10.5093
-4.06784
-9.5851
-3.84244
-8.81061
-3.637
-8.15415
-3.44786
-7.5919
-3.27258
-7.10566
-3.10953
-6.68115
-2.95767
-6.30695
-2.81614
-5.97414
-2.68363
-5.67568
-2.55905
-5.40601
-2.44144
-5.16075
-2.33
-4.93638
-2.22413
-4.73012
-2.12339
-4.5397
-2.02751
-4.36322
-1.93634
-4.1991
-1.8498
-4.04592
-1.76779
-3.90244
-1.6902
-3.76758
-1.61685
-3.64039
-1.54749
-3.52011
-1.48183
-3.40611
-1.41957
-3.29789
-1.36043
-3.19508
-1.30417
-3.09736
-1.25061
-3.00448
-1.1996
-2.91622
-1.15104
-2.83234
-1.10485
-2.75261
-1.06097
-2.67675
-1.01932
-2.60449
-0.979784
-2.53556
-0.942229
-2.46972
-0.906504
-2.40674
-0.872456
-2.34641
-0.839946
-2.28856
-0.808846
-2.233
-0.779036
-2.17962
-0.750398
-2.12831
-0.722849
-2.07899
-0.696338
-2.03155
-0.670825
-1.9859
-0.646281
-1.94195
-0.622682
-1.89962
-0.60001
-1.85879
-0.578251
-1.81937
-0.557393
-1.78127
-0.537428
-1.74438
-0.518356
-1.70861
-0.500184
-1.67385
-0.482901
-1.64002
-0.466474
-1.60703
-0.450847
-1.57481
-0.43595
-1.54333
-0.421719
-1.51253
-0.408117
-1.48234
-0.395145
-1.45269
-0.382832
-1.42349
-0.371208
-1.39464
-0.360286
-1.36602
-0.350059
-1.33749
-0.340491
-1.3089
-0.331503
-1.28014
-0.322973
-1.25112
-0.314768
-1.22178
-0.306807
-1.19206
-0.299071
-1.16187
-0.291584
-1.13116
-0.284392
-1.09985
-0.277546
-1.06789
-0.271096
-1.03521
-0.265092
-1.00175
-0.259598
-0.967397
-0.254675
-0.932023
-0.250384
-0.895464
-0.246803
-0.857533
-0.243978
-0.818124
-0.241789
-0.77744
-0.239853
-0.735953
-0.237819
-0.694148
-0.235582
-0.652524
-0.233013
-0.611776
-0.229841
-0.573358
-0.225275
-0.540355
-0.217876
-0.207422
-0.517627
-71.0281
-13.2515
-63.3751
-23.7379
-51.9814
-24.082
-40.9856
-23.5204
-32.6112
-19.4063
-26.8558
-15.208
-22.575
-12.5391
-19.2186
-10.607
-16.5294
-9.12609
-14.3708
-7.97175
-12.6325
-7.06079
-11.2081
-6.35517
-10.0318
-5.7784
-9.05309
-5.29678
-8.2327
-4.88767
-7.53963
-4.53488
-6.94942
-4.2265
-6.4428
-3.95369
-6.00464
-3.70988
-5.6231
-3.49013
-5.2887
-3.29104
-4.99303
-3.1107
-4.72969
-2.94577
-4.49353
-2.79392
-4.2804
-2.65319
-4.08688
-2.52204
-3.9102
-2.39924
-3.74805
-2.28386
-3.59855
-2.17524
-3.46013
-2.07288
-3.33146
-1.97648
-3.21138
-1.88576
-3.09891
-1.80046
-2.99317
-1.72025
-2.89344
-1.64477
-2.79908
-1.57361
-2.7096
-1.50635
-2.62458
-1.44261
-2.54373
-1.38206
-2.46682
-1.32442
-2.39368
-1.2695
-2.32416
-1.21718
-2.2581
-1.1674
-2.19533
-1.12008
-2.13566
-1.07517
-2.07891
-1.03257
-2.02488
-0.992139
-1.97337
-0.953733
-1.92421
-0.917182
-1.87723
-0.882323
-1.83231
-0.848999
-1.78935
-0.81707
-1.74822
-0.786423
-1.70882
-0.756977
-1.67104
-0.728658
-1.63483
-0.701404
-1.60013
-0.675174
-1.56688
-0.649941
-1.535
-0.625698
-1.50444
-0.60245
-1.47506
-0.580204
-1.44677
-0.558967
-1.41943
-0.538744
-1.39294
-0.519527
-1.36721
-0.501293
-1.34213
-0.484008
-1.3176
-0.467629
-1.29349
-0.452105
-1.26966
-0.437388
-1.24598
-0.423429
-1.22234
-0.410197
-1.19869
-0.39768
-1.17499
-0.385874
-1.15124
-0.374777
-1.12739
-0.364397
-1.10336
-0.35477
-1.07896
-0.345892
-1.05406
-0.337605
-1.02861
-0.329681
-1.00259
-0.322001
-0.975974
-0.314587
-0.948639
-0.307518
-0.920443
-0.300877
-0.891231
-0.294719
-0.860895
-0.289045
-0.82943
-0.283797
-0.796991
-0.278873
-0.763823
-0.274239
-0.730129
-0.269992
-0.69594
-0.266375
-0.661021
-0.263701
-0.624825
-0.262174
-0.587447
-0.260767
-0.549776
-0.258318
-0.512419
-0.254961
-0.476109
-0.250385
-0.441805
-0.244033
-0.41024
-0.235343
-0.381353
-0.223758
-0.20984
-0.354544
42.8863
-2.64014
24.6398
-5.49132
12.2273
-11.6695
2.85055
-14.1435
-2.7538
-13.8018
-5.40602
-12.5555
-6.5173
-11.4276
-6.874
-10.25
-6.8581
-9.14164
-6.65914
-8.1703
-6.3896
-7.32987
-6.0644
-6.67984
-5.71876
-6.12345
-5.37571
-5.63917
-5.0491
-5.21354
-4.74585
-4.83732
-4.46818
-4.50328
-4.21555
-4.20536
-3.98599
-3.93837
-3.77735
-3.69761
-3.58816
-3.47898
-3.41509
-3.28242
-3.2564
-3.10302
-3.11071
-2.93805
-2.97686
-2.78538
-2.85373
-2.6434
-2.74023
-2.51086
-2.63526
-2.38684
-2.53775
-2.27063
-2.44671
-2.16168
-2.36124
-2.05958
-2.2806
-1.96391
-2.20416
-1.87427
-2.13144
-1.79021
-2.06208
-1.71124
-1.99581
-1.63684
-1.93247
-1.5665
-1.87196
-1.49978
-1.81421
-1.43631
-1.75913
-1.37584
-1.70663
-1.31818
-1.65658
-1.26324
-1.60887
-1.21095
-1.56338
-1.16124
-1.51999
-1.11405
-1.47859
-1.06927
-1.43906
-1.02679
-1.40131
-0.986427
-1.36523
-0.948004
-1.33077
-0.911336
-1.29787
-0.876259
-1.26647
-0.842621
-1.23655
-0.810298
-1.20808
-0.779197
-1.18103
-0.749243
-1.15536
-0.720393
-1.13102
-0.692626
-1.10791
-0.66593
-1.08596
-0.640318
-1.06504
-0.615801
-1.04508
-0.592378
-1.02599
-0.570044
-1.00769
-0.548798
-0.990109
-0.528632
-0.973164
-0.509531
-0.956755
-0.49148
-0.940748
-0.474465
-0.924973
-0.458477
-0.909218
-0.443505
-0.893225
-0.429549
-0.876714
-0.416595
-0.859432
-0.404604
-0.841208
-0.393488
-0.822026
-0.383083
-0.802152
-0.373114
-0.781897
-0.363562
-0.761177
-0.354818
-0.739696
-0.346937
-0.717444
-0.339413
-0.694745
-0.331803
-0.67186
-0.324196
-0.648815
-0.316897
-0.625464
-0.310153
-0.601563
-0.30411
-0.5768
-0.298836
-0.550826
-0.294308
-0.523411
-0.290296
-0.49441
-0.286677
-0.463767
-0.283424
-0.432035
-0.280116
-0.400614
-0.27612
-0.369811
-0.272613
-0.34024
-0.268486
-0.313539
-0.261854
-0.289357
-0.254631
-0.266502
-0.247156
-0.244564
-0.238052
-0.2235
-0.226285
-0.200566
-0.213835
-0.20761
-0.16647
30.4089
-1.48714
29.2328
-4.3152
24.207
-6.64357
17.8927
-7.82919
12.405
-8.31393
8.2532
-8.40348
5.08176
-8.25587
2.77006
-7.93792
1.15439
-7.52543
0.0644535
-7.07965
-0.642074
-6.62249
-1.10332
-6.2177
-1.40468
-5.82116
-1.59776
-5.44509
-1.71596
-5.09427
-1.78239
-4.76972
-1.81361
-4.47081
-1.82115
-4.19646
-1.81249
-3.94557
-1.79203
-3.71651
-1.76397
-3.50536
-1.72836
-3.31624
-1.68768
-3.14179
-1.6441
-2.97961
-1.59927
-2.82806
-1.55441
-2.68597
-1.51034
-2.55252
-1.46748
-2.42714
-1.42598
-2.30943
-1.38574
-2.19908
-1.34651
-2.0958
-1.308
-1.99925
-1.26994
-1.90899
-1.23216
-1.82449
-1.19461
-1.74512
-1.15736
-1.67023
-1.12061
-1.59922
-1.08457
-1.5316
-1.04943
-1.46703
-1.01536
-1.40528
-0.982481
-1.34624
-0.950829
-1.28985
-0.9204
-1.23611
-0.891138
-1.185
-0.862965
-1.13648
-0.835808
-1.09045
-0.809615
-1.04676
-0.784362
-1.00521
-0.760034
-0.965609
-0.736618
-0.927769
-0.714115
-0.891514
-0.69253
-0.856687
-0.671865
-0.823169
-0.652119
-0.790861
-0.633304
-0.759686
-0.615426
-0.729598
-0.598478
-0.700594
-0.582439
-0.672675
-0.567277
-0.645866
-0.552945
-0.620195
-0.539379
-0.595677
-0.526516
-0.572309
-0.514308
-0.550074
-0.502721
-0.528948
-0.491734
-0.508909
-0.481323
-0.48994
-0.471463
-0.472032
-0.462123
-0.455179
-0.453252
-0.439394
-0.444744
-0.424726
-0.436386
-0.41127
-0.427767
-0.399182
-0.418164
-0.388684
-0.406422
-0.380032
-0.392101
-0.37222
-0.376177
-0.363802
-0.35918
-0.355564
-0.340344
-0.34881
-0.319427
-0.342555
-0.297754
-0.334887
-0.276769
-0.325837
-0.25688
-0.316681
-0.237804
-0.308267
-0.219057
-0.300919
-0.200061
-0.29478
-0.180041
-0.289999
-0.159574
-0.28497
-0.139881
-0.278947
-0.12106
-0.273028
-0.102692
-0.267307
-0.0841348
-0.261489
-0.0655321
-0.255264
-0.0495738
-0.245195
-0.036401
-0.233145
-0.0239516
-0.222589
-0.0104443
-0.212716
0.00546901
-0.201737
0.025169
-0.188513
0.0501931
-0.173698
-0.159668
0.0828608
25.4207
-0.970134
23.6123
-2.50682
20.7198
-3.75097
17.5701
-4.67942
14.5865
-5.33012
11.913
-5.72978
9.58688
-5.92953
7.63004
-5.98075
6.02787
-5.92284
4.73581
-5.78707
3.71288
-5.59894
2.87722
-5.3813
2.20381
-5.14688
1.66571
-4.90596
1.23816
-4.66551
0.899726
-4.4299
0.632579
-4.20206
0.422089
-3.98414
0.256159
-3.77757
0.124701
-3.58272
0.0198138
-3.39792
-0.0658663
-3.22786
-0.135965
-3.06887
-0.192864
-2.91975
-0.238305
-2.77951
-0.273724
-2.64729
-0.300454
-2.52236
-0.319802
-2.40419
-0.333036
-2.2924
-0.34131
-2.18682
-0.345604
-2.08732
-0.346678
-1.99377
-0.345079
-1.90597
-0.341175
-1.82354
-0.335207
-1.74599
-0.32736
-1.67274
-0.317805
-1.60318
-0.306738
-1.53681
-0.294394
-1.47323
-0.281043
-1.4122
-0.266946
-1.35359
-0.252332
-1.29738
-0.23739
-1.24363
-0.222262
-1.19235
-0.207052
-1.14354
-0.191834
-1.09713
-0.176672
-1.05297
-0.161626
-1.01089
-0.146759
-0.970669
-0.132136
-0.93213
-0.117811
-0.895103
-0.103807
-0.859463
-0.0901137
-0.82512
-0.0766875
-0.79201
-0.063461
-0.760075
-0.0503601
-0.729276
-0.0373101
-0.699606
-0.0242324
-0.671066
-0.0110558
-0.643672
0.00228681
-0.617443
0.0158666
-0.592394
0.0297636
-0.568525
0.0440668
-0.545822
0.0588718
-0.524256
0.0742768
-0.503796
0.0903773
-0.484407
0.107262
-0.466053
0.125003
-0.448685
0.14363
-0.432239
0.163074
-0.416621
0.183081
-0.401693
0.203088
-0.387243
0.222012
-0.372933
0.237973
-0.358253
0.248928
-0.34314
0.255348
-0.329627
0.260246
-0.319138
0.265317
-0.309875
0.269208
-0.299238
0.270095
-0.287171
0.268254
-0.275497
0.265426
-0.265091
0.262911
-0.255759
0.261051
-0.247097
0.259536
-0.238741
0.257417
-0.230338
0.253665
-0.221588
0.248228
-0.213547
0.242242
-0.206649
0.236928
-0.200029
0.232475
-0.192783
0.227768
-0.184097
0.222226
-0.173781
0.217797
-0.164795
0.217105
-0.157298
0.220884
-0.149003
0.228428
-0.138829
0.239114
-0.12692
0.252776
-0.114167
-0.101525
0.266695
20.3986
-0.589903
19.4836
-1.59185
18.1974
-2.46464
16.6546
-3.13654
14.9775
-3.65289
13.2845
-4.03651
11.6568
-4.30157
10.1423
-4.46603
8.76818
-4.54832
7.54619
-4.56464
6.47676
-4.529
5.54997
-4.45391
4.75373
-4.34994
4.07407
-4.22548
3.49653
-4.08703
3.00727
-3.93958
2.59355
-3.78713
2.24384
-3.63306
1.94797
-3.48016
1.69749
-3.33052
1.48705
-3.18558
1.30771
-3.04643
1.15438
-2.91325
1.0231
-2.78596
0.910644
-2.66431
0.814399
-2.54806
0.732271
-2.43699
0.662537
-2.33094
0.603723
-2.2298
0.554476
-2.13349
0.513486
-2.04194
0.479467
-1.95505
0.451183
-1.87266
0.427521
-1.79453
0.407561
-1.72035
0.390618
-1.64977
0.37625
-1.58244
0.364198
-1.51802
0.354322
-1.45624
0.346531
-1.3969
0.340722
-1.33988
0.336732
-1.28508
0.334323
-1.23249
0.333199
-1.18207
0.333032
-1.13378
0.333507
-1.08757
0.334353
-1.04334
0.335374
-1.00097
0.336444
-0.960342
0.337506
-0.921321
0.338547
-0.883786
0.339578
-0.847632
0.340612
-0.812773
0.341654
-0.779134
0.342712
-0.74666
0.343796
-0.715311
0.3449
-0.68507
0.346005
-0.655925
0.347064
-0.627862
0.348002
-0.600879
0.348731
-0.574974
0.34916
-0.550147
0.349202
-0.526389
0.348782
-0.50368
0.347829
-0.481993
0.346281
-0.461296
0.344079
-0.441554
0.341181
-0.422727
0.337564
-0.404765
0.333242
-0.387601
0.328301
-0.371158
0.32296
-0.355342
0.317691
-0.340055
0.313369
-0.325217
0.310817
-0.310814
0.309034
-0.296943
0.305713
-0.283631
0.299827
-0.270769
0.292614
-0.258359
0.285682
-0.246558
0.279529
-0.23563
0.274223
-0.225697
0.269863
-0.216543
0.266549
-0.207821
0.264418
-0.199286
0.263742
-0.19082
0.264907
-0.1824
0.267414
-0.174081
0.270432
-0.165854
0.273681
-0.157588
0.277474
-0.149128
0.282607
-0.14037
0.290088
-0.131391
0.298758
-0.122445
0.306903
-0.113527
0.314492
-0.104668
0.322781
-0.0959729
0.333259
-0.0875412
0.346896
-0.0795264
-0.0722509
0.362984
17.4444
-0.411334
16.9479
-1.0953
16.1721
-1.68878
15.2026
-2.16695
14.119
-2.56912
12.987
-2.90431
11.8555
-3.16978
10.7579
-3.36812
9.71638
-3.50648
8.74496
-3.59281
7.85116
-3.63473
7.03747
-3.63968
6.30283
-3.61467
5.64398
-3.56592
5.05642
-3.49867
4.53495
-3.4172
4.07398
-3.32514
3.66767
-3.22562
3.31013
-3.12136
2.99569
-3.01469
2.71911
-2.90746
2.47544
-2.80107
2.26046
-2.69643
2.07061
-2.59409
1.90288
-2.49439
1.75469
-2.39749
1.6238
-2.30353
1.50823
-2.2126
1.40624
-2.12481
1.31621
-2.04025
1.23668
-1.95898
1.16633
-1.88102
1.10394
-1.80635
1.04846
-1.73488
0.998986
-1.66644
0.954765
-1.60085
0.915192
-1.53789
0.879774
-1.47734
0.848106
-1.41902
0.819839
-1.36279
0.794648
-1.30853
0.772218
-1.25618
0.752228
-1.2057
0.734357
-1.15706
0.718288
-1.11024
0.703727
-1.06519
0.690409
-1.02185
0.678113
-0.980139
0.66666
-0.939981
0.655912
-0.901282
0.645765
-0.863954
0.636142
-0.827918
0.626984
-0.793104
0.618247
-0.759454
0.609898
-0.72692
0.601907
-0.695469
0.594241
-0.665075
0.586858
-0.635722
0.579719
-0.607397
0.572775
-0.580088
0.565967
-0.553784
0.559229
-0.528478
0.552492
-0.504157
0.545693
-0.480806
0.538776
-0.458406
0.531692
-0.43693
0.524401
-0.416351
0.516872
-0.396638
0.509093
-0.377753
0.501074
-0.359655
0.492862
-0.342296
0.48455
-0.325628
0.476286
-0.309604
0.468259
-0.294187
0.46065
-0.279349
0.453511
-0.265077
0.446813
-0.251366
0.440612
-0.238231
0.435012
-0.225711
0.430044
-0.213845
0.42553
-0.202647
0.421164
-0.192088
0.416769
-0.182103
0.412413
-0.172607
0.408315
-0.163515
0.404736
-0.154754
0.401897
-0.146268
0.399907
-0.138015
0.398812
-0.129956
0.398716
-0.122048
0.399817
-0.114257
0.402387
-0.106568
0.406637
-0.0989966
0.412526
-0.091594
0.419997
-0.0844299
0.429071
-0.0775957
0.439813
-0.0711801
0.452316
-0.0652551
0.466621
-0.0598846
-0.0552139
0.482002
15.1036
-0.290499
14.7871
-0.778733
14.31
-1.21165
13.7154
-1.57215
13.0343
-1.88791
12.2943
-2.16413
11.5213
-2.39652
10.7379
-2.58437
9.96235
-2.73061
9.2091
-2.83915
8.48877
-2.91394
7.8086
-2.95899
7.1729
-2.97838
6.58367
-2.97602
6.04124
-2.95549
5.54478
-2.91991
5.09262
-2.87206
4.68246
-2.81444
4.31151
-2.74929
3.97669
-2.67864
3.67481
-2.60423
3.40271
-2.5275
3.15745
-2.44956
2.93634
-2.37126
2.73703
-2.29319
2.55738
-2.21581
2.39548
-2.13946
2.24962
-2.0644
2.11819
-1.99087
1.99972
-1.91909
1.89283
-1.84922
1.79626
-1.7814
1.70888
-1.71572
1.62965
-1.6522
1.55768
-1.59082
1.49219
-1.5315
1.43253
-1.47414
1.3781
-1.41862
1.32843
-1.36482
1.28306
-1.31265
1.24157
-1.26203
1.20358
-1.21293
1.16871
-1.16531
1.13659
-1.11917
1.1069
-1.0745
1.07932
-1.03129
1.05358
-0.989497
1.02942
-0.949093
1.00666
-0.910025
0.985113
-0.872237
0.964644
-0.83567
0.945134
-0.800269
0.926488
-0.765981
0.908622
-0.732764
0.891468
-0.700584
0.874964
-0.669412
0.859053
-0.639229
0.843679
-0.610019
0.828791
-0.581772
0.814336
-0.554476
0.800264
-0.528123
0.786527
-0.502703
0.77307
-0.478203
0.759844
-0.454609
0.746807
-0.431907
0.733924
-0.410081
0.721172
-0.389112
0.708537
-0.368981
0.696021
-0.34966
0.683633
-0.33112
0.671401