/*--------------------------------*- C++ -*----------------------------------*\
| =========                 |                                                 |
| \\      /  F ield         | OpenFOAM: The Open Source CFD Toolbox           |
|  \\    /   O peration     | Version:  2412                                  |
|   \\  /    A nd           | Website:  www.openfoam.com                      |
|    \\/     M anipulation  |                                                 |
\*---------------------------------------------------------------------------*/
FoamFile
{
    version     2.0;
    format      ascii;
    arch        "LSB;label=32;scalar=64";
    class       volVectorField;
    location    "6";
    object      U;
}
// * * * * * * * * * * * * * * * * * * * * * * * * * * * * * * * * * * * * * //

dimensions      [0 1 -1 0 0 0 0];

internalField   nonuniform List<vector> 
20000
(
(-13011.5 -1980.24 0)
(-313.15 -919.71 0)
(-2411.6 -634.094 0)
(-1939.97 -466.717 0)
(-1726.38 -344.7 0)
(-1554.21 -258.11 0)
(-1421.24 -195.93 0)
(-1316.77 -151.049 0)
(-1233.48 -118.569 0)
(-1165.96 -95.0279 0)
(-1110.21 -77.9469 0)
(-1063.21 -65.5468 0)
(-1022.72 -56.536 0)
(-987.074 -49.9687 0)
(-955.007 -45.1451 0)
(-925.584 -41.5463 0)
(-898.105 -38.7911 0)
(-872.055 -36.6054 0)
(-847.073 -34.7998 0)
(-822.915 -33.2498 0)
(-799.431 -31.8794 0)
(-776.542 -30.646 0)
(-754.221 -29.5275 0)
(-732.471 -28.5126 0)
(-711.313 -27.5939 0)
(-690.777 -26.7639 0)
(-670.894 -26.0131 0)
(-651.694 -25.3298 0)
(-633.204 -24.6999 0)
(-615.447 -24.1072 0)
(-598.44 -23.5328 0)
(-582.187 -22.9562 0)
(-566.674 -22.3565 0)
(-551.852 -21.7153 0)
(-537.634 -21.0204 0)
(-523.899 -20.2688 0)
(-510.52 -19.468 0)
(-497.386 -18.6335 0)
(-484.425 -17.7845 0)
(-471.597 -16.9398 0)
(-458.876 -16.1154 0)
(-446.241 -15.3256 0)
(-433.678 -14.5851 0)
(-421.187 -13.9094 0)
(-408.779 -13.3122 0)
(-396.46 -12.8066 0)
(-384.254 -12.4074 0)
(-372.242 -12.1286 0)
(-360.579 -11.9717 0)
(-349.426 -11.9176 0)
(-338.872 -11.9322 0)
(-328.903 -11.9819 0)
(-319.455 -12.0449 0)
(-310.46 -12.1062 0)
(-301.828 -12.1533 0)
(-293.447 -12.1814 0)
(-285.223 -12.1988 0)
(-277.125 -12.2241 0)
(-269.189 -12.2751 0)
(-261.512 -12.3583 0)
(-254.211 -12.461 0)
(-247.33 -12.5524 0)
(-240.807 -12.6079 0)
(-234.547 -12.6232 0)
(-228.458 -12.6105 0)
(-222.483 -12.5882 0)
(-216.635 -12.5679 0)
(-210.984 -12.5432 0)
(-205.579 -12.493 0)
(-200.394 -12.3976 0)
(-195.374 -12.2554 0)
(-190.502 -12.0703 0)
(-185.756 -11.8427 0)
(-181.057 -11.5656 0)
(-176.233 -11.2359 0)
(-171.089 -10.8707 0)
(-165.567 -10.5123 0)
(-159.897 -10.1929 0)
(-154.522 -9.89477 0)
(-149.802 -9.55665 0)
(-145.829 -9.13179 0)
(-142.479 -8.61445 0)
(-139.546 -8.02991 0)
(-136.811 -7.4114 0)
(-134.108 -6.80435 0)
(-131.396 -6.24138 0)
(-128.674 -5.7418 0)
(-125.948 -5.33952 0)
(-123.338 -5.04159 0)
(-121.013 -4.79229 0)
(-118.943 -4.5352 0)
(-116.901 -4.30195 0)
(-114.756 -4.17935 0)
(-112.442 -4.21635 0)
(-109.798 -4.45355 0)
(-106.58 -4.95728 0)
(-102.603 -5.87178 0)
(-98.0267 -7.40663 0)
(-93.0899 -9.61518 0)
(-89.5704 -12.4195 0)
(-5570.83 -1048.26 0)
(-233.911 -1442.35 0)
(-1427.8 -1061.81 0)
(-1293.69 -830.986 0)
(-1255.61 -643.712 0)
(-1210.99 -504.675 0)
(-1167.02 -399.728 0)
(-1126.75 -320.301 0)
(-1090.38 -260.352 0)
(-1057.42 -215.334 0)
(-1027.2 -181.741 0)
(-999.091 -156.842 0)
(-972.529 -138.487 0)
(-947.062 -124.984 0)
(-922.342 -115.006 0)
(-898.129 -107.534 0)
(-874.276 -101.796 0)
(-850.714 -97.228 0)
(-827.434 -93.4282 0)
(-804.46 -90.1225 0)
(-781.838 -87.1333 0)
(-759.615 -84.3527 0)
(-737.831 -81.7204 0)
(-716.518 -79.2063 0)
(-695.697 -76.7966 0)
(-675.386 -74.4847 0)
(-655.598 -72.2652 0)
(-636.347 -70.1298 0)
(-617.648 -68.0654 0)
(-599.512 -66.0527 0)
(-581.953 -64.0661 0)
(-564.978 -62.0739 0)
(-548.594 -60.0411 0)
(-532.789 -57.9346 0)
(-517.536 -55.7302 0)
(-502.784 -53.4203 0)
(-488.472 -51.0174 0)
(-474.542 -48.5525 0)
(-460.948 -46.0682 0)
(-447.663 -43.61 0)
(-434.666 -41.2202 0)
(-421.948 -38.9371 0)
(-409.506 -36.7948 0)
(-397.345 -34.8222 0)
(-385.47 -33.0416 0)
(-373.885 -31.4714 0)
(-362.606 -30.1304 0)
(-351.667 -29.0326 0)
(-341.125 -28.174 0)
(-331.032 -27.5212 0)
(-321.42 -27.018 0)
(-312.285 -26.6046 0)
(-303.588 -26.2349 0)
(-295.267 -25.877 0)
(-287.249 -25.5133 0)
(-279.469 -25.1468 0)
(-271.896 -24.8026 0)
(-264.528 -24.5178 0)
(-257.38 -24.3277 0)
(-250.482 -24.2528 0)
(-243.86 -24.2826 0)
(-237.525 -24.3751 0)
(-231.481 -24.4866 0)
(-225.722 -24.5924 0)
(-220.216 -24.6881 0)
(-214.91 -24.7843 0)
(-209.767 -24.8931 0)
(-204.79 -25.0118 0)
(-200.009 -25.1178 0)
(-195.454 -25.1821 0)
(-191.137 -25.1859 0)
(-187.043 -25.1109 0)
(-183.118 -24.9345 0)
(-179.26 -24.6346 0)
(-175.333 -24.2078 0)
(-171.225 -23.6897 0)
(-166.882 -23.1566 0)
(-162.364 -22.6814 0)
(-157.871 -22.2739 0)
(-153.689 -21.8687 0)
(-150.056 -21.3791 0)
(-147.034 -20.7451 0)
(-144.514 -19.9534 0)
(-142.314 -19.0255 0)
(-140.241 -18.0157 0)
(-138.16 -16.9824 0)
(-136.034 -15.9672 0)
(-133.812 -15.0084 0)
(-131.379 -14.1273 0)
(-128.716 -13.2954 0)
(-125.93 -12.4556 0)
(-123.075 -11.5959 0)
(-120.052 -10.7553 0)
(-116.75 -9.98682 0)
(-113.137 -9.38604 0)
(-109.262 -9.11124 0)
(-105.285 -9.39735 0)
(-101.155 -10.5252 0)
(-96.478 -12.6982 0)
(-92.3484 -16.0025 0)
(-1861.53 -502.636 0)
(-92.8129 -1019.23 0)
(-829.506 -901.449 0)
(-835.66 -788.802 0)
(-860.499 -641.55 0)
(-895.761 -528.298 0)
(-914.773 -435.384 0)
(-926.167 -361.515 0)
(-931.549 -304.539 0)
(-932.214 -261.484 0)
(-928.791 -229.497 0)
(-921.716 -206.093 0)
(-911.377 -189.164 0)
(-898.188 -176.982 0)
(-882.591 -168.173 0)
(-865.042 -161.686 0)
(-845.985 -156.74 0)
(-825.831 -152.768 0)
(-804.947 -149.368 0)
(-783.651 -146.264 0)
(-762.206 -143.273 0)
(-740.821 -140.279 0)
(-719.653 -137.216 0)
(-698.81 -134.053 0)
(-678.363 -130.782 0)
(-658.352 -127.411 0)
(-638.796 -123.956 0)
(-619.702 -120.439 0)
(-601.07 -116.879 0)
(-582.896 -113.295 0)
(-565.177 -109.701 0)
(-547.912 -106.106 0)
(-531.103 -102.513 0)
(-514.756 -98.9205 0)
(-498.878 -95.3251 0)
(-483.471 -91.7274 0)
(-468.538 -88.1352 0)
(-454.079 -84.5656 0)
(-440.092 -81.0437 0)
(-426.579 -77.5984 0)
(-413.537 -74.2597 0)
(-400.963 -71.0559 0)
(-388.852 -68.012 0)
(-377.201 -65.147 0)
(-366.004 -62.4747 0)
(-355.256 -60.005 0)
(-344.946 -57.7453 0)
(-335.066 -55.6979 0)
(-325.605 -53.8549 0)
(-316.548 -52.1951 0)
(-307.863 -50.6868 0)
(-299.508 -49.2951 0)
(-291.439 -47.9878 0)
(-283.622 -46.7402 0)
(-276.031 -45.5406 0)
(-268.652 -44.394 0)
(-261.484 -43.3175 0)
(-254.537 -42.3299 0)
(-247.832 -41.4472 0)
(-241.38 -40.679 0)
(-235.164 -40.0249 0)
(-229.16 -39.4768 0)
(-223.356 -39.0233 0)
(-217.754 -38.6493 0)
(-212.35 -38.3389 0)
(-207.131 -38.0806 0)
(-202.09 -37.8692 0)
(-197.236 -37.7003 0)
(-192.588 -37.563 0)
(-188.162 -37.438 0)
(-183.958 -37.2976 0)
(-179.964 -37.107 0)
(-176.149 -36.8286 0)
(-172.456 -36.4319 0)
(-168.814 -35.9064 0)
(-165.162 -35.2693 0)
(-161.464 -34.5641 0)
(-157.716 -33.8477 0)
(-153.962 -33.1635 0)
(-150.302 -32.5122 0)
(-146.86 -31.8444 0)
(-143.737 -31.0848 0)
(-140.987 -30.1728 0)
(-138.609 -29.0839 0)
(-136.568 -27.8325 0)
(-134.8 -26.4685 0)
(-133.228 -25.0531 0)
(-131.758 -23.6353 0)
(-130.267 -22.2687 0)
(-128.648 -21.009 0)
(-126.849 -19.877 0)
(-124.849 -18.8536 0)
(-122.632 -17.9175 0)
(-120.221 -17.0846 0)
(-117.651 -16.4035 0)
(-114.934 -15.9601 0)
(-112.055 -15.8521 0)
(-108.906 -16.1733 0)
(-105.125 -17.0942 0)
(-101.293 -18.8084 0)
(624.853 218.552 0)
(623.034 72.3835 0)
(-250.054 -526.143 0)
(-515.752 -628.354 0)
(-559.315 -509.088 0)
(-641.124 -432.933 0)
(-698.503 -362.09 0)
(-753.462 -303.407 0)
(-795.712 -260.921 0)
(-826.486 -232.612 0)
(-846.975 -215.094 0)
(-858.261 -205.056 0)
(-861.63 -199.884 0)
(-858.435 -197.706 0)
(-849.977 -197.161 0)
(-837.435 -197.314 0)
(-821.812 -197.557 0)
(-803.947 -197.519 0)
(-784.526 -196.993 0)
(-764.103 -195.877 0)
(-743.115 -194.143 0)
(-721.897 -191.797 0)
(-700.699 -188.875 0)
(-679.696 -185.422 0)
(-659.011 -181.491 0)
(-638.721 -177.14 0)
(-618.876 -172.43 0)
(-599.502 -167.424 0)
(-580.616 -162.185 0)
(-562.225 -156.78 0)
(-544.331 -151.271 0)
(-526.936 -145.721 0)
(-510.038 -140.187 0)
(-493.64 -134.72 0)
(-477.746 -129.365 0)
(-462.362 -124.16 0)
(-447.5 -119.137 0)
(-433.173 -114.322 0)
(-419.393 -109.736 0)
(-406.168 -105.389 0)
(-393.503 -101.29 0)
(-381.392 -97.439 0)
(-369.824 -93.8302 0)
(-358.782 -90.4515 0)
(-348.246 -87.2851 0)
(-338.198 -84.3096 0)
(-328.612 -81.5011 0)
(-319.461 -78.8345 0)
(-310.711 -76.2846 0)
(-302.322 -73.827 0)
(-294.259 -71.4403 0)
(-286.482 -69.1102 0)
(-278.955 -66.8326 0)
(-271.644 -64.6113 0)
(-264.539 -62.4567 0)
(-257.641 -60.3819 0)
(-250.957 -58.4008 0)
(-244.491 -56.5259 0)
(-238.246 -54.7646 0)
(-232.222 -53.1157 0)
(-226.411 -51.5742 0)
(-220.804 -50.138 0)
(-215.392 -48.8096 0)
(-210.165 -47.5906 0)
(-205.104 -46.4794 0)
(-200.193 -45.4724 0)
(-195.424 -44.5645 0)
(-190.802 -43.7478 0)
(-186.344 -43.011 0)
(-182.066 -42.3401 0)
(-177.972 -41.7169 0)
(-174.051 -41.1178 0)
(-170.277 -40.515 0)
(-166.613 -39.8811 0)
(-163.025 -39.1956 0)
(-159.489 -38.4493 0)
(-155.997 -37.6469 0)
(-152.545 -36.8074 0)
(-149.137 -35.9571 0)
(-145.783 -35.1155 0)
(-142.513 -34.2856 0)
(-139.361 -33.4529 0)
(-136.366 -32.5937 0)
(-133.565 -31.6843 0)
(-130.989 -30.7072 0)
(-128.66 -29.6574 0)
(-126.58 -28.5454 0)
(-124.721 -27.3949 0)
(-123.029 -26.2442 0)
(-121.434 -25.1471 0)
(-119.873 -24.1608 0)
(-118.289 -23.3351 0)
(-116.651 -22.7204 0)
(-114.977 -22.3758 0)
(-113.307 -22.3748 0)
(-111.638 -22.819 0)
(-109.878 -23.8291 0)
(-107.826 -25.5166 0)
(-104.998 -27.9535 0)
(-101.814 -31.0943 0)
(904.625 157.249 0)
(881.122 340.342 0)
(638.219 453.238 0)
(386.675 511.028 0)
(-22.164 230.05 0)
(-384.8 -217.11 0)
(-437.584 -120.307 0)
(-576.391 -99.6202 0)
(-684.617 -104.542 0)
(-758.833 -118.818 0)
(-806.968 -137.366 0)
(-833.772 -159.159 0)
(-845.38 -180.19 0)
(-846.182 -198.779 0)
(-839.119 -214.257 0)
(-826.419 -226.477 0)
(-809.779 -235.584 0)
(-790.484 -241.864 0)
(-769.497 -245.656 0)
(-747.531 -247.306 0)
(-725.105 -247.136 0)
(-702.589 -245.435 0)
(-680.239 -242.455 0)
(-658.227 -238.411 0)
(-636.666 -233.492 0)
(-615.628 -227.86 0)
(-595.159 -221.663 0)
(-575.29 -215.036 0)
(-556.039 -208.1 0)
(-537.416 -200.968 0)
(-519.425 -193.739 0)
(-502.062 -186.505 0)
(-485.323 -179.342 0)
(-469.199 -172.32 0)
(-453.685 -165.497 0)
(-438.773 -158.923 0)
(-424.456 -152.637 0)
(-410.729 -146.666 0)
(-397.584 -141.026 0)
(-385.013 -135.723 0)
(-373.006 -130.753 0)
(-361.548 -126.103 0)
(-350.62 -121.755 0)
(-340.196 -117.684 0)
(-330.252 -113.86 0)
(-320.766 -110.247 0)
(-311.71 -106.813 0)
(-303.056 -103.525 0)
(-294.775 -100.353 0)
(-286.835 -97.2744 0)
(-279.203 -94.2706 0)
(-271.851 -91.3319 0)
(-264.756 -88.456 0)
(-257.897 -85.6478 0)
(-251.255 -82.9177 0)
(-244.82 -80.276 0)
(-238.587 -77.7296 0)
(-232.558 -75.2834 0)
(-226.728 -72.9398 0)
(-221.086 -70.6964 0)
(-215.622 -68.5486 0)
(-210.336 -66.4931 0)
(-205.232 -64.5298 0)
(-200.303 -62.6606 0)
(-195.536 -60.8867 0)
(-190.916 -59.208 0)
(-186.434 -57.6217 0)
(-182.091 -56.1229 0)
(-177.904 -54.7053 0)
(-173.89 -53.3632 0)
(-170.047 -52.0898 0)
(-166.362 -50.8755 0)
(-162.814 -49.7081 0)
(-159.375 -48.5739 0)
(-156.015 -47.4586 0)
(-152.719 -46.3477 0)
(-149.487 -45.2304 0)
(-146.327 -44.104 0)
(-143.236 -42.9751 0)
(-140.213 -41.8548 0)
(-137.258 -40.7546 0)
(-134.378 -39.685 0)
(-131.581 -38.6541 0)
(-128.878 -37.6665 0)
(-126.282 -36.7237 0)
(-123.81 -35.8242 0)
(-121.477 -34.9672 0)
(-119.286 -34.1579 0)
(-117.218 -33.4103 0)
(-115.246 -32.7464 0)
(-113.336 -32.1951 0)
(-111.456 -31.792 0)
(-109.591 -31.5834 0)
(-107.76 -31.6301 0)
(-106.009 -32.0147 0)
(-104.363 -32.855 0)
(-102.749 -34.3056 0)
(-100.941 -36.5281 0)
(-98.353 -39.6354 0)
(-95.406 -43.6143 0)
(1337.1 147.538 0)
(1390.22 756.311 0)
(1022.58 1143.44 0)
(453.752 1393.63 0)
(-70.5268 1325.3 0)
(-410.231 835.621 0)
(-538.339 549.602 0)
(-704.797 347.452 0)
(-806.298 191.629 0)
(-864.271 69.1122 0)
(-894.08 -27.6144 0)
(-904.74 -103.488 0)
(-899.007 -163.049 0)
(-884.411 -208.741 0)
(-864.059 -242.968 0)
(-840.085 -267.883 0)
(-814.033 -285.308 0)
(-786.982 -296.744 0)
(-759.676 -303.419 0)
(-732.61 -306.322 0)
(-706.104 -306.245 0)
(-680.349 -303.819 0)
(-655.452 -299.546 0)
(-631.461 -293.825 0)
(-608.393 -286.981 0)
(-586.248 -279.281 0)
(-565.019 -270.956 0)
(-544.692 -262.201 0)
(-525.246 -253.187 0)
(-506.651 -244.061 0)
(-488.875 -234.943 0)
(-471.883 -225.932 0)
(-455.642 -217.109 0)
(-440.123 -208.536 0)
(-425.299 -200.258 0)
(-411.145 -192.311 0)
(-397.639 -184.717 0)
(-384.757 -177.488 0)
(-372.479 -170.631 0)
(-360.785 -164.143 0)
(-349.652 -158.019 0)
(-339.059 -152.245 0)
(-328.982 -146.808 0)
(-319.379 -141.69 0)
(-310.213 -136.865 0)
(-301.457 -132.302 0)
(-293.087 -127.967 0)
(-285.073 -123.832 0)
(-277.383 -119.871 0)
(-269.994 -116.061 0)
(-262.884 -112.381 0)
(-256.031 -108.82 0)
(-249.417 -105.368 0)
(-243.026 -102.022 0)
(-236.847 -98.782 0)
(-230.869 -95.649 0)
(-225.084 -92.625 0)
(-219.489 -89.7119 0)
(-214.074 -86.9094 0)
(-208.827 -84.2141 0)
(-203.743 -81.6232 0)
(-198.826 -79.1368 0)
(-194.087 -76.7571 0)
(-189.52 -74.4873 0)
(-185.109 -72.3293 0)
(-180.833 -70.2824 0)
(-176.679 -68.3417 0)
(-172.648 -66.4985 0)
(-168.759 -64.7436 0)
(-165.032 -63.0719 0)
(-161.469 -61.4818 0)
(-158.061 -59.9706 0)
(-154.787 -58.533 0)
(-151.62 -57.1622 0)
(-148.532 -55.8486 0)
(-145.504 -54.5794 0)
(-142.544 -53.3389 0)
(-139.667 -52.1123 0)
(-136.877 -50.8935 0)
(-134.164 -49.6862 0)
(-131.521 -48.4982 0)
(-128.942 -47.3404 0)
(-126.427 -46.2248 0)
(-123.971 -45.163 0)
(-121.57 -44.1641 0)
(-119.226 -43.2332 0)
(-116.946 -42.3725 0)
(-114.736 -41.5874 0)
(-112.578 -40.8871 0)
(-110.447 -40.2807 0)
(-108.315 -39.7778 0)
(-106.161 -39.3916 0)
(-103.976 -39.1426 0)
(-101.794 -39.0675 0)
(-99.6886 -39.2289 0)
(-97.7222 -39.7246 0)
(-95.8422 -40.6976 0)
(-93.7979 -42.3373 0)
(-90.9231 -44.862 0)
(-87.3058 -48.4987 0)
(2120.25 -1205.29 0)
(2422.09 1267.3 0)
(-287.6 3182.42 0)
(-969.203 2606.75 0)
(-1115.48 1910.91 0)
(-1204.46 1277.69 0)
(-1225.08 844.877 0)
(-1239.61 534.649 0)
(-1212.67 300.1 0)
(-1170.11 113.36 0)
(-1122.83 -37.9283 0)
(-1067.04 -148.716 0)
(-1013.73 -228.891 0)
(-962.245 -286.117 0)
(-913.168 -326.033 0)
(-866.946 -352.85 0)
(-823.719 -369.737 0)
(-783.468 -379.099 0)
(-746.077 -382.774 0)
(-711.368 -382.17 0)
(-679.128 -378.365 0)
(-649.13 -372.18 0)
(-621.151 -364.237 0)
(-594.988 -355.013 0)
(-570.467 -344.872 0)
(-547.443 -334.101 0)
(-525.801 -322.932 0)
(-505.439 -311.554 0)
(-486.262 -300.125 0)
(-468.181 -288.777 0)
(-451.11 -277.617 0)
(-434.966 -266.734 0)
(-419.678 -256.194 0)
(-405.18 -246.044 0)
(-391.414 -236.314 0)
(-378.33 -227.02 0)
(-365.886 -218.163 0)
(-354.048 -209.738 0)
(-342.79 -201.732 0)
(-332.09 -194.128 0)
(-321.927 -186.91 0)
(-312.282 -180.061 0)
(-303.136 -173.565 0)
(-294.448 -167.407 0)
(-286.162 -161.57 0)
(-278.24 -156.031 0)
(-270.661 -150.757 0)
(-263.407 -145.72 0)
(-256.447 -140.899 0)
(-249.754 -136.276 0)
(-243.308 -131.834 0)
(-237.097 -127.56 0)
(-231.107 -123.444 0)
(-225.323 -119.478 0)
(-219.731 -115.657 0)
(-214.32 -111.977 0)
(-209.086 -108.44 0)
(-204.026 -105.042 0)
(-199.127 -101.778 0)
(-194.375 -98.6426 0)
(-189.768 -95.6305 0)
(-185.319 -92.742 0)
(-181.038 -89.9806 0)
(-176.921 -87.3493 0)
(-172.951 -84.8487 0)
(-169.107 -82.4771 0)
(-165.366 -80.2305 0)
(-161.724 -78.1015 0)
(-158.209 -76.08 0)
(-154.853 -74.1569 0)
(-151.661 -72.3293 0)
(-148.617 -70.5981 0)
(-145.704 -68.9625 0)
(-142.896 -67.4198 0)
(-140.166 -65.9651 0)
(-137.488 -64.5894 0)
(-134.855 -63.2771 0)
(-132.285 -62.0076 0)
(-129.799 -60.7662 0)
(-127.396 -59.5494 0)
(-125.063 -58.3602 0)
(-122.792 -57.2061 0)
(-120.574 -56.0987 0)
(-118.398 -55.0495 0)
(-116.246 -54.0685 0)
(-114.108 -53.1617 0)
(-111.987 -52.33 0)
(-109.885 -51.5704 0)
(-107.775 -50.8804 0)
(-105.609 -50.2576 0)
(-103.352 -49.6946 0)
(-100.978 -49.1792 0)
(-98.4794 -48.6962 0)
(-95.8803 -48.2341 0)
(-93.2235 -47.7972 0)
(-90.5151 -47.4113 0)
(-87.6696 -47.1486 0)
(-84.443 -47.168 0)
(-80.2167 -47.7488 0)
(-74.6192 -49.3594 0)
(-10364.5 -2330.13 0)
(-282.277 7518.1 0)
(-4033.03 5002.83 0)
(-3292.55 3558.13 0)
(-2864.99 2398.99 0)
(-2485.74 1535.04 0)
(-2173.95 891.341 0)
(-1924.84 396.571 0)
(-1707.39 51.5496 0)
(-1518.81 -163.782 0)
(-1358.55 -295.533 0)
(-1227.22 -381.623 0)
(-1116.33 -437.083 0)
(-1021.81 -471.38 0)
(-940.769 -490.812 0)
(-870.845 -499.658 0)
(-810.116 -500.908 0)
(-757.042 -496.709 0)
(-710.376 -488.632 0)
(-669.096 -477.842 0)
(-632.35 -465.209 0)
(-599.419 -451.378 0)
(-569.697 -436.811 0)
(-542.682 -421.851 0)
(-517.964 -406.742 0)
(-495.22 -391.662 0)
(-474.199 -376.743 0)
(-454.701 -362.082 0)
(-436.566 -347.755 0)
(-419.659 -333.825 0)
(-403.865 -320.348 0)
(-389.079 -307.365 0)
(-375.208 -294.91 0)
(-362.163 -283.003 0)
(-349.861 -271.652 0)
(-338.223 -260.856 0)
(-327.186 -250.602 0)
(-316.7 -240.872 0)
(-306.731 -231.639 0)
(-297.257 -222.877 0)
(-288.259 -214.553 0)
(-279.732 -206.642 0)
(-271.672 -199.122 0)
(-264.047 -191.973 0)
(-256.8 -185.178 0)
(-249.873 -178.719 0)
(-243.235 -172.566 0)
(-236.877 -166.691 0)
(-230.785 -161.067 0)
(-224.938 -155.676 0)
(-219.315 -150.506 0)
(-213.902 -145.545 0)
(-208.687 -140.786 0)
(-203.655 -136.218 0)
(-198.798 -131.835 0)
(-194.113 -127.636 0)
(-189.589 -123.619 0)
(-185.207 -119.778 0)
(-180.953 -116.1 0)
(-176.817 -112.578 0)
(-172.81 -109.209 0)
(-168.953 -105.993 0)
(-165.259 -102.931 0)
(-161.716 -100.022 0)
(-158.304 -97.2635 0)
(-155.003 -94.6514 0)
(-151.793 -92.1799 0)
(-148.661 -89.8425 0)
(-145.62 -87.6294 0)
(-142.703 -85.5269 0)
(-139.93 -83.5262 0)
(-137.295 -81.626 0)
(-134.777 -79.8261 0)
(-132.358 -78.1253 0)
(-130.008 -76.5212 0)
(-127.696 -75.0092 0)
(-125.407 -73.5805 0)
(-123.154 -72.2208 0)
(-120.961 -70.9125 0)
(-118.829 -69.643 0)
(-116.741 -68.4094 0)
(-114.689 -67.2137 0)
(-112.67 -66.0601 0)
(-110.671 -64.9535 0)
(-108.678 -63.8969 0)
(-106.672 -62.889 0)
(-104.648 -61.9214 0)
(-102.601 -60.9777 0)
(-100.51 -60.0395 0)
(-98.3204 -59.0881 0)
(-95.9698 -58.1029 0)
(-93.4042 -57.0625 0)
(-90.5862 -55.9397 0)
(-87.513 -54.7004 0)
(-84.1913 -53.3069 0)
(-80.5793 -51.7356 0)
(-76.5665 -50.0022 0)
(-71.9301 -48.1922 0)
(-66.1745 -46.532 0)
(-58.7391 -45.5177 0)
(-46397.4 8487.27 0)
(-653.533 1019.09 0)
(-9825.22 16.4882 0)
(-6432.59 -576.273 0)
(-5050.78 -858.888 0)
(-3913.73 -972.299 0)
(-3088.51 -1000.64 0)
(-2475.57 -962.758 0)
(-2026.56 -911.96 0)
(-1696.45 -873.397 0)
(-1447.32 -840.485 0)
(-1254.92 -810.065 0)
(-1103.75 -780.235 0)
(-982.978 -750.653 0)
(-885.05 -721.36 0)
(-804.478 -692.499 0)
(-737.253 -664.215 0)
(-680.447 -636.627 0)
(-631.918 -609.827 0)
(-590.079 -583.897 0)
(-553.716 -558.904 0)
(-521.864 -534.888 0)
(-493.74 -511.835 0)
(-468.687 -489.735 0)
(-446.165 -468.57 0)
(-425.738 -448.327 0)
(-407.06 -428.985 0)
(-389.866 -410.525 0)
(-373.958 -392.924 0)
(-359.192 -376.163 0)
(-345.458 -360.217 0)
(-332.666 -345.063 0)
(-320.736 -330.671 0)
(-309.591 -317.007 0)
(-299.15 -304.038 0)
(-289.332 -291.733 0)
(-280.06 -280.066 0)
(-271.27 -269.007 0)
(-262.911 -258.527 0)
(-254.945 -248.593 0)
(-247.357 -239.17 0)
(-240.154 -230.233 0)
(-233.348 -221.751 0)
(-226.925 -213.693 0)
(-220.84 -206.029 0)
(-215.04 -198.734 0)
(-209.481 -191.783 0)
(-204.152 -185.148 0)
(-199.049 -178.8 0)
(-194.165 -172.715 0)
(-189.494 -166.873 0)
(-185.027 -161.265 0)
(-180.741 -155.886 0)
(-176.619 -150.733 0)
(-172.66 -145.808 0)
(-168.864 -141.107 0)
(-165.208 -136.623 0)
(-161.66 -132.349 0)
(-158.203 -128.275 0)
(-154.843 -124.394 0)
(-151.599 -120.705 0)
(-148.486 -117.207 0)
(-145.499 -113.895 0)
(-142.628 -110.758 0)
(-139.862 -107.789 0)
(-137.185 -104.976 0)
(-134.579 -102.31 0)
(-132.032 -99.784 0)
(-129.544 -97.3942 0)
(-127.138 -95.1325 0)
(-124.833 -92.986 0)
(-122.621 -90.9457 0)
(-120.488 -89.0071 0)
(-118.423 -87.1666 0)
(-116.411 -85.4197 0)
(-114.431 -83.7622 0)
(-112.469 -82.1881 0)
(-110.522 -80.6863 0)
(-108.6 -79.2375 0)
(-106.708 -77.8227 0)
(-104.831 -76.4301 0)
(-102.95 -75.0526 0)
(-101.057 -73.6849 0)
(-99.1408 -72.3199 0)
(-97.179 -70.949 0)
(-95.1478 -69.5616 0)
(-93.0316 -68.1443 0)
(-90.8258 -66.6804 0)
(-88.5043 -65.1548 0)
(-86.0123 -63.5632 0)
(-83.3039 -61.9042 0)
(-80.3484 -60.1709 0)
(-77.1106 -58.3534 0)
(-73.5737 -56.4285 0)
(-69.7441 -54.341 0)
(-65.6047 -51.9946 0)
(-61.0561 -49.2737 0)
(-55.8958 -46.093 0)
(-49.7396 -42.5135 0)
(-41.9384 -38.9589 0)
(-30074 -8347.54 0)
(2575.61 -6497.05 0)
(-4946.25 -5044.07 0)
(-3477.75 -4391.01 0)
(-2847.59 -3533.2 0)
(-2322.99 -2809.3 0)
(-1934.57 -2317.32 0)
(-1641.56 -1957.59 0)
(-1409.09 -1686.2 0)
(-1222.15 -1477.97 0)
(-1071.1 -1316.5 0)
(-946.629 -1190.67 0)
(-844.569 -1088.16 0)
(-759.943 -1002.52 0)
(-689.516 -929.46 0)
(-630.462 -866.11 0)
(-580.412 -810.463 0)
(-537.481 -761.068 0)
(-500.251 -716.824 0)
(-467.7 -676.874 0)
(-439.088 -640.561 0)
(-413.828 -607.371 0)
(-391.496 -576.73 0)
(-371.669 -548.236 0)
(-353.972 -521.588 0)
(-338.055 -496.577 0)
(-323.606 -473.064 0)
(-310.361 -450.954 0)
(-298.107 -430.18 0)
(-286.689 -410.682 0)
(-275.999 -392.394 0)
(-265.962 -375.238 0)
(-256.532 -359.118 0)
(-247.684 -343.936 0)
(-239.395 -329.596 0)
(-231.633 -316.014 0)
(-224.349 -303.125 0)
(-217.483 -290.88 0)
(-210.969 -279.244 0)
(-204.761 -268.192 0)
(-198.841 -257.714 0)
(-193.207 -247.796 0)
(-187.855 -238.415 0)
(-182.77 -229.534 0)
(-177.932 -221.113 0)
(-173.315 -213.117 0)
(-168.891 -205.514 0)
(-164.651 -198.274 0)
(-160.598 -191.362 0)
(-156.727 -184.745 0)
(-153.041 -178.394 0)
(-149.553 -172.287 0)
(-146.262 -166.411 0)
(-143.152 -160.764 0)
(-140.203 -155.35 0)
(-137.391 -150.17 0)
(-134.686 -145.22 0)
(-132.063 -140.499 0)
(-129.504 -136.01 0)
(-127.019 -131.753 0)
(-124.631 -127.727 0)
(-122.346 -123.923 0)
(-120.15 -120.333 0)
(-118.027 -116.948 0)
(-115.969 -113.756 0)
(-113.969 -110.746 0)
(-112.024 -107.904 0)
(-110.137 -105.224 0)
(-108.298 -102.701 0)
(-106.488 -100.328 0)
(-104.694 -98.0926 0)
(-102.91 -95.9789 0)
(-101.134 -93.9706 0)
(-99.3648 -92.0465 0)
(-97.6057 -90.1819 0)
(-95.8626 -88.3512 0)
(-94.1381 -86.5316 0)
(-92.4322 -84.7059 0)
(-90.7471 -82.8646 0)
(-89.0716 -81.0039 0)
(-87.3744 -79.1269 0)
(-85.628 -77.2407 0)
(-83.815 -75.3525 0)
(-81.9153 -73.4681 0)
(-79.9034 -71.5926 0)
(-77.7529 -69.7296 0)
(-75.4413 -67.8782 0)
(-72.9625 -66.0247 0)
(-70.3333 -64.1342 0)
(-67.5636 -62.1584 0)
(-64.6518 -60.0495 0)
(-61.6122 -57.749 0)
(-58.388 -55.2045 0)
(-54.9277 -52.4432 0)
(-51.1942 -49.5374 0)
(-47.1037 -46.5463 0)
(-42.6153 -43.5053 0)
(-37.785 -40.3286 0)
(-32.5966 -36.7815 0)
(-26.23 -32.7949 0)
(3719.49 1788.7 0)
(3457.05 -1326.83 0)
(1625.31 -3280.13 0)
(507.102 -4057.73 0)
(-66.5694 -3640.14 0)
(-349.626 -2965.43 0)
(-480.276 -2531.13 0)
(-538.512 -2187.64 0)
(-551.259 -1906.64 0)
(-543.122 -1677.94 0)
(-526.909 -1492.46 0)
(-500.765 -1348.67 0)
(-473.157 -1229.27 0)
(-444.596 -1128.04 0)
(-417.354 -1040.67 0)
(-392.499 -964.236 0)
(-370.203 -896.742 0)
(-350.14 -836.807 0)
(-331.832 -783.376 0)
(-314.893 -735.559 0)
(-299.114 -692.62 0)
(-284.325 -654.113 0)
(-270.697 -619.077 0)
(-258.253 -586.861 0)
(-247.003 -556.955 0)
(-236.887 -528.999 0)
(-227.79 -502.763 0)
(-219.549 -478.118 0)
(-211.979 -455 0)
(-204.896 -433.377 0)
(-198.143 -413.21 0)
(-191.613 -394.437 0)
(-185.261 -376.962 0)
(-179.106 -360.659 0)
(-173.198 -345.377 0)
(-167.584 -330.968 0)
(-162.289 -317.302 0)
(-157.309 -304.282 0)
(-152.629 -291.847 0)
(-148.238 -279.976 0)
(-144.111 -268.667 0)
(-140.198 -257.922 0)
(-136.449 -247.739 0)
(-132.832 -238.109 0)
(-129.329 -229.008 0)
(-125.936 -220.404 0)
(-122.655 -212.264 0)
(-119.489 -204.551 0)
(-116.442 -197.224 0)
(-113.521 -190.244 0)
(-110.75 -183.576 0)
(-108.151 -177.182 0)
(-105.73 -171.028 0)
(-103.489 -165.09 0)
(-101.425 -159.352 0)
(-99.5074 -153.807 0)
(-97.6997 -148.459 0)
(-95.974 -143.313 0)
(-94.3147 -138.385 0)
(-92.7157 -133.688 0)
(-91.1746 -129.226 0)
(-89.6889 -124.997 0)
(-88.2549 -120.994 0)
(-86.8682 -117.212 0)
(-85.5229 -113.643 0)
(-84.2151 -110.278 0)
(-82.9491 -107.105 0)
(-81.7296 -104.11 0)
(-80.541 -101.282 0)
(-79.3486 -98.6121 0)
(-78.1168 -96.0992 0)
(-76.8132 -93.7406 0)
(-75.4064 -91.529 0)
(-73.8726 -89.4508 0)
(-72.2117 -87.4837 0)
(-70.4664 -85.6016 0)
(-68.7136 -83.7626 0)
(-67.0213 -81.8914 0)
(-65.4148 -79.916 0)
(-63.8703 -77.813 0)
(-62.3373 -75.6096 0)
(-60.7829 -73.343 0)
(-59.1892 -71.0356 0)
(-57.5439 -68.6975 0)
(-55.832 -66.3315 0)
(-54.0285 -63.9352 0)
(-52.0863 -61.5081 0)
(-49.9123 -59.0773 0)
(-47.3805 -56.7119 0)
(-44.4328 -54.502 0)
(-41.1775 -52.5291 0)
(-38.0499 -50.7978 0)
(-35.1381 -48.868 0)
(-32.3623 -46.4191 0)
(-29.8457 -43.6374 0)
(-27.5546 -40.6152 0)
(-25.171 -37.3708 0)
(-22.3404 -33.9986 0)
(-18.9491 -30.8014 0)
(-13.6656 -28.1565 0)
(2388.74 -702.064 0)
(2646 -1540.34 0)
(2244.32 -1915.49 0)
(1707.69 -2080.79 0)
(1210.54 -2143.1 0)
(815.417 -2118.18 0)
(519.108 -2019.49 0)
(298.375 -1875.37 0)
(144.294 -1717.47 0)
(39.9962 -1566.74 0)
(-36.6483 -1424.71 0)
(-81.8157 -1315.44 0)
(-112.67 -1217.74 0)
(-130.718 -1130.25 0)
(-140.557 -1051.62 0)
(-145.829 -980.547 0)
(-148.824 -915.968 0)
(-150.619 -857.166 0)
(-151.476 -803.67 0)
(-151.289 -755.039 0)
(-149.988 -710.73 0)
(-147.259 -671.188 0)
(-143.683 -635.269 0)
(-139.604 -602.317 0)
(-135.402 -571.771 0)
(-131.377 -543.196 0)
(-127.728 -516.287 0)
(-124.525 -490.863 0)
(-121.715 -466.844 0)
(-119.15 -444.222 0)
(-116.651 -423.022 0)
(-114.055 -403.261 0)
(-111.257 -384.917 0)
(-108.227 -367.91 0)
(-105.008 -352.101 0)
(-101.694 -337.315 0)
(-98.3915 -323.369 0)
(-95.1989 -310.106 0)
(-92.1981 -297.414 0)
(-89.4367 -285.227 0)
(-86.9044 -273.513 0)
(-84.5521 -262.274 0)
(-82.3235 -251.535 0)
(-80.1657 -241.324 0)
(-78.0368 -231.658 0)
(-75.9142 -222.534 0)
(-73.7951 -213.93 0)
(-71.6916 -205.806 0)
(-69.6242 -198.119 0)
(-67.6172 -190.822 0)
(-65.6934 -183.873 0)
(-63.8702 -177.228 0)
(-62.1651 -170.848 0)
(-60.5943 -164.699 0)
(-59.1588 -158.75 0)
(-57.8455 -152.976 0)
(-56.6368 -147.367 0)
(-55.5151 -141.923 0)
(-54.4644 -136.659 0)
(-53.4733 -131.591 0)
(-52.5302 -126.73 0)
(-51.6239 -122.083 0)
(-50.7458 -117.653 0)
(-49.8912 -113.437 0)
(-49.0583 -109.43 0)
(-48.2479 -105.625 0)
(-47.4637 -102.013 0)
(-46.7091 -98.5777 0)
(-45.9823 -95.3029 0)
(-45.2771 -92.178 0)
(-44.581 -89.2 0)
(-43.8694 -86.3689 0)
(-43.0965 -83.6863 0)
(-42.1866 -81.154 0)
(-41.0502 -78.7607 0)
(-39.6609 -76.5757 0)
(-38.0587 -74.7281 0)
(-36.3336 -73.1426 0)
(-34.6201 -71.5788 0)
(-33.0282 -69.8616 0)
(-31.5234 -67.992 0)
(-30.0579 -66.0402 0)
(-28.6177 -64.0497 0)
(-27.1945 -62.0301 0)
(-25.7852 -59.9737 0)
(-24.3915 -57.8601 0)
(-23.0544 -55.6344 0)
(-21.843 -53.2921 0)
(-20.7588 -50.8748 0)
(-19.7697 -48.3508 0)
(-18.6991 -45.7211 0)
(-17.4036 -43.2987 0)
(-15.7125 -41.2501 0)
(-13.6151 -39.1558 0)
(-11.6354 -37.0779 0)
(-10.0106 -34.9468 0)
(-8.775 -32.4854 0)
(-7.651 -29.6715 0)
(-6.19764 -27.0226 0)
(-3.63889 -25.7487 0)
(1978.84 -206.397 0)
(2160.78 -536.293 0)
(1842.68 -844.853 0)
(1522.36 -1082.38 0)
(1278.35 -1236.04 0)
(1062.07 -1320.86 0)
(858.321 -1357.61 0)
(680.493 -1359.08 0)
(536.665 -1334.41 0)
(421.872 -1291.12 0)
(328.257 -1235.96 0)
(251.136 -1174.66 0)
(188.312 -1111.41 0)
(139.38 -1049.38 0)
(102.5 -990.145 0)
(74.6269 -934.13 0)
(52.7111 -881.237 0)
(34.5435 -831.359 0)
(18.956 -784.553 0)
(5.61939 -740.881 0)
(-5.66365 -699.623 0)
(-14.1911 -662.704 0)
(-20.5174 -628.796 0)
(-24.9917 -597.442 0)
(-28.0541 -568.263 0)
(-30.1646 -540.911 0)
(-31.7459 -515.091 0)
(-33.1137 -490.591 0)
(-34.4483 -467.287 0)
(-35.7952 -445.143 0)
(-37.0857 -424.189 0)
(-38.182 -404.48 0)
(-38.9328 -386.06 0)
(-39.2241 -368.923 0)
(-39.0124 -353.002 0)
(-38.3331 -338.165 0)
(-37.2864 -324.243 0)
(-36.0114 -311.063 0)
(-34.6548 -298.476 0)
(-33.3363 -286.365 0)
(-32.1297 -274.662 0)
(-31.0621 -263.352 0)
(-30.1165 -252.456 0)
(-29.2466 -242.014 0)
(-28.3958 -232.065 0)
(-27.5137 -222.633 0)
(-26.5666 -213.721 0)
(-25.5424 -205.304 0)
(-24.4518 -197.341 0)
(-23.3221 -189.781 0)
(-22.1874 -182.571 0)
(-21.081 -175.663 0)
(-20.0345 -169.016 0)
(-19.0681 -162.598 0)
(-18.1745 -156.378 0)
(-17.33 -150.342 0)
(-16.5292 -144.483 0)
(-15.7819 -138.797 0)
(-15.0846 -133.291 0)
(-14.4232 -127.977 0)
(-13.7822 -122.867 0)
(-13.1449 -117.97 0)
(-12.4957 -113.291 0)
(-11.8214 -108.835 0)
(-11.1114 -104.604 0)
(-10.3581 -100.597 0)
(-9.55794 -96.8099 0)
(-8.71171 -93.2324 0)
(-7.82507 -89.8496 0)
(-6.91115 -86.6439 0)
(-5.99299 -83.5968 0)
(-5.10604 -80.6884 0)
(-4.30317 -77.8952 0)
(-3.58815 -75.1798 0)
(-3.25757 -72.3172 0)
(-3.31621 -69.4688 0)
(-3.14873 -67.1474 0)
(-2.51427 -65.4292 0)
(-1.78518 -63.7802 0)
(-1.36756 -61.7835 0)
(-1.02364 -59.586 0)
(-0.604657 -57.4362 0)
(-0.187135 -55.4161 0)
(0.217013 -53.5087 0)
(0.59573 -51.6849 0)
(0.983871 -49.9204 0)
(1.11466 -47.9657 0)
(1.00593 -45.9053 0)
(0.935062 -43.8738 0)
(0.790874 -41.7554 0)
(0.473537 -39.3707 0)
(0.142895 -36.6424 0)
(-0.0340415 -33.5758 0)
(0.320025 -30.9929 0)
(1.24504 -29.1678 0)
(2.46493 -27.6708 0)
(3.75616 -26.0984 0)
(5.05906 -24.1754 0)
(6.33183 -21.8915 0)
(7.13468 -19.4936 0)
(1586.9 -156.38 0)
(1726.96 -412.888 0)
(1544.4 -624.959 0)
(1381.66 -777.16 0)
(1260.27 -886.145 0)
(1134.16 -961.777 0)
(997.7 -1009.05 0)
(866.189 -1032.84 0)
(748.813 -1038.22 0)
(645.45 -1029.48 0)
(553.229 -1010.04 0)
(470.886 -983.023 0)
(399.002 -950.991 0)
(338.403 -916.043 0)
(288.754 -879.661 0)
(248.385 -842.745 0)
(214.992 -805.826 0)
(186.461 -769.286 0)
(161.348 -733.484 0)
(138.967 -698.777 0)
(119.225 -665.509 0)
(102.201 -633.961 0)
(87.8628 -604.244 0)
(76.0916 -576.333 0)
(66.5906 -550.094 0)
(58.9359 -525.337 0)
(52.6508 -501.854 0)
(47.2831 -479.465 0)
(42.4675 -458.043 0)
(37.9641 -437.528 0)
(33.6718 -417.921 0)
(29.6136 -399.268 0)
(25.8975 -381.626 0)
(22.6624 -365.03 0)
(20.0244 -349.474 0)
(18.0376 -334.897 0)
(16.6765 -321.194 0)
(15.8431 -308.235 0)
(15.3897 -295.886 0)
(15.1535 -284.031 0)
(14.9892 -272.587 0)
(14.7925 -261.51 0)