/*--------------------------------*- C++ -*----------------------------------*\
| =========                 |                                                 |
| \\      /  F ield         | OpenFOAM: The Open Source CFD Toolbox           |
|  \\    /   O peration     | Version:  2412                                  |
|   \\  /    A nd           | Website:  www.openfoam.com                      |
|    \\/     M anipulation  |                                                 |
\*---------------------------------------------------------------------------*/
FoamFile
{
    version     2.0;
    format      ascii;
    arch        "LSB;label=32;scalar=64";
    class       surfaceScalarField;
    location    "7";
    object      phi;
}
// * * * * * * * * * * * * * * * * * * * * * * * * * * * * * * * * * * * * * //

dimensions      [1 0 -1 0 0 0 0];

oriented        oriented;

internalField   nonuniform List<scalar> 
10325
(
0.00840003
9.42105e-11
0.00840003
7.29816e-10
0.00840003
2.24223e-09
0.00840002
6.76984e-09
0.0084
1.60403e-08
0.00839995
4.28612e-08
0.00839985
9.63508e-08
0.00839953
2.57513e-07
0.00839896
5.54969e-07
0.0083969
1.65791e-06
0.00839318
3.60241e-06
0.00837881
1.25872e-05
0.00834084
3.67147e-05
0.0081921
0.000141746
0.00750415
0.000666671
0.0068262
0.000680546
0.00618745
0.000640441
0.0055371
0.000650931
0.00486679
0.00067068
0.00416203
0.000705528
0.00341359
0.00074909
0.00262221
0.000792417
0.0017899
0.000832906
0.000916237
0.000873753
0.000917146
0.00840003
1.82937e-10
0.00840003
1.42111e-09
0.00840003
4.35343e-09
0.00840002
1.31712e-08
0.0084
3.11223e-08
0.00839995
8.37e-08
0.00839986
1.86561e-07
0.00839955
5.08286e-07
0.008399
1.08114e-06
0.00839697
3.30643e-06
0.00839334
7.09287e-06
0.00837881
2.53442e-05
0.00834183
7.24433e-05
0.00819011
0.000286447
0.00750085
0.00133416
0.00681677
0.00136761
0.0061894
0.00126974
0.00554801
0.00129298
0.00488298
0.00133615
0.00417412
0.00141521
0.00342006
0.00150383
0.00262189
0.00159164
0.00177884
0.00167656
0.000896497
0.00175615
0.00181458
0.00840003
2.57514e-10
0.00840003
1.99748e-09
0.00840003
6.14256e-09
0.00840002
1.85437e-08
0.00840001
4.37672e-08
0.00839996
1.18168e-07
0.00839988
2.5922e-07
0.00839961
7.27478e-07
0.00839916
1.50916e-06
0.00839742
4.70242e-06
0.00839435
9.98968e-06
0.00838128
3.68002e-05
0.00835331
9.87726e-05
0.00819901
0.000432293
0.00753591
0.00197469
0.00684706
0.00206018
0.00622571
0.0018933
0.00559355
0.00192592
0.00493465
0.00199549
0.00422794
0.0021228
0.0034718
0.00226069
0.00266643
0.00239811
0.00181203
0.00253159
0.000913904
0.00265437
0.00272937
0.00840003
3.27911e-10
0.00840003
2.54417e-09
0.00840003
7.78842e-09
0.00840002
2.3574e-08
0.00840001
5.55239e-08
0.00839997
1.50721e-07
0.00839989
3.3009e-07
0.00839963
9.33427e-07
0.00839918
1.93899e-06
0.00839744
6.09322e-06
0.00839427
1.29861e-05
0.00838145
4.79722e-05
0.0083494
0.000129118
0.00821794
0.000555342
0.00760973
0.00255865
0.00691841
0.0027564
0.00630516
0.00250937
0.00568273
0.00254919
0.00503347
0.00264526
0.00433458
0.00282258
0.00357945
0.00301658
0.00276776
0.00321091
0.00188923
0.00341091
0.000958731
0.00358494
0.00368899
0.00840003
3.68279e-10
0.00840003
2.85851e-09
0.00840003
8.78153e-09
0.00840002
2.65735e-08
0.00840002
6.2391e-08
0.00839999
1.7176e-07
0.00839995
3.62973e-07
0.00839972
1.10601e-06
0.00839952
2.11944e-06
0.00839773
7.53042e-06
0.00839523
1.5287e-05
0.00838347
5.80434e-05
0.00835433
0.000156412
0.00824533
0.000656175
0.00775816
0.00301968
0.00706049
0.00346036
0.00644151
0.00313153
0.00582588
0.00316591
0.00518729
0.00328467
0.00449529
0.00351575
0.00374163
0.00377113
0.00292139
0.00403235
0.00202428
0.00430882
0.00103926
0.00457011
0.00472912
0.00840003
4.04268e-10
0.00840003
3.1323e-09
0.00840003
9.63227e-09
0.00840002
2.91199e-08
0.00840002
6.82638e-08
0.00839999
1.89025e-07
0.00839996
3.91315e-07
0.00839977
1.24416e-06
0.00839965
2.22779e-06
0.00839812
8.69576e-06
0.00839637
1.69088e-05
0.0083875
6.51829e-05
0.00836661
0.000175291
0.00829798
0.000717109
0.00803696
0.00325207
0.00732459
0.00418031
0.00667224
0.00378792
0.00605258
0.003787
0.00542619
0.0039123
0.00474055
0.00420293
0.00398552
0.00452735
0.00314931
0.00486986
0.00221059
0.00524856
0.00115885
0.0056221
0.00588888
0.00840003
4.4137e-10
0.00840003
3.41743e-09
0.00840003
1.0479e-08
0.00840002
3.1696e-08
0.00840002
7.44474e-08
0.00839999
2.0445e-07
0.00839995
4.31715e-07
0.00839982
1.32255e-06
0.00839963
2.40378e-06
0.00839888
9.09071e-06
0.00839803
1.76114e-05
0.00839452
6.69662e-05
0.00838983
0.000177884
0.00838996
0.000709899
0.00851557
0.0030969
0.00778767
0.00491674
0.00704321
0.00453751
0.00640228
0.00442972
0.00576996
0.00454488
0.00507937
0.00489407
0.0043194
0.00528831
0.00347101
0.00571961
0.00249934
0.00622089
0.00135232
0.00676932
0.00724211
0.00840003
4.52925e-10
0.00840003
3.504e-09
0.00840003
1.07706e-08
0.00840003
3.23952e-08
0.00840002
7.64777e-08
0.00840002
2.03926e-07
0.00839999
4.51833e-07
0.00840003
1.2369e-06
0.0083999
2.51886e-06
0.00840047
8.20389e-06
0.00840189
1.60529e-05
0.00840887
5.83635e-05
0.00842693
0.000157592
0.00854186
0.000590268
0.00934652
0.00226139
0.00857467
0.00569574
0.00763285
0.00548475
0.00695999
0.00510615
0.00627367
0.00523393
0.00557508
0.00559513
0.00479535
0.0060695
0.00391461
0.00660218
0.00290197
0.0072347
0.00165853
0.00801298
0.00890145
0.00840003
3.966e-10
0.00840003
3.72319e-09
0.00840003
1.12028e-08
0.00840003
3.42028e-08
0.00840002
7.97281e-08
0.00840001
2.14673e-07
0.00839999
4.64189e-07
0.00839992
1.27686e-06
0.00839993
2.47903e-06
0.00840004
7.8721e-06
0.00840257
1.3407e-05
0.00840772
5.21912e-05
0.00844227
0.000120927
0.00860418
0.00042505
0.00920859
0.00163637
0.00892136
0.00597493
0.00815455
0.00625215
0.00750233
0.00576123
0.00679729
0.00593922
0.0061276
0.00626493
0.00537029
0.00682727
0.00452719
0.00744604
0.00354188
0.00822058
0.00220236
0.0093525
0.0111043
0.00840003
1.7553e-10
0.00840003
5.51667e-09
0.00840003
8.37763e-09
0.00840002
4.76336e-08
0.00840004
6.01745e-08
0.00839994
3.05338e-07
0.00840008
3.22209e-07
0.00839943
1.8983e-06
0.00840045
1.43813e-06
0.00839644
1.17169e-05
0.00840373
6.00716e-06
0.0083786
7.64398e-05
0.00844453
5.38939e-05
0.00835638
0.000510051
0.00881121
0.00116852
0.00880943
0.00595842
0.00854521
0.00651252
0.00788368
0.00642385
0.00728024
0.00654444
0.00666141
0.00688492
0.00601593
0.00747348
0.00529892
0.00816388
0.00438251
0.0091378
0.00308322
0.010652
0.0141873
0.00840003
6.39805e-10
0.00840003
1.01876e-09
0.00840003
9.60205e-09
0.00840007
1.115e-08
0.00840006
6.85078e-08
0.00840029
6.75528e-08
0.00840015
4.57353e-07
0.0084017
3.43311e-07
0.00839978
3.28212e-06
0.00840966
1.7331e-06
0.0083918
2.3353e-05
0.0084555
1.16464e-05
0.0083328
0.000174312
0.00864263
0.000198874
0.00845151
0.00135241
0.00862036
0.00577004
0.00837406
0.00675811
0.00800687
0.00679199
0.00761984
0.00693239
0.00715631
0.00734945
0.00670551
0.00792458
0.00619868
0.00867101
0.00572821
0.00960844
0.00565051
0.0107293
0.0114714
0.00836546
0.00840003
3.47396e-10
0.00840003
1.88692e-09
0.00840003
6.47653e-09
0.00840002
1.79657e-08
0.00840005
4.58167e-08
0.0084
1.12487e-07
0.00840017
2.80979e-07
0.00839982
6.67879e-07
0.00840139
1.71897e-06
0.00839865
4.4568e-06
0.00841053
1.15319e-05
0.00839085
3.16134e-05
0.00847495
8.98984e-05
0.00832528
0.000345776
0.00866546
0.00100558
0.008826
0.00558991
0.00851041
0.00707471
0.00818038
0.00712299
0.00787364
0.00724018
0.00755802
0.00766588
0.00723289
0.00825015
0.00695506
0.00894887
0.0068335
0.00972952
0.00719183
0.0103695
0.0105311
0.00813125
0.00840003
2.77897e-10
0.00840003
2.15969e-09
0.00840003
6.67736e-09
0.00840003
2.01433e-08
0.00840002
4.76602e-08
0.00840001
1.27223e-07
0.0084
2.84421e-07
0.00839988
7.68668e-07
0.00840001
1.58321e-06
0.00839921
5.14629e-06
0.00840196
8.73447e-06
0.00839432
3.8656e-05
0.00841076
7.29338e-05
0.00841557
0.00033862
0.00849436
0.000922413
0.00915411
0.00490979
0.00882587
0.00740486
0.00842819
0.00752217
0.00815606
0.00751147
0.00795125
0.00787098
0.00775845
0.00844373
0.00764828
0.00905976
0.00775704
0.00962071
0.00817964
0.00994522
0.00991333
0.0087956
0.00840003
3.01214e-10
0.00840003
2.33718e-09
0.00840003
7.15275e-09
0.00840003
2.16224e-08
0.00840002
5.11697e-08
0.00840001
1.36759e-07
0.00839999
3.07908e-07
0.00839993
8.09449e-07
0.00839971
1.79184e-06
0.00839991
4.85922e-06
0.00839806
1.05124e-05
0.00840338
3.27964e-05
0.00840679
6.91474e-05
0.00846404
0.000279169
0.008632
0.000750587
0.00993104
0.00359097
0.00940249
0.00793461
0.0089049
0.00802211
0.00854369
0.00787373
0.00834173
0.00807143
0.00826472
0.00851966
0.00829459
0.00902898
0.00844763
0.00946719
0.00878448
0.00960689
0.00944832
0.00924781
0.00840003
2.88436e-10
0.00840003
2.24222e-09
0.00840003
6.86007e-09
0.00840003
2.07623e-08
0.00840003
4.91344e-08
0.00840004
1.31479e-07
0.00840005
2.96329e-07
0.00840007
7.74704e-07
0.00840011
1.74384e-06
0.00840045
4.44983e-06
0.00840026
1.06459e-05
0.00840724
2.5425e-05
0.00840629
6.97228e-05
0.00849289
0.000190707
0.00866227
0.000580858
0.00993021
0.00231064
0.00987454
0.00798097
0.00954792
0.00834722
0.0090251
0.00839686
0.00877487
0.00832201
0.00870639
0.00858782
0.0087923
0.00894232
0.0089885
0.00927004
0.00925777
0.00933571
0.00910499
0.00959951
0.00840003
2.43645e-10
0.00840003
1.89051e-09
0.00840003
5.82163e-09
0.00840003
1.75296e-08
0.00840004
4.16128e-08
0.00840006
1.10223e-07
0.00840011
2.48896e-07
0.00840023
6.41125e-07
0.00840052
1.44754e-06
0.00840124
3.67834e-06
0.00840342
8.38013e-06
0.00840637
2.21978e-05
0.00842401
5.15136e-05
0.00845472
0.000158606
0.00856463
0.000468658
0.00906212
0.00180696
0.00988915
0.00713424
0.00969962
0.00853318
0.00940737
0.00868706
0.00917427
0.00855539
0.00910186
0.0086603
0.00916897
0.00887475
0.00936672
0.00907111
0.00961691
0.00908368
0.00883855
0.00988173
0.00840003
1.96918e-10
0.00840003
1.52428e-09
0.00840003
4.72088e-09
0.00840003
1.41467e-08
0.00840004
3.35477e-08
0.00840006
8.82675e-08
0.00840011
1.98096e-07
0.00840023
5.14011e-07
0.00840057
1.10707e-06
0.00840111
3.0925e-06
0.0084034
6.07601e-06
0.00840545
1.9849e-05
0.00841758
3.93059e-05
0.00843408
0.000140768
0.00853549
0.000365699
0.0088675
0.00147012
0.00994722
0.00603596
0.00988831
0.00859111
0.00969764
0.00887676
0.00950438
0.00874846
0.00946642
0.00869816
0.00952253
0.00881819
0.00967114
0.0089222
0.00987249
0.00887967
0.0086286
0.0100802
0.00840003
1.62492e-10
0.00840003
1.31976e-09
0.00840003
4.09266e-09
0.00840003
1.21776e-08
0.00840004
2.9109e-08
0.00840005
7.6075e-08
0.00840007
1.72459e-07
0.00840014
4.42006e-07
0.00840026
9.80164e-07
0.00840071
2.61098e-06
0.00840135
5.40364e-06
0.00840409
1.68641e-05
0.00841104
3.22301e-05
0.00843194
0.000118643
0.00849884
0.000297396
0.00881649
0.00114754
0.0107165
0.00411698
0.0103825
0.0089229
0.0102093
0.0090504
0.00994079
0.00901675
0.00981199
0.00882641
0.00984416
0.00878466
0.00996427
0.0088014
0.0101175
0.00872528
0.00847905
0.0102646
0.00840003
6.51636e-11
0.00840003
1.40098e-09
0.00840003
2.65196e-09
0.00840003
1.22621e-08
0.00840004
1.95487e-08
0.00840004
7.6344e-08
0.00840009
1.17608e-07
0.00840008
4.46701e-07
0.00840039
6.65321e-07
0.00840032
2.65975e-06
0.00840225
3.44313e-06
0.008402
1.69595e-05
0.00841725
1.68027e-05
0.00842207
0.000113007
0.00857571
0.00014252
0.00888229
0.000837384
0.0106458
0.00234301
0.0111624
0.00839752
0.0108344
0.00937867
0.0104729
0.00937754
0.0102146
0.00908402
0.0101435
0.00885448
0.0102126
0.00873008
0.0103341
0.00860226
0.00836068
0.0104501
0.00840003
1.18135e-10
0.00840003
6.93843e-10
0.00840003
2.52206e-09
0.00840004
6.61654e-09
0.00840004
1.77753e-08
0.00840007
4.12592e-08
0.00840008
1.04314e-07
0.00840029
2.35589e-07
0.00840035
6.04193e-07
0.00840171
1.2937e-06
0.00840133
3.75987e-06
0.008411
7.27136e-06
0.00840333
2.40766e-05
0.00846764
4.85771e-05
0.00843466
0.000173773
0.00882566
0.000445014
0.00924975
0.0019128
0.0109411
0.00668625
0.0110621
0.00925465
0.0108766
0.0095612
0.0106026
0.0093571
0.0104764
0.00898026
0.0104527
0.00875219
0.0105127
0.00854057
0.00827431
0.0105971
0.00840003
1.50394e-10
0.00840003
4.38673e-10
0.00840003
2.56182e-09
0.00840003
4.47859e-09
0.00840003
1.77187e-08
0.00840004
2.84221e-08
0.00840004
1.04628e-07
0.00840011
1.63448e-07
0.00840011
6.01246e-07
0.00840049
9.10364e-07
0.00840067
3.53226e-06
0.00840296
4.94329e-06
0.00840432
2.24641e-05
0.00842375
2.89456e-05
0.00844196
0.000154251
0.008599
0.000286316
0.0092719
0.00123529
0.0112146
0.00472341
0.0113394
0.00912408
0.0113113
0.00958885
0.0111083
0.00955975
0.0108836
0.00920409
0.0107811
0.00885465
0.0107494
0.0085711
0.00826376
0.0107586
0.00840003
5.46706e-11
0.00840003
5.9692e-10
0.00840003
1.37457e-09
0.00840003
5.38996e-09
0.00840004
9.95607e-09
0.00840003
3.38243e-08
0.00840008
5.99498e-08
0.00840004
1.98054e-07
0.00840029
3.46589e-07
0.00840004
1.15353e-06
0.00840159
1.96629e-06
0.00839961
6.85212e-06
0.00841082
1.11897e-05
0.0083977
4.16349e-05
0.00848059
7.09291e-05
0.00846705
0.000297886
0.00906054
0.000640807
0.0111843
0.00258845
0.0117947
0.00850057
0.0116357
0.00974513
0.0114087
0.00978493
0.0111795
0.00943228
0.0110774
0.00895697
0.0110278
0.00862006
0.00830746
0.0109836
0.00840003
7.16683e-11
0.00840003
2.77959e-10
0.00840003
1.37702e-09
0.00840003
2.74222e-09
0.00840003
9.62697e-09
0.00840005
1.73901e-08
0.00840005
5.70618e-08
0.00840015
1.00883e-07
0.00840016
3.28798e-07
0.00840075
5.67084e-07
0.00840074
1.95169e-06
0.00840453
3.05196e-06
0.00840323
1.23446e-05
0.00842787
1.69424e-05
0.00841722
8.08703e-05
0.0085937
0.000120288
0.00860013
0.000631971
0.00959037
0.00159061
0.011773
0.00629573
0.0119391
0.00957482
0.0118195
0.00990225
0.0115412
0.00970975
0.0113522
0.00914668
0.0112569
0.00871572
0.00835689
0.0112069
0.00840003
2.40605e-11
0.00840003
2.93191e-10
0.00840003
6.4851e-10
0.00840003
2.62613e-09
0.00840004
4.6833e-09
0.00840004
1.62456e-08
0.00840007
2.7684e-08
0.00840007
9.3089e-08
0.00840024
1.56318e-07
0.00840028
5.29454e-07
0.00840135
8.70186e-07
0.00840123
3.12578e-06
0.00840869
4.87744e-06
0.00840533
1.99542e-05
0.00845611
3.00409e-05
0.00843742
0.000137335
0.00880457
0.000262756
0.0092464
0.00114371
0.0118303
0.00368598
0.0123034
0.009095
0.0122959
0.0099103
0.0120725
0.00993315
0.0116942
0.00952638
0.0115165
0.00889482
0.00845705
0.011417
0.00840003
2.95725e-11
0.00840003
1.68488e-10
0.00840003
6.28536e-10
0.00840003
1.60382e-09
0.00840003
4.43891e-09
0.00840004
1.00763e-08
0.00840004
2.63274e-08
0.00840007
5.82352e-08
0.00840008
1.50626e-07
0.00840027
3.31521e-07
0.00840027
8.57635e-07
0.00840148
1.89941e-06
0.00840133
4.9432e-06
0.00841001
1.11977e-05
0.00840945
3.01264e-05
0.00847466
7.14759e-05
0.00851949
0.000215469
0.00904895
0.000615459
0.0104236
0.00230286
0.0122697
0.0072333
0.0124681
0.00971071
0.0123934
0.0100077
0.0120275
0.00989336
0.0118273
0.00909595
0.00863623
0.0116487
0.00840003
3.13016e-11
0.00840003
1.02688e-10
0.00840003
5.47593e-10
0.00840003
1.03744e-09
0.00840003
3.79679e-09
0.00840003
6.59775e-09
0.00840004
2.24008e-08
0.00840006
3.82433e-08
0.00840008
1.27922e-07
0.00840019
2.1683e-07
0.00840031
7.27583e-07
0.00840098
1.22132e-06
0.00840167
4.19642e-06
0.00840598
6.82906e-06
0.00841032
2.54959e-05
0.0084414
3.98844e-05
0.00848801
0.000167386
0.0087507
0.000350226
0.00969539
0.00135302
0.0121055
0.00480247
0.0126173
0.00919484
0.0126983
0.0099282
0.0126306
0.00996266
0.0122082
0.00952006
0.00888191
0.0119626
0.00840003
1.11611e-11
0.00840003
1.14412e-10
0.00840003
2.75534e-10
0.00840003
1.03478e-09
0.00840003
1.9845e-09
0.00840003
6.44383e-09
0.00840004
1.18374e-08
0.00840004
3.72204e-08
0.0084001
6.77503e-08
0.00840011
2.1191e-07
0.00840045
3.84329e-07
0.00840044
1.2087e-06
0.00840245
2.17341e-06
0.00840218
7.01567e-06
0.00841515
1.24375e-05
0.00841218
4.23957e-05
0.00850138
7.76481e-05
0.00855509
0.00029443
0.00922458
0.0006828
0.0115204
0.00249556
0.012825
0.00787728
0.0128716
0.00988066
0.0127881
0.0100462
0.0124325
0.00987725
0.00908284
0.0122325
0.00840003
1.36001e-11
0.00840003
5.22643e-11
0.00840003
2.55383e-10
0.00840003
5.18231e-10
0.00840003
1.78042e-09
0.00840003
3.28312e-09
0.00840004
1.04884e-08
0.00840005
1.89888e-08
0.00840006
5.96086e-08
0.00840016
1.07464e-07
0.00840021
3.36707e-07
0.00840081
6.05101e-07
0.00840104
1.92301e-06
0.00840467
3.36272e-06
0.00840539
1.15824e-05
0.00842918
1.85143e-05
0.00842995
7.61142e-05
0.00860075
0.000122874
0.00871624
0.000564361
0.00970997
0.00149578
0.0125666
0.00499523
0.0130504
0.00939048
0.0130879
0.0100084
0.0129795
0.00998594
0.00951269
0.0125505
0.00840003
6.39303e-12
0.00840003
4.56112e-11
0.00840003
1.41481e-10
0.00840003
4.24783e-10
0.00840003
1.0052e-09
0.00840003
2.64893e-09
0.00840004
5.93715e-09
0.00840004
1.51972e-08
0.00840007
3.36319e-08
0.00840009
8.55553e-08
0.00840023
1.88547e-07
0.00840035
4.80054e-07
0.00840121
1.0579e-06
0.00840183
2.7127e-06
0.00840738
5.99464e-06
0.00840982
1.58596e-05
0.00845047
3.5296e-05
0.00847226
0.000100053
0.00878208
0.000252795
0.00944063
0.000833918
0.0119431
0.00248088
0.0133265
0.00799368
0.0133521
0.00997957
0.0132879
0.010048
0.00989596
0.0129033
0.00840003
2.62869e-12
0.00840003
3.71923e-11
0.00840003
8.38958e-11
0.00840003
3.29898e-10
0.00840003
6.08505e-10
0.00840003
2.03241e-09
0.00840003
3.61208e-09
0.00840004
1.16139e-08
0.00840005
2.04942e-08
0.00840007
6.52709e-08
0.00840014
1.1487e-07
0.00840025
3.65857e-07
0.00840067
6.40427e-07
0.0084013
2.06568e-06
0.00840374
3.52714e-06
0.00840729
1.21741e-05
0.00842372
1.89186e-05
0.00844405
7.8738e-05
0.00857211
0.000124807
0.00882791
0.000575105
0.00976268
0.00153984
0.012714
0.00501741
0.0133837
0.00930261
0.0135209
0.009908
0.0100175
0.0133959
0.00840003
3.23053e-12
0.00840003
1.86117e-11
0.00840003
6.87914e-11
0.00840003
1.77397e-10
0.00840003
4.84335e-10
0.00840003
1.10776e-09
0.00840003
2.84303e-09
0.00840004
6.33724e-09
0.00840004
1.60249e-08
0.00840007
3.55088e-08
0.0084001
8.94651e-08
0.00840026
1.97824e-07
0.0084004
4.98701e-07
0.00840136
1.10215e-06
0.00840205
2.80019e-06
0.008408
6.18385e-06
0.00841049
1.624e-05
0.00845288
3.60116e-05
0.00847603
0.000100666
0.00879396
0.000255162
0.00950094
0.000829293
0.0120751
0.00243098
0.0135668
0.00779512
0.0136167
0.00985461
0.00991361
0.0137174
0.00840003
2.92598e-12
0.00840003
1.05863e-11
0.00840003
5.2314e-11
0.00840003
1.05641e-10
0.00840003
3.61551e-10
0.00840003
6.66266e-10
0.00840003
2.11275e-09
0.00840003
3.8239e-09
0.00840004
1.18999e-08
0.00840005
2.14658e-08
0.00840007
6.64815e-08
0.00840015
1.19737e-07
0.00840028
3.71104e-07
0.00840071
6.65682e-07
0.0084014
2.08178e-06
0.00840389
3.67803e-06
0.00840793
1.20585e-05
0.00842397
1.99617e-05
0.00844757
7.60787e-05
0.00857507
0.000127487
0.00885008
0.000550997
0.00981688
0.00145712
0.0129284
0.00465697
0.0136809
0.00909197
0.00979499
0.0137955
0.00840003
9.60484e-13
0.00840003
9.79547e-12
0.00840003
2.42386e-11
0.00840003
8.85105e-11
0.00840003
1.73967e-10
0.00840003
5.46227e-10
0.00840003
1.02669e-09
0.00840003
3.11004e-09
0.00840004
5.79309e-09
0.00840004
1.73817e-08
0.00840008
3.2323e-08
0.0084001
9.67368e-08
0.00840029
1.7966e-07
0.00840041
5.38497e-07
0.00840149
9.97449e-07
0.0084021
3.02236e-06
0.00840859
5.5306e-06
0.00841067
1.76479e-05
0.00845535
3.11678e-05
0.00846926
0.000112429
0.00880124
0.0002172
0.0094017
0.000852643
0.0116628
0.0023843
0.0137138
0.00702462
0.00966869
0.0138312
0.00840003
8.38426e-13
0.00840003
4.98856e-12
0.00840003
1.83142e-11
0.00840003
4.73224e-11
0.00840003
1.28905e-10
0.00840003
2.94857e-10
0.00840003
7.55577e-10
0.00840003
1.68237e-09
0.00840003
4.24932e-09
0.00840004
9.39961e-09
0.00840005
2.36618e-08
0.00840009
5.2222e-08
0.00840014
1.31453e-07
0.00840039
2.89575e-07
0.00840064
7.31093e-07
0.00840204
1.60877e-06
0.00840338
4.11532e-06
0.00841196
8.9931e-06
0.00841851
2.425e-05
0.00847786
5.22323e-05
0.00853485
0.00015843
0.00899001
0.000393995
0.00992857
0.00143634
0.0128901
0.00403507
0.00860425
0.0139417
0.00840003
5.90305e-13
0.00840003
3.20645e-12
0.00840003
1.18147e-11
0.00840003
3.05471e-11
0.00840003
8.27055e-11
0.00840003
1.90284e-10
0.00840003
4.83458e-10
0.00840003
1.08376e-09
0.00840003
2.7127e-09
0.00840004
6.04391e-09
0.00840004
1.50717e-08
0.00840006
3.35249e-08
0.00840011
8.35203e-08
0.00840021
1.8558e-07
0.00840047
4.6266e-07
0.00840105
1.02619e-06
0.00840254
2.57448e-06
0.00840579
5.68419e-06
0.0084151
1.47043e-05
0.00843499
3.19978e-05
0.00850157
9.06413e-05
0.00868332
0.000210098
0.00939225
0.000722437
0.0113982
0.00201437
0.00626221
0.0137138
0.00840003
4.66921e-13
0.00840003
1.68391e-12
0.00840003
8.25288e-12
0.00840003
1.68679e-11
0.00840003
5.68915e-11
0.00840003
1.06017e-10
0.00840003
3.30465e-10
0.00840003
6.04354e-10
0.00840003
1.84692e-09
0.00840003
3.36595e-09
0.00840004
1.0228e-08
0.00840005
1.86343e-08
0.00840008
5.6523e-08
0.00840016
1.029e-07
0.00840031
3.12509e-07
0.00840076
5.6687e-07
0.00840156
1.73456e-06
0.0084041
3.10451e-06
0.00840875
9.86762e-06
0.00842376
1.67608e-05
0.00845331
6.00085e-05
0.00856194
0.000100272
0.00887515
0.000404447
0.00988375
0.00100034
0.00313919
0.0129718
0.00840003
1.80729e-13
0.00840003
1.2773e-12
0.00840003
4.00464e-12
0.00840003
1.18858e-11
0.00840003
2.82626e-11
0.00840003
7.33414e-11
0.00840003
1.64731e-10
0.00840003
4.1399e-10
0.00840003
9.17844e-10
0.00840003
2.28605e-09
0.00840004
5.05476e-09
0.00840004
1.25445e-08
0.00840007
2.77293e-08
0.0084001
6.86635e-08
0.00840026
1.51742e-07
0.00840044
3.75479e-07
0.00840134
8.29318e-07
0.0084023
2.07472e-06
0.00840761
4.5044e-06
0.008412
1.20231e-05
0.00844697
2.47008e-05
0.00846953
7.58744e-05
0.00871357
0.000158409
0.00912374
0.000583134
0.00153134
0.0107156
0.00840003
6.651e-14
0.00840003
8.89809e-13
0.00840003
2.00831e-12
0.00840003
7.86328e-12
0.00840003
1.44037e-11
0.00840003
4.7852e-11
0.00840003
8.38912e-11
0.00840003
2.68479e-10
0.00840003
4.64662e-10
0.00840003
1.4764e-09
0.00840003
2.53949e-09
0.00840004
8.07499e-09
0.00840005
1.38182e-08
0.00840008
4.41048e-08
0.00840015
7.49841e-08
0.00840028
2.41105e-07
0.00840069
4.05699e-07
0.00840139
1.32525e-06
0.00840367
2.17187e-06
0.00840796
7.47769e-06
0.00842092
1.1403e-05
0.00845076
4.45769e-05
0.00853971
6.74978e-05
0.00882793
0.000287985
0.000641172
0.00971061
0.00840003
8.60347e-14
0.00840003
2.93333e-13
0.00840003
1.55204e-12
0.00840003
2.92132e-12
0.00840003
1.06559e-11
0.00840003
1.80842e-11
0.00840003
6.11571e-11
0.00840003
1.00724e-10
0.00840003
3.36115e-10
0.00840003
5.45403e-10
0.00840003
1.82554e-09
0.00840004
2.92789e-09
0.00840004
9.87973e-09
0.00840007
1.5654e-08
0.00840009
5.34507e-08
0.00840024
8.33111e-08
0.00840035
2.89898e-07
0.00840122
4.37822e-07
0.00840171
1.60998e-06
0.0084069
2.15868e-06
0.00840793
9.69905e-06
0.0084426
9.52194e-06
0.00844509
6.16179e-05
0.00867259
5.5966e-05
0.000389254
0.00891184
0.00840003
2.96979e-14
0.00840003
2.09586e-13
0.00840003
6.53702e-13
0.00840003
1.93325e-12
0.00840003
4.55895e-12
0.00840003
1.17268e-11
0.00840003
2.6014e-11
0.00840003
6.45945e-11
0.00840003
1.40939e-10
0.00840003
3.46429e-10
0.00840003
7.51724e-10
0.00840003
1.84015e-09
0.00840004
3.98197e-09
0.00840004
9.71293e-09
0.00840008
2.09671e-08
0.0084001
5.09006e-08
0.00840028
1.09495e-07
0.00840042
2.64112e-07
0.00840142
5.66733e-07
0.00840197
1.35645e-06
0.00840872
2.88812e-06
0.0084096
7.04519e-06
0.00845555
1.47491e-05
0.00846432
3.99138e-05
9.00556e-05
0.00875234
0.00840003
2.51847e-15
0.00840003
1.71106e-13
0.00840003
2.11783e-13
0.00840003
1.43413e-12
0.00840003
1.5323e-12
0.00840003
8.53302e-12
0.00840003
8.53761e-12
0.00840003
4.68486e-11
0.00840003
4.41914e-11
0.00840003
2.5152e-10
0.00840003
2.22393e-10
0.00840003
1.33963e-09
0.00840003
1.09786e-09
0.00840004
7.10753e-09
0.00840005
5.27819e-09
0.00840006
3.76454e-08
0.00840014
2.42357e-08
0.00840017
2.01124e-07
0.0084006
9.35992e-08
0.00840051
1.2001e-06
0.00840354
-2.27703e-07
0.00840038
8.62178e-06
0.00842067
-6.70168e-06
0.00839861
5.47155e-05
-1.82896e-05
0.00849262
0.00840003
1.75524e-14
0.00840003
2.8488e-14
0.00840003
2.81602e-13
0.00840003
2.93246e-13
0.00840003
1.89495e-12
0.00840003
1.7804e-12
0.00840003
1.08123e-11
0.00840003
9.59036e-12
0.00840003
5.93131e-11
0.00840003
4.993e-11
0.00840003
3.22687e-10
0.00840003
2.57255e-10
0.00840003
1.75923e-09
0.00840004
1.31718e-09
0.00840003
9.66797e-09
0.00840006
6.63269e-09
0.00840001
5.40704e-08
0.00840016
2.73078e-08
0.00839981
3.34332e-07
0.00840085
3.03585e-08
0.00839774
2.21747e-06
0.00840653
-9.75631e-07
0.0083822
1.41084e-05
0.00843669
-5.00186e-06
7.88082e-05
0.0083231
0.00840003
-1.22856e-14
0.00840003
5.06131e-14
0.00840003
-6.61382e-14
0.00840003
3.72806e-13
0.00840003
-4.00953e-13
0.00840003
2.1285e-12
0.00840003
-2.77862e-12
0.00840003
1.12727e-11
0.00840003
-1.94912e-11
0.00840003
5.77567e-11
0.00840003
-1.33295e-10
0.00840003
2.88512e-10
0.00840003
-8.92353e-10
0.00840003
1.40544e-09
0.00840005
-5.90676e-09
0.00840004
6.80926e-09
0.00840013
-3.89436e-08
0.00840008
4.09584e-08
0.00840065
-2.71985e-07
0.00840006
3.89861e-07
0.00840392
-1.86491e-06
0.00839728
4.34874e-06
0.00842101
-1.17451e-05
0.00837148
3.72163e-05
-4.03461e-05
0.00847401
0.00840003
1.90389e-15
0.00840003
9.79677e-15
0.00840003
3.41772e-14
0.00840003
8.57443e-14
0.00840003
2.27472e-13
0.00840003
5.04208e-13
0.00840003
1.26112e-12
0.00840003
2.65946e-12
0.00840003
6.59358e-12
0.00840003
1.34216e-11
0.00840003
3.36535e-11
0.00840003
6.61736e-11
0.00840003
1.6905e-10
0.00840003
3.22281e-10
0.00840002
8.35551e-10
0.00840002
1.63555e-09
0.00839996
4.0947e-09
0.00839997
1.2495e-08
0.0083996
1.21066e-08
0.00839976
1.22338e-07
0.00839718
1.34305e-07
0.00839999
9.08462e-07
0.00838235
2.54003e-06
0.00840808
7.30347e-06
2.83201e-05
0.00832319
0.00840003
2.12404e-14
0.00840003
-4.932e-14
0.00840003
1.82767e-13
0.00840003
-3.10385e-13
0.00840003
1.19115e-12
0.00840003
-1.72744e-12
0.00840003
7.16726e-12
0.00840003
-9.47482e-12
0.00840003
4.25587e-11
0.00840003
-5.16235e-11
0.00840003
2.52487e-10
0.00840003
-2.78445e-10
0.00840003
1.50334e-09
0.00840003
-1.48375e-09
0.00840002
9.03281e-09
0.00840003
-7.85054e-09
0.00839996
5.52178e-08
0.0084
-4.24614e-08
0.00839958
3.50024e-07
0.00839992
-3.0089e-07
0.00839693
2.60679e-06
0.00840101
-3.67949e-06
0.00837837
2.2035e-05
0.00841326
-3.10161e-05
0.000129562
0.00829661
0.00840003
4.86744e-15
0.00840003
-7.17403e-15
0.00840003
4.50804e-14
0.00840003
-3.49332e-14
0.00840003
3.10417e-13
0.00840003
-1.52574e-13
0.00840003
1.93631e-12
0.00840003
-6.15717e-13
0.00840003
1.17515e-11
0.00840003
-2.11929e-12
0.00840003
7.03853e-11
0.00840003
-5.50704e-12
0.00840003
4.18406e-10
0.00840003
6.86896e-16
0.00840003
2.48253e-09
0.00840002
1.41201e-10
0.00840006
1.48339e-08
0.00839999
1.58292e-09
0.00840022
8.94154e-08
0.00839974
1.76119e-08
0.00840172
5.7769e-07
0.00839686
-6.17868e-08
0.00841332
5.00613e-06
0.00837908
-2.13872e-06
3.64364e-05
0.00845794
0.00840003
-2.24151e-15
0.00840003
2.59246e-14
0.00840003
1.94477e-14
0.00840003
2.12828e-13
0.00840003
1.84681e-13
0.00840003
1.31108e-12
0.00840003
1.19718e-12
0.00840003
7.72115e-12
0.00840003
7.29613e-12
0.00840003
4.50149e-11
0.00840003
4.34736e-11
0.00840003
2.61094e-10
0.00840003
2.54247e-10
0.00840003
1.50891e-09
0.00840003
1.44779e-09
0.00840001
8.69997e-09
0.00840002
7.72135e-09
0.00839994
4.99717e-08
0.00839997
2.74896e-08
0.00839954
3.00325e-07
0.00839997
-6.5041e-08
0.00839678
2.0294e-06
0.00840301
-1.92953e-06
0.00838237
1.30964e-05
-8.00384e-06
0.00841463
0.00840003
-1.08601e-14
0.00840003
5.69592e-14
0.00840003
-4.50465e-14
0.00840003
4.21648e-13
0.00840003
-2.28797e-13
0.00840003
2.53638e-12
0.00840003
-1.25978e-12
0.00840003
1.47151e-11
0.00840003
-7.20008e-12
0.00840003
8.47175e-11
0.00840003
-4.16325e-11
0.00840003
4.86311e-10
0.00840003
-2.43571e-10
0.00840003
2.79355e-09
0.00840003
-1.49051e-09
0.00840002
1.6154e-08
0.00840003
-9.91794e-09
0.00839997
9.48166e-08
0.00840005
-8.42059e-08
0.0083996
6.25837e-07
0.0084004
-1.03742e-06
0.00839645
4.97967e-06
0.00840533
-1.14969e-05
0.00837943
3.37854e-05
-6.12376e-05
0.00842138
0.00840003
1.26279e-14
0.00840003
-4.21432e-14
0.00840003
9.54833e-14
0.00840003
-2.85912e-13
0.00840003
6.00717e-13
0.00840003
-1.68338e-12
0.00840003
3.50912e-12
0.00840003
-9.73985e-12
0.00840003
2.02099e-11
0.00840003
-5.62465e-11
0.00840003
1.16009e-10
0.00840003
-3.24946e-10
0.00840003
6.66512e-10
0.00840003
-1.8859e-09
0.00840003
3.86314e-09
0.00840005
-1.10823e-08
0.00840001
2.30322e-08
0.00840016
-6.67622e-08
0.00839986
1.54955e-07
0.00840089
-4.74381e-07
0.00839806
1.41536e-06
0.00840685
-4.17928e-06
0.00837952
1.35022e-05
0.00843931
-2.89675e-05
7.72234e-05
0.00828829
0.00840003
0.00840003
0.00840003
0.00840003
0.00840003
0.00840003
0.00840003
0.00840003
0.00840003
0.00840003
0.00840003
0.00840003
0.00840003
0.00840003
0.00840003
0.00840002
0.00840003
0.00839995
0.00840008
0.00839948
0.00840073
0.00839558
0.00840858
0.00837452
0.00844077
0.00400417
0.00435258
0.00194256
0.00205902
6.1233e-05
0.00185067
-0.00134922
0.00141253
-0.00193332
0.000590184
-0.00239257
0.000461933
-0.00259675
0.000207172
-0.00270156
0.000108144
-0.00286253
0.000164592
-0.0030247
0.000165593
-0.00316005
0.00013899
-0.0032636
0.000106716
-0.00335492
9.42465e-05
-0.00343993
8.80579e-05
-0.00351557
7.82585e-05
-0.00357555
6.16926e-05
-0.00361266
3.82536e-05
-0.00363302
1.93325e-05
-0.0036639
2.83514e-05
-0.00369528
2.81174e-05
-0.0037163
1.74552e-05
-0.00372482
2.36744e-06
-0.00371445
-1.83745e-05
-0.00367449
-5.03815e-05
-0.00359659
-8.86006e-05
-0.00348383
-0.000123672
-0.00334343
-0.000150456
-0.00318144
-0.0001713
-0.00300294
-0.000187011
-0.00280867
-0.000201681
-0.0026059
-0.000210116
-0.00239631
-0.000215686
-0.00218315
-0.000218536
-0.00196563
-0.000222625
-0.00174284
-0.00022685
-0.00151584
-0.000231089
-0.00128219
-0.000237264
-0.00104625
-0.00023912
-0.000813879
-0.000235057
-0.000582969
-0.000233462
-0.00035158
-0.000233356
-0.000118454
-0.000234435
0.00012057
-0.00024021
0.000350146
-0.000230486
0.000567442
-0.000217551
0.00077637
-0.000208686
0.000977957
-0.000201352
0.00117111
-0.000192699
0.00135615
-0.000184172
0.00153449
-0.000177552
0.00171002
-0.000174623
0.00188211
-0.000170781
0.00204796
-0.000164268
0.00220627