/*--------------------------------*- C++ -*----------------------------------*\
| =========                 |                                                 |
| \\      /  F ield         | OpenFOAM: The Open Source CFD Toolbox           |
|  \\    /   O peration     | Version:  2412                                  |
|   \\  /    A nd           | Website:  www.openfoam.com                      |
|    \\/     M anipulation  |                                                 |
\*---------------------------------------------------------------------------*/
FoamFile
{
    version     2.0;
    format      ascii;
    arch        "LSB;label=32;scalar=64";
    class       volVectorField;
    location    "7";
    object      U;
}
// * * * * * * * * * * * * * * * * * * * * * * * * * * * * * * * * * * * * * //

dimensions      [0 1 -1 0 0 0 0];

internalField   nonuniform List<vector> 
5250
(
(2.99999 1.40306e-08 0)
(2.99998 1.08863e-07 0)
(2.99995 3.35194e-07 0)
(2.99989 1.0122e-06 0)
(2.99971 2.40008e-06 0)
(2.99937 6.40569e-06 0)
(2.99827 1.43905e-05 0)
(2.99644 3.83046e-05 0)
(2.98918 8.20222e-05 0)
(2.97775 0.000240023 0)
(2.93039 0.000505375 0)
(2.82268 0.00160131 0)
(2.50896 0.00404784 0)
(1.52852 0.0113457 0)
(0.72279 0.0266477 0)
(0.520813 0.0258327 0)
(0.548378 0.0255958 0)
(0.542672 0.0267956 0)
(0.487282 0.0281531 0)
(0.399942 0.0297565 0)
(0.319803 0.0317619 0)
(0.253374 0.034094 0)
(0.18649 0.0365562 0)
(0.111413 0.0394173 0)
(0.0476428 0.0431546 0)
(2.99999 4.12875e-08 0)
(2.99998 3.21124e-07 0)
(2.99995 9.87759e-07 0)
(2.99989 2.9869e-06 0)
(2.99972 7.07515e-06 0)
(2.99938 1.89634e-05 0)
(2.9983 4.24174e-05 0)
(2.9965 0.000114324 0)
(2.98935 0.00024322 0)
(2.97811 0.000723137 0)
(2.93146 0.00151815 0)
(2.82585 0.00490962 0)
(2.51637 0.0123499 0)
(1.54619 0.0354214 0)
(0.734368 0.0809427 0)
(0.518067 0.0738556 0)
(0.547563 0.0697778 0)
(0.54318 0.0708731 0)
(0.488001 0.0725323 0)
(0.401051 0.0750199 0)
(0.321043 0.0781485 0)
(0.254126 0.0816024 0)
(0.186288 0.0848276 0)
(0.109873 0.0880337 0)
(0.0453576 0.090692 0)
(2.99999 6.55792e-08 0)
(2.99998 5.09629e-07 0)
(2.99995 1.56721e-06 0)
(2.9999 4.73571e-06 0)
(2.99973 1.1189e-05 0)
(2.9994 3.01269e-05 0)
(2.99835 6.65288e-05 0)
(2.99661 0.000183601 0)
(2.98968 0.000383623 0)
(2.97882 0.00116333 0)
(2.9337 0.00241973 0)
(2.83243 0.00808347 0)
(2.53243 0.0195077 0)
(1.58725 0.0611334 0)
(0.761353 0.140325 0)
(0.514163 0.124965 0)
(0.548442 0.116719 0)
(0.547228 0.119045 0)
(0.4927 0.122581 0)
(0.406599 0.127901 0)
(0.326822 0.133928 0)
(0.259343 0.140418 0)
(0.190431 0.146642 0)
(0.11236 0.152358 0)
(0.0456659 0.155791 0)
(2.99999 8.72149e-08 0)
(2.99998 6.77829e-07 0)
(2.99996 2.08434e-06 0)
(2.9999 6.30257e-06 0)
(2.99974 1.48751e-05 0)
(2.99943 4.02307e-05 0)
(2.99843 8.82273e-05 0)
(2.99676 0.000247542 0)
(2.99016 0.000512014 0)
(2.97982 0.00157391 0)
(2.93694 0.00325489 0)
(2.84121 0.0110783 0)
(2.55682 0.0260814 0)
(1.65419 0.0860451 0)
(0.802274 0.200653 0)
(0.507967 0.175298 0)
(0.551207 0.162515 0)
(0.555623 0.166343 0)
(0.502224 0.171978 0)
(0.417387 0.180441 0)
(0.337827 0.189723 0)
(0.269697 0.199768 0)
(0.199331 0.209898 0)
(0.118451 0.219142 0)
(0.0478693 0.224056 0)
(3 1.03697e-07 0)
(2.99999 8.05948e-07 0)
(2.99996 2.47727e-06 0)
(2.99991 7.49794e-06 0)
(2.99975 1.76511e-05 0)
(2.99946 4.82147e-05 0)
(2.99853 0.000103741 0)
(2.99696 0.000303889 0)
(2.99078 0.00060351 0)
(2.98114 0.00199086 0)
(2.94123 0.00403219 0)
(2.85287 0.0139971 0)
(2.58936 0.0332005 0)
(1.7469 0.109279 0)
(0.858895 0.261443 0)
(0.501905 0.225607 0)
(0.557729 0.207967 0)
(0.569466 0.213064 0)
(0.517289 0.220652 0)
(0.433948 0.232438 0)
(0.354432 0.24531 0)
(0.285492 0.259431 0)
(0.21334 0.274167 0)
(0.128689 0.287938 0)
(0.0522381 0.295344 0)
(3 1.14963e-07 0)
(2.99999 8.91545e-07 0)
(2.99996 2.74029e-06 0)
(2.99991 8.28703e-06 0)
(2.99977 1.94381e-05 0)
(2.9995 5.36302e-05 0)
(2.99864 0.000112146 0)
(2.99718 0.000347945 0)
(2.99155 0.000644252 0)
(2.98271 0.00236358 0)
(2.94648 0.00462089 0)
(2.86731 0.0164327 0)
(2.62949 0.0392947 0)
(1.86586 0.128804 0)
(0.934637 0.318499 0)
(0.501831 0.275969 0)
(0.571531 0.253518 0)
(0.591342 0.25906 0)
(0.540195 0.268412 0)
(0.458424 0.28428 0)
(0.378547 0.301536 0)
(0.308378 0.320856 0)
(0.233797 0.34188 0)
(0.143887 0.362425 0)
(0.0593094 0.374774 0)
(3 1.25894e-07 0)
(2.99999 9.76e-07 0)
(2.99996 3.00069e-06 0)
(2.99992 9.07413e-06 0)
(2.99979 2.13086e-05 0)
(2.99954 5.87021e-05 0)
(2.99877 0.00012297 0)
(2.9974 0.00038181 0)
(2.99245 0.000692144 0)
(2.98448 0.0026044 0)
(2.95246 0.00501774 0)
(2.88383 0.017899 0)
(2.67549 0.0429808 0)
(2.00815 0.140623 0)
(1.03358 0.363436 0)
(0.518878 0.330262 0)
(0.597546 0.305559 0)
(0.62427 0.307988 0)
(0.574143 0.3173 0)
(0.493774 0.337243 0)
(0.412621 0.359429 0)
(0.340808 0.385065 0)
(0.263628 0.414247 0)
(0.167507 0.445095 0)
(0.0713001 0.467547 0)
(3 1.3314e-07 0)
(2.99999 1.03191e-06 0)
(2.99997 3.17573e-06 0)
(2.99993 9.58135e-06 0)
(2.99981 2.25997e-05 0)
(2.99958 6.11155e-05 0)
(2.99891 0.000132464 0)
(2.99765 0.000382654 0)
(2.99339 0.000736816 0)
(2.98635 0.0025465 0)
(2.95875 0.00491351 0)
(2.90103 0.0171645 0)
(2.724 0.0418041 0)
(2.16727 0.132397 0)
(1.16776 0.355278 0)
(0.579018 0.369729 0)
(0.645265 0.359428 0)
(0.672111 0.358454 0)
(0.623489 0.368918 0)
(0.544342 0.392136 0)
(0.460651 0.41997 0)
(0.386278 0.453349 0)
(0.306371 0.492965 0)
(0.204125 0.539293 0)
(0.0921182 0.5827 0)
(3 1.35024e-07 0)
(2.99999 1.03474e-06 0)
(2.99997 3.18967e-06 0)
(2.99994 9.52306e-06 0)
(2.99983 2.2516e-05 0)
(2.99963 5.93127e-05 0)
(2.99904 0.000131852 0)
(2.99791 0.000351177 0)
(2.99424 0.000725316 0)
(2.98799 0.00221422 0)
(2.96425 0.00430177 0)
(2.91634 0.0141271 0)
(2.76409 0.0354856 0)
(2.2944 0.0984376 0)
(1.3188 0.286554 0)
(0.634121 0.394678 0)
(0.680515 0.414663 0)
(0.710249 0.409532 0)
(0.672871 0.423548 0)
(0.600876 0.448469 0)
(0.519443 0.483287 0)
(0.445224 0.525103 0)
(0.366126 0.577195 0)
(0.263392 0.647649 0)
(0.130835 0.735666 0)
(3 5.59234e-08 0)
(2.99999 1.53244e-06 0)
(2.99998 3.07313e-06 0)
(2.99994 1.35625e-05 0)
(2.99985 2.21976e-05 0)
(2.99968 8.66943e-05 0)
(2.99915 0.000121612 0)
(2.99815 0.000532772 0)
(2.99494 0.000537971 0)
(2.98935 0.00322931 0)
(2.96839 0.00195751 0)
(2.92822 0.0196802 0)
(2.78792 0.0165066 0)
(2.38364 0.10315 0)
(1.48569 0.219055 0)
(0.705485 0.436953 0)
(0.695651 0.467662 0)
(0.724395 0.463048 0)
(0.709396 0.478795 0)
(0.653202 0.504828 0)
(0.582817 0.546311 0)
(0.514838 0.596756 0)
(0.446811 0.666592 0)
(0.361498 0.77825 0)
(0.204249 0.981895 0)
(3 1.11517e-07 0)
(2.99999 8.71221e-07 0)
(2.99998 2.67972e-06 0)
(2.99995 8.10581e-06 0)
(2.9999 1.92229e-05 0)
(2.99971 5.1201e-05 0)
(2.99941 0.000115829 0)
(2.99826 0.000298688 0)
(2.99648 0.000681093 0)
(2.98919 0.00173877 0)
(2.97745 0.00389764 0)
(2.9295 0.0107221 0)
(2.81947 0.0273099 0)
(2.50041 0.0720458 0)
(1.56115 0.217274 0)
(0.799217 0.478112 0)
(0.694978 0.5008 0)
(0.728322 0.504587 0)
(0.733433 0.523338 0)
(0.697597 0.554498 0)
(0.645742 0.60092 0)
(0.595428 0.660749 0)
(0.559144 0.746823 0)
(0.552224 0.884376 0)
(0.577956 1.11873 0)
(3 1.65931e-07 0)
(2.99999 1.87778e-07 0)
(2.99998 2.22115e-06 0)
(2.99996 2.38275e-06 0)
(2.99989 1.55456e-05 0)
(2.99976 1.35682e-05 0)
(2.99936 0.000103339 0)
(2.99862 5.79741e-05 0)
(2.99614 0.000747503 0)
(2.99202 0.000343413 0)
(2.97586 0.00549251 0)
(2.94753 0.00263113 0)
(2.8382 0.0371509 0)
(2.54735 0.0521103 0)
(1.82934 0.211536 0)
(0.918627 0.519465 0)
(0.702279 0.527687 0)
(0.7366 0.534166 0)
(0.75683 0.55547 0)
(0.738903 0.593521 0)
(0.707135 0.643991 0)
(0.680521 0.711001 0)
(0.678363 0.803565 0)
(0.72711 0.934443 0)
(0.845137 1.10599 0)
(3 8.394e-08 0)
(2.99999 6.55087e-07 0)
(2.99998 2.01236e-06 0)
(2.99996 6.10476e-06 0)
(2.9999 1.43941e-05 0)
(2.99979 3.87747e-05 0)
(2.99945 8.6154e-05 0)
(2.99879 0.000237145 0)
(2.99672 0.000481877 0)
(2.99315 0.00156676 0)
(2.97953 0.00282135 0)
(2.956 0.0106774 0)
(2.86618 0.0215646 0)
(2.62945 0.0812182 0)
(2.03954 0.20011 0)
(1.05743 0.556084 0)
(0.717855 0.560616 0)
(0.752824 0.565465 0)
(0.784762 0.582787 0)
(0.781562 0.623493 0)
(0.766765 0.677158 0)
(0.762862 0.745409 0)
(0.786109 0.832971 0)
(0.85759 0.939922 0)
(0.993356 1.04543 0)
(3 8.61897e-08 0)
(3 6.6906e-07 0)
(2.99999 2.05724e-06 0)
(2.99997 6.20992e-06 0)
(2.99992 1.46858e-05 0)
(2.99982 3.91962e-05 0)
(2.99953 8.78659e-05 0)
(2.99895 0.000233712 0)
(2.99725 0.00049834 0)
(2.99397 0.00147163 0)
(2.98334 0.00278371 0)
(2.96344 0.0101396 0)
(2.89317 0.0195823 0)
(2.71223 0.0742117 0)
(2.24454 0.181553 0)
(1.23691 0.543227 0)
(0.774149 0.591013 0)
(0.789003 0.604498 0)
(0.822179 0.612957 0)
(0.83069 0.649124 0)
(0.826822 0.701916 0)
(0.837055 0.766134 0)
(0.875017 0.841166 0)
(0.952616 0.923316 0)
(1.08284 0.991717 0)
(3 8.80041e-08 0)
(3 6.85913e-07 0)
(2.99999 2.10971e-06 0)
(2.99997 6.38458e-06 0)
(2.99993 1.51507e-05 0)
(2.99985 4.04826e-05 0)
(2.99961 9.1406e-05 0)
(2.99914 0.000239095 0)
(2.99775 0.000534804 0)
(2.99506 0.00139834 0)
(2.98667 0.00316745 0)
(2.97027 0.00845917 0)
(2.91632 0.019486 0)
(2.78049 0.0578671 0)
(2.42085 0.14779 0)
(1.4441 0.445116 0)
(0.869124 0.607182 0)
(0.838384 0.639936 0)
(0.86246 0.650732 0)
(0.882013 0.675896 0)
(0.886463 0.721271 0)
(0.903548 0.777849 0)
(0.947218 0.839896 0)
(1.02422 0.902506 0)
(1.14293 0.951316 0)
(3 7.92938e-08 0)
(3 6.17086e-07 0)
(2.99999 1.89871e-06 0)
(2.99998 5.73468e-06 0)
(2.99995 1.36088e-05 0)
(2.99988 3.62318e-05 0)
(2.99969 8.1819e-05 0)
(2.99932 0.000212227 0)
(2.99821 0.000478533 0)
(2.99617 0.00121362 0)
(2.98918 0.00283029 0)
(2.97725 0.00691036 0)
(2.9324 0.017125 0)
(2.82748 0.0442856 0)
(2.53378 0.117178 0)
(1.65055 0.337675 0)
(0.977327 0.638421 0)
(0.873553 0.674373 0)
(0.892509 0.69046 0)
(0.921063 0.703409 0)
(0.938312 0.737784 0)
(0.961634 0.784822 0)
(1.00719 0.836001 0)
(1.08063 0.884697 0)
(1.18654 0.921232 0)
(3 6.54813e-08 0)
(3 5.06818e-07 0)
(2.99999 1.56144e-06 0)
(2.99998 4.69052e-06 0)
(2.99996 1.11148e-05 0)
(2.99991 2.93553e-05 0)
(2.99976 6.60001e-05 0)
(2.99947 0.000170559 0)
(2.99858 0.000375926 0)
(2.99702 0.000994764 0)
(2.99138 0.00211014 0)
(2.98232 0.00604937 0)
(2.94613 0.0128648 0)
(2.86823 0.0391731 0)
(2.63388 0.0974003 0)
(1.89701 0.296613 0)
(1.14536 0.670579 0)
(0.909189 0.704599 0)
(0.917713 0.720623 0)
(0.950138 0.726229 0)
(0.981007 0.749813 0)
(1.01137 0.788426 0)
(1.05774 0.831046 0)
(1.12661 0.869894 0)
(1.22063 0.898131 0)
(3 5.48076e-08 0)
(3 4.22196e-07 0)
(2.99999 1.30155e-06 0)
(2.99999 3.8971e-06 0)
(2.99997 9.22508e-06 0)
(2.99993 2.42837e-05 0)
(2.99981 5.44266e-05 0)
(2.99958 0.000140897 0)
(2.9989 0.000305672 0)
(2.99762 0.000835901 0)
(2.99337 0.00167498 0)
(2.98628 0.0053073 0)
(2.9589 0.0103062 0)
(2.90179 0.0350479 0)
(2.72688 0.0827255 0)
(2.17553 0.260723 0)
(1.36521 0.663716 0)
(0.98298 0.73012 0)
(0.96085 0.742381 0)
(0.98333 0.746338 0)
(1.02131 0.76018 0)
(1.05737 0.790827 0)
(1.1025 0.826061 0)
(1.16565 0.857496 0)
(1.24893 0.879724 0)
(3 3.02537e-08 0)
(3 4.12814e-07 0)
(3 1.00744e-06 0)
(2.99999 3.70487e-06 0)
(2.99997 7.31209e-06 0)
(2.99994 2.31411e-05 0)
(2.99985 4.37477e-05 0)
(2.99968 0.000135259 0)
(2.99916 0.000248439 0)
(2.99816 0.000804018 0)
(2.99509 0.00131656 0)
(2.98956 0.00511496 0)
(2.97012 0.00683001 0)
(2.93162 0.032742 0)
(2.80545 0.0546601 0)
(2.44102 0.21419 0)
(1.67275 0.524264 0)
(1.09626 0.741179 0)
(1.02095 0.762719 0)
(1.02842 0.77174 0)
(1.06416 0.776929 0)
(1.1027 0.796898 0)
(1.14493 0.823813 0)
(1.20132 0.848657 0)
(1.27439 0.865967 0)
(3 2.25087e-08 0)
(3 3.12272e-07 0)
(3 7.57136e-07 0)
(2.99999 2.80058e-06 0)
(2.99998 5.4876e-06 0)
(2.99996 1.74257e-05 0)
(2.9999 3.26954e-05 0)
(2.99975 0.000101076 0)
(2.99945 0.000186585 0)
(2.99851 0.000583785 0)
(2.99695 0.00103738 0)
(2.99091 0.00353442 0)
(2.98134 0.0055019 0)
(2.94323 0.0225385 0)
(2.86066 0.0376852 0)
(2.61154 0.142073 0)
(1.89431 0.371868 0)
(1.24026 0.747183 0)
(1.06574 0.787078 0)
(1.06498 0.801539 0)
(1.0982 0.800833 0)
(1.14149 0.806616 0)
(1.18351 0.824303 0)
(1.23444 0.842869 0)
(1.29864 0.856186 0)
(3 4.35367e-08 0)
(3 1.57174e-07 0)
(3 7.49499e-07 0)
(2.99999 1.56602e-06 0)
(2.99999 5.18599e-06 0)
(2.99997 9.81506e-06 0)
(2.99992 3.04025e-05 0)
(2.9998 5.56747e-05 0)
(2.99957 0.000174555 0)
(2.99887 0.000300315 0)
(2.99755 0.00105269 0)
(2.99329 0.00159465 0)
(2.98592 0.0067731 0)
(2.95879 0.0100203 0)
(2.90136 0.0444752 0)
(2.72823 0.0879775 0)
(2.18756 0.313819 0)
(1.46209 0.719462 0)
(1.13677 0.809375 0)
(1.10916 0.82495 0)
(1.12892 0.825217 0)
(1.1732 0.820659 0)
(1.21854 0.82853 0)
(1.26585 0.840595 0)
(1.32275 0.849814 0)
(3 2.87376e-08 0)
(3 1.56432e-07 0)
(3 5.82611e-07 0)
(3 1.49515e-06 0)
(2.99999 4.12191e-06 0)
(2.99998 9.4584e-06 0)
(2.99994 2.46211e-05 0)
(2.99987 5.51667e-05 0)
(2.99966 0.000142019 0)
(2.99924 0.000317355 0)
(2.99803 0.000815593 0)
(2.99565 0.00181847 0)
(2.98839 0.00483328 0)
(2.97369 0.0104407 0)
(2.92813 0.0297742 0)
(2.81617 0.0754364 0)
(2.50116 0.203226 0)
(1.72064 0.600542 0)
(1.25246 0.810789 0)
(1.16566 0.837399 0)
(1.16802 0.84589 0)
(1.20494 0.838819 0)
(1.25125 0.836666 0)
(1.29602 0.842208 0)
(1.34666 0.847482 0)
(3 1.66887e-08 0)
(3 1.30058e-07 0)
(3 4.00168e-07 0)
(3 1.20863e-06 0)
(2.99999 2.86598e-06 0)
(2.99998 7.61952e-06 0)
(2.99996 1.71825e-05 0)
(2.9999 4.45883e-05 0)
(2.99978 9.9468e-05 0)
(2.99943 0.000257129 0)
(2.9988 0.000576633 0)
(2.99664 0.00147375 0)
(2.99311 0.00340395 0)
(2.97948 0.00847805 0)
(2.95593 0.0209655 0)
(2.86643 0.0527999 0)
(2.64095 0.149063 0)
(2.06994 0.394274 0)
(1.38563 0.813519 0)
(1.20851 0.860564 0)
(1.20046 0.868491 0)
(1.22927 0.860771 0)
(1.27747 0.849446 0)
(1.3241 0.847577 0)
(1.37088 0.848826 0)
(3 1.46808e-08 0)
(3 7.88613e-08 0)
(3 2.93721e-07 0)
(3 7.53015e-07 0)
(2.99999 2.06374e-06 0)
(2.99999 4.71719e-06 0)
(2.99997 1.21669e-05 0)
(2.99994 2.70566e-05 0)
(2.99983 6.93028e-05 0)
(2.99964 0.000150959 0)
(2.99904 0.000402313 0)
(2.998 0.000822437 0)
(2.99423 0.00245918 0)
(2.98821 0.00475076 0)
(2.96499 0.0154568 0)
(2.9186 0.0322797 0)
(2.77108 0.106048 0)
(2.34623 0.288743 0)
(1.65613 0.711817 0)
(1.29816 0.857664 0)
(1.24803 0.878462 0)
(1.25974 0.880094 0)
(1.30196 0.866607 0)
(1.35014 0.857767 0)
(1.39526 0.854112 0)
(3 5.68938e-09 0)
(3 6.92649e-08 0)
(3 1.76271e-07 0)
(3 6.24195e-07 0)
(3 1.27139e-06 0)
(2.99999 3.86726e-06 0)
(2.99998 7.52356e-06 0)
(2.99995 2.22035e-05 0)
(2.99989 4.25391e-05 0)
(2.99971 0.000126654 0)
(2.99936 0.000234705 0)
(2.99835 0.000749662 0)
(2.99638 0.0012702 0)
(2.99031 0.0047021 0)
(2.97875 0.00746533 0)
(2.9412 0.0297633 0)
(2.85119 0.0572214 0)
(2.59939 0.192947 0)
(1.9351 0.525108 0)
(1.42393 0.84014 0)
(1.29926 0.886162 0)
(1.29386 0.897608 0)
(1.32512 0.88731 0)
(1.37302 0.871289 0)
(1.41825 0.863094 0)
(3 9.78114e-09 0)
(3 3.94457e-08 0)
(3 1.75142e-07 0)
(3 3.8928e-07 0)
(3 1.22236e-06 0)
(2.99999 2.46606e-06 0)
(2.99999 7.23621e-06 0)
(2.99996 1.42958e-05 0)
(2.99992 4.14373e-05 0)
(2.9998 8.12975e-05 0)
(2.99956 0.000236539 0)
(2.99887 0.000460515 0)
(2.99753 0.00136722 0)
(2.99338 0.00260683 0)
(2.98591 0.00817338 0)
(2.96016 0.0154166 0)
(2.90452 0.0508974 0)
(2.74125 0.11537 0)
(2.24692 0.367972 0)
(1.63321 0.780959 0)
(1.36832 0.890508 0)
(1.33377 0.90966 0)
(1.34815 0.90805 0)
(1.39153 0.890086 0)
(1.43931 0.876058 0)
(3 5.90375e-09 0)
(3 3.2165e-08 0)
(3 1.19513e-07 0)
(3 3.06659e-07 0)
(3 8.41633e-07 0)
(3 1.92851e-06 0)
(2.99999 4.98708e-06 0)
(2.99998 1.11542e-05 0)
(2.99994 2.84961e-05 0)
(2.99987 6.33228e-05 0)
(2.99968 0.000161731 0)
(2.99929 0.000358207 0)
(2.99817 0.00092194 0)
(2.99596 0.00202768 0)
(2.98946 0.0053919 0)
(2.97592 0.0117103 0)
(2.93604 0.0325023 0)
(2.83873 0.0815482 0)
(2.56426 0.223328 0)
(1.90209 0.627709 0)
(1.48409 0.871933 0)
(1.38702 0.913025 0)
(1.3814 0.923545 0)
(1.41156 0.911236 0)
(1.45767 0.889873 0)
(3 3.15975e-09 0)
(3 2.45585e-08 0)
(3 7.56413e-08 0)
(3 2.27588e-07 0)
(3 5.39448e-07 0)
(3 1.42388e-06 0)
(2.99999 3.20479e-06 0)
(2.99998 8.23132e-06 0)
(2.99996 1.82996e-05 0)
(2.99991 4.68146e-05 0)
(2.9998 0.000103662 0)
(2.9995 0.000266271 0)
(2.99892 0.000587431 0)
(2.99711 0.00152392 0)
(2.99398 0.00339803 0)
(2.98264 0.00879253 0)
(2.96289 0.0210167 0)
(2.89221 0.0539786 0)
(2.71658 0.147264 0)
(2.25992 0.393988 0)
(1.6412 0.839627 0)
(1.43792 0.923181 0)
(1.41244 0.936842 0)
(1.42754 0.931504 0)
(1.46938 0.908724 0)
(3 3.23879e-09 0)
(3 1.35044e-08 0)
(3 5.8548e-08 0)
(3 1.32897e-07 0)
(3 4.08022e-07 0)
(3 8.38919e-07 0)
(3 2.40059e-06 0)
(2.99999 4.83248e-06 0)
(2.99998 1.36054e-05 0)
(2.99995 2.72157e-05 0)
(2.99986 7.65121e-05 0)
(2.99969 0.000152228 0)
(2.99922 0.000434004 0)
(2.9983 0.0008387 0)
(2.99552 0.00256471 0)
(2.99052 0.00456243 0)
(2.97358 0.0159952 0)
(2.93985 0.0283125 0)
(2.83519 0.101573 0)
(2.54397 0.246715 0)
(1.95457 0.650435 0)
(1.54848 0.889963 0)
(1.46468 0.931551 0)
(1.45784 0.941086 0)
(1.48491 0.927923 0)
(3 1.15681e-09 0)
(3 1.21859e-08 0)
(3 3.28298e-08 0)
(3 1.10332e-07 0)
(3 2.35544e-07 0)
(3 6.82859e-07 0)
(3 1.39371e-06 0)
(2.99999 3.90835e-06 0)
(2.99998 7.89726e-06 0)
(2.99996 2.19816e-05 0)
(2.99991 4.42434e-05 0)
(2.9998 0.000123258 0)
(2.99949 0.000247003 0)
(2.99888 0.000696135 0)
(2.99709 0.00136772 0)
(2.99383 0.00406984 0)
(2.98268 0.00750881 0)
(2.96293 0.0248149 0)
(2.89357 0.0489478 0)
(2.718 0.161316 0)
(2.28291 0.399912 0)
(1.7005 0.845766 0)
(1.51324 0.932493 0)
(1.48714 0.948246 0)
(1.49885 0.944551 0)
(3 7.92458e-10 0)
(3 8.18071e-09 0)
(3 2.21739e-08 0)
(3 7.40424e-08 0)
(3 1.5875e-07 0)
(3 4.57616e-07 0)
(3 9.37701e-07 0)
(3 2.61465e-06 0)
(2.99999 5.30569e-06 0)
(2.99998 1.46745e-05 0)
(2.99995 2.96869e-05 0)
(2.99986 8.20413e-05 0)
(2.9997 0.000165358 0)
(2.99923 0.000460431 0)
(2.99833 0.000914367 0)
(2.99564 0.00265503 0)
(2.99068 0.00496848 0)
(2.97452 0.0162619 0)
(2.94162 0.0297319 0)
(2.84126 0.103047 0)
(2.56457 0.250667 0)
(2.0049 0.65246 0)
(1.6208 0.892986 0)
(1.53786 0.939068 0)
(1.52772 0.949454 0)
(3 9.61906e-10 0)
(3 4.18749e-09 0)
(3 1.76683e-08 0)
(3 4.08655e-08 0)
(3 1.22778e-07 0)
(3 2.56433e-07 0)
(3 7.18489e-07 0)
(3 1.4684e-06 0)
(2.99999 4.04616e-06 0)
(2.99998 8.22731e-06 0)
(2.99996 2.25846e-05 0)
(2.99991 4.58023e-05 0)
(2.9998 0.000125893 0)
(2.99951 0.000254358 0)
(2.99891 0.000705738 0)
(2.99721 0.00140494 0)
(2.994 0.00407492 0)
(2.9836 0.00770484 0)
(2.96464 0.024495 0)
(2.8999 0.049148 0)
(2.73692 0.158676 0)
(2.33008 0.391774 0)
(1.77569 0.834399 0)
(1.58734 0.932705 0)
(1.55624 0.951706 0)
(3 5.46978e-10 0)
(3 2.97719e-09 0)
(3 1.10381e-08 0)
(3 2.83195e-08 0)
(3 7.72896e-08 0)
(3 1.76764e-07 0)
(3 4.53285e-07 0)
(3 1.01101e-06 0)
(3 2.5555e-06 0)
(2.99999 5.66679e-06 0)
(2.99998 1.42762e-05 0)
(2.99995 3.15969e-05 0)
(2.99987 7.95941e-05 0)
(2.99972 0.000175818 0)
(2.99929 0.000444495 0)
(2.99844 0.000976943 0)
(2.99593 0.00251987 0)
(2.99138 0.00541713 0)
(2.9762 0.0149215 0)
(2.94665 0.0324844 0)
(2.85291 0.0937618 0)
(2.6008 0.253266 0)
(2.0767 0.627213 0)
(1.68774 0.898213 0)
(1.60006 0.947675 0)
(3 2.13924e-10 0)
(3 2.1619e-09 0)
(3 5.9183e-09 0)
(3 1.96043e-08 0)
(3 4.23521e-08 0)
(3 1.20972e-07 0)
(3 2.49464e-07 0)
(3 6.88508e-07 0)
(3 1.40536e-06 0)
(2.99999 3.84459e-06 0)
(2.99999 7.82799e-06 0)
(2.99997 2.13678e-05 0)
(2.99992 4.34292e-05 0)
(2.99981 0.000118698 0)
(2.99958 0.000240518 0)
(2.99894 0.000663769 0)
(2.9977 0.00132508 0)
(2.99392 0.00382288 0)
(2.98716 0.00728434 0)
(2.9642 0.022887 0)
(2.91687 0.0462588 0)
(2.77312 0.144915 0)
(2.37284 0.382901 0)
(1.88553 0.792339 0)
(1.66153 0.924032 0)
(3 2.19373e-10 0)
(3 1.18365e-09 0)
(3 4.39389e-09 0)
(3 1.12639e-08 0)
(3 3.07216e-08 0)
(3 7.01867e-08 0)
(3 1.79709e-07 0)
(3 4.00203e-07 0)
(3 1.00951e-06 0)
(3 2.23444e-06 0)
(2.99999 5.61621e-06 0)
(2.99998 1.24056e-05 0)
(2.99995 3.11718e-05 0)
(2.99988 6.87214e-05 0)
(2.99974 0.000173086 0)
(2.99935 0.000380434 0)
(2.99857 0.000969916 0)
(2.99634 0.00209772 0)
(2.99209 0.00562568 0)
(2.9788 0.0117211 0)
(2.95281 0.0337841 0)
(2.87155 0.0777291 0)
(2.64476 0.231996 0)
(2.17707 0.57655 0)
(1.77252 0.88174 0)
(3 1.57647e-10 0)
(3 7.09825e-10 0)
(3 2.93873e-09 0)
(3 6.88367e-09 0)
(3 2.03716e-08 0)
(3 4.29925e-08 0)
(3 1.18654e-07 0)
(3 2.44876e-07 0)
(3 6.64439e-07 0)
(3 1.36485e-06 0)
(2.99999 3.68601e-06 0)
(2.99999 7.56526e-06 0)
(2.99997 2.0401e-05 0)
(2.99993 4.18384e-05 0)
(2.99984 0.000112893 0)
(2.9996 0.000230913 0)
(2.99913 0.000626495 0)
(2.99779 0.00126879 0)
(2.99519 0.00354592 0)
(2.98737 0.00689837 0)
(2.97227 0.0210916 0)
(2.9252 0.0406971 0)
(2.80807 0.133933 0)
(2.5079 0.323392 0)
(1.97471 0.748086 0)
(3 9.55298e-11 0)
(3 4.23794e-10 0)
(3 1.76836e-09 0)
(3 4.11591e-09 0)
(3 1.22403e-08 0)
(3 2.56647e-08 0)
(3 7.11105e-08 0)
(3 1.45683e-07 0)
(3 3.96794e-07 0)
(3 8.08366e-07 0)
(3 2.19212e-06 0)
(2.99999 4.45801e-06 0)
(2.99998 1.20771e-05 0)
(2.99996 2.45207e-05 0)
(2.9999 6.6492e-05 0)
(2.99977 0.000134574 0)
(2.99943 0.000366683 0)
(2.99877 0.000737102 0)
(2.99679 0.00204501 0)
(2.99328 0.00403525 0)
(2.9812 0.0118042 0)
(2.95964 0.023339 0)
(2.88649 0.071155 0)
(2.70174 0.174331 0)
(2.27565 0.467305 0)
(3 3.01999e-11 0)
(3 3.15773e-10 0)
(3 8.52387e-10 0)
(3 2.84291e-09 0)
(3 6.0596e-09 0)
(3 1.73801e-08 0)
(3 3.52846e-08 0)
(3 9.77467e-08 0)
(3 1.95966e-07 0)
(3 5.38448e-07 0)
(3 1.0748e-06 0)
(3 2.94869e-06 0)
(2.99999 5.86884e-06 0)
(2.99997 1.61138e-05 0)
(2.99993 3.19425e-05 0)
(2.99985 8.80216e-05 0)
(2.99963 0.000173287 0)
(2.99919 0.000484567 0)
(2.99794 0.000925333 0)
(2.99549 0.00277065 0)
(2.98834 0.00481815 0)
(2.97375 0.0167475 0)
(2.93098 0.0283181 0)
(2.82623 0.103357 0)
(2.55609 0.232203 0)
(3 2.13795e-11 0)
(3 1.63841e-10 0)
(3 5.06266e-10 0)
(3 1.50142e-09 0)
(3 3.55168e-09 0)
(3 9.17399e-09 0)
(3 2.05242e-08 0)
(3 5.1286e-08 0)
(3 1.13158e-07 0)
(3 2.80269e-07 0)
(3 6.16027e-07 0)
(3 1.52184e-06 0)
(2.99999 3.3405e-06 0)
(2.99998 8.2466e-06 0)
(2.99996 1.80889e-05 0)
(2.99989 4.4659e-05 0)
(2.99976 9.79148e-05 0)
(2.9994 0.000241432 0)
(2.99869 0.000532554 0)
(2.99653 0.00129004 0)
(2.99276 0.00295747 0)
(2.97925 0.00675595 0)
(2.95546 0.0170351 0)
(2.87149 0.0382569 0)
(2.66408 0.106231 0)
(3 1.90356e-11 0)
(3 6.2571e-11 0)
(3 3.16058e-10 0)
(3 6.29996e-10 0)
(3 2.15414e-09 0)
(3 3.88974e-09 0)
(3 1.23065e-08 0)
(3 2.15053e-08 0)
(3 6.72554e-08 0)
(3 1.15294e-07 0)
(3 3.62926e-07 0)
(3 6.11589e-07 0)
(2.99999 1.94997e-06 0)
(2.99999 3.22319e-06 0)
(2.99996 1.04617e-05 0)
(2.99992 1.68385e-05 0)
(2.99979 5.61533e-05 0)
(2.99955 8.60286e-05 0)
(2.99881 0.000307905 0)
(2.99751 0.000394139 0)
(2.99288 0.00182397 0)
(2.98542 0.00133678 0)
(2.95641 0.0109371 0)
(2.89668 0.00597236 0)
(2.71437 0.0519229 0)
(3 1.39031e-12 0)
(3 5.70475e-11 0)
(3 1.06664e-10 0)
(3 4.90392e-10 0)
(3 7.61667e-10 0)
(3 2.92271e-09 0)
(3 4.25737e-09 0)
(3 1.6002e-08 0)
(3 2.22158e-08 0)
(3 8.55031e-08 0)
(3 1.12749e-07 0)
(3 4.52509e-07 0)
(2.99999 5.59882e-07 0)
(2.99999 2.37976e-06 0)
(2.99997 2.69189e-06 0)
(2.99993 1.24459e-05 0)
(2.99982 1.21672e-05 0)
(2.99961 6.54487e-05 0)
(2.99895 4.32683e-05 0)
(2.99779 0.000377408 0)
(2.99356 -3.12067e-05 0)
(2.98683 0.00253488 0)
(2.95975 -0.00172643 0)
(2.90373 0.0143582 0)
(2.72987 -0.00340581 0)
(3 3.1587e-12 0)
(3 2.40741e-11 0)
(3 7.44418e-11 0)
(3 2.1891e-10 0)
(3 5.16705e-10 0)
(3 1.3181e-09 0)
(3 2.93443e-09 0)
(3 7.22584e-09 0)
(3 1.58456e-08 0)
(3 3.86533e-08 0)
(3 8.44757e-08 0)
(3 2.05495e-07 0)
(3 4.49616e-07 0)
(2.99999 1.09082e-06 0)
(2.99997 2.39601e-06 0)
(2.99993 5.76153e-06 0)
(2.99984 1.28122e-05 0)
(2.99958 2.89607e-05 0)
(2.99907 7.14087e-05 0)
(2.99745 0.000131925 0)
(2.99466 0.000347139 0)
(2.98402 0.000637535 0)
(2.9655 0.00138904 0)
(2.89635 0.00331452 0)
(2.71922 0.00717827 0)
(3 1.31161e-12 0)
(3 6.58598e-12 0)
(3 2.44251e-11 0)
(3 6.2347e-11 0)
(3 1.64043e-10 0)
(3 3.68185e-10 0)
(3 8.88534e-10 0)
(3 1.91847e-09 0)
(3 4.48248e-09 0)
(3 9.5287e-09 0)
(3 2.18736e-08 0)
(3 4.59527e-08 0)
(3 1.04254e-07 0)
(2.99999 2.14651e-07 0)
(2.99997 4.87432e-07 0)
(2.99994 9.62246e-07 0)
(2.99984 2.29729e-06 0)
(2.99965 4.17446e-06 0)
(2.99903 1.40531e-05 0)
(2.99802 1.18025e-05 0)
(2.99398 0.000136489 0)
(2.98769 5.1279e-05 0)
(2.96196 0.001152 0)
(2.90845 0.0018538 0)
(2.74219 0.007524 0)
(3 -4.0271e-12 0)
(3 1.14831e-11 0)
(3 -2.88264e-11 0)
(3 7.81481e-11 0)
(3 -1.86286e-10 0)
(3 4.31351e-10 0)
(3 -1.17175e-09 0)
(3 2.24319e-09 0)
(3 -7.38966e-09 0)
(3 1.12635e-08 0)
(3 -4.66074e-08 0)
(3 5.46416e-08 0)
(3 -2.94283e-07 0)
(2.99999 2.54819e-07 0)
(2.99997 -1.86781e-06 0)
(2.99993 1.1733e-06 0)
(2.99984 -1.19676e-05 0)
(2.99959 7.67846e-06 0)
(2.99908 -8.28248e-05 0)
(2.99755 9.28974e-05 0)
(2.99469 -0.000577029 0)
(2.98487 0.0011285 0)
(2.96702 -0.0035851 0)
(2.90174 0.0084193 0)
(2.7351 -0.0122638 0)
(3 4.66246e-12 0)
(3 -7.65684e-12 0)
(3 4.22518e-11 0)
(3 -4.26984e-11 0)
(3 2.77731e-10 0)
(3 -2.25533e-10 0)
(3 1.66636e-09 0)
(3 -1.20597e-09 0)
(3 9.84794e-09 0)
(3 -6.387e-09 0)
(3 5.82597e-08 0)
(3 -3.28638e-08 0)
(3 3.46951e-07 0)
(2.99999 -1.61852e-07 0)
(2.99997 2.09062e-06 0)
(2.99993 -7.56254e-07 0)
(2.99984 1.28286e-05 0)
(2.9996 -3.51853e-06 0)
(2.9991 8.14179e-05 0)
(2.99761 -3.10415e-05 0)
(2.99484 0.000594733 0)
(2.98526 -0.000563956 0)
(2.96794 0.00461904 0)
(2.90436 -0.00457692 0)
(2.74226 0.0247276 0)
(3 4.1729e-12 0)
(3 -1.03481e-11 0)
(3 3.25278e-11 0)
(3 -6.72674e-11 0)
(3 2.12571e-10 0)
(3 -3.72103e-10 0)
(3 1.29858e-09 0)
(3 -2.01684e-09 0)
(3 7.81676e-09 0)
(3 -1.08869e-08 0)
(3 4.68167e-08 0)
(3 -5.85216e-08 0)
(3 2.80221e-07 0)
(2.99999 -3.13031e-07 0)
(2.99997 1.68647e-06 0)
(2.99994 -1.67419e-06 0)
(2.99984 1.03075e-05 0)
(2.99964 -9.08533e-06 0)
(2.99906 6.49615e-05 0)
(2.99797 -5.82872e-05 0)
(2.99425 0.000472806 0)
(2.98815 -0.000634474 0)
(2.9638 0.0039811 0)
(2.91543 -0.00512518 0)
(2.75688 0.0211103 0)
(3 3.89185e-13 0)
(3 3.12382e-12 0)
(3 9.44493e-12 0)
(3 2.94765e-11 0)
(3 6.98349e-11 0)
(3 1.92967e-10 0)
(3 4.39275e-10 0)
(3 1.17561e-09 0)
(3 2.65103e-09 0)
(3 6.98014e-09 0)
(3 1.56663e-08 0)
(3 4.07451e-08 0)
(3 9.10858e-08 0)
(2.99999 2.34414e-07 0)
(2.99997 5.2168e-07 0)
(2.99994 1.33013e-06 0)
(2.99984 2.93968e-06 0)
(2.99964 7.51022e-06 0)
(2.99906 1.59167e-05 0)
(2.99795 4.60241e-05 0)
(2.99437 7.24781e-05 0)
(2.98818 0.000311256 0)
(2.96466 0.000512509 0)
(2.91784 0.00193885 0)
(2.76202 0.00508811 0)
(3 -2.98335e-12 0)
(3 1.69013e-11 0)
(3 -8.00561e-12 0)
(3 1.29878e-10 0)
(3 -3.42607e-11 0)
(3 7.8515e-10 0)
(3 -1.78881e-10 0)
(3 4.56876e-09 0)
(3 -9.86092e-10 0)
(3 2.63942e-08 0)
(3 -5.53547e-09 0)
(3 1.52111e-07 0)
(3 -3.18991e-08 0)
(2.99999 8.77017e-07 0)
(2.99997 -1.96192e-07 0)
(2.99994 5.08098e-06 0)
(2.99984 -1.41188e-06 0)
(2.99965 2.96927e-05 0)
(2.99909 -1.50502e-05 0)
(2.99802 0.000189953 0)
(2.99447 -0.000236591 0)
(2.98851 0.00140568 0)
(2.96512 -0.00283291 0)
(2.91937 0.00850716 0)
(2.76525 -0.0135739 0)
(3 1.55211e-13 0)
(3 1.32343e-12 0)
(3 4.03917e-12 0)
(3 1.21124e-11 0)
(3 2.89386e-11 0)
(3 7.61237e-11 0)
(3 1.73181e-10 0)
(3 4.4111e-10 0)
(3 9.91933e-10 0)
(3 2.49052e-09 0)
(3 5.56956e-09 0)
(3 1.3827e-08 0)
(3 3.07567e-08 0)
(2.99999 7.56585e-08 0)
(2.99998 1.67318e-07 0)
(2.99994 4.09264e-07 0)
(2.99986 8.99073e-07 0)
(2.99963 2.1992e-06 0)
(2.9992 4.80179e-06 0)
(2.99777 1.20031e-05 0)
(2.99537 2.5514e-05 0)
(2.98603 7.01968e-05 0)
(2.97009 0.000140705 0)
(2.9097 0.000427589 0)
(2.75681 0.001074 0)
(3 3.59127e-12 0)
(3 -1.21146e-11 0)
(3 2.24745e-11 0)
(3 -8.63284e-11 0)
(3 1.36585e-10 0)
(3 -5.12168e-10 0)
(3 7.92625e-10 0)
(3 -2.96804e-09 0)
(3 4.55669e-09 0)
(3 -1.7134e-08 0)
(3 2.61644e-08 0)
(3 -9.88043e-08 0)
(3 1.50759e-07 0)
(2.99999 -5.71428e-07 0)
(2.99997 8.79858e-07 0)
(2.99994 -3.33923e-06 0)
(2.99985 5.32203e-06 0)
(2.99966 -1.99345e-05 0)
(2.9991 3.72917e-05 0)
(2.99804 -0.00013887 0)
(2.99452 0.000363186 0)
(2.98861 -0.00117194 0)
(2.96541 0.00347049 0)
(2.92016 -0.00736774 0)
(2.7672 0.0168811 0)
(1.16188 1.00249 0)
(1.16318 0.710113 0)
(0.483387 0.477867 0)
(-0.447386 0.129245 0)
(-0.405744 -0.0123122 0)
(-0.63498 -0.0141636 0)
(-0.718105 -0.0174091 0)
(-0.768834 -9.38884e-05 0)
(-0.825345 0.0167914 0)
(-0.893942 0.0200868 0)
(-0.958024 0.0166005 0)
(-1.01343 0.0108255 0)
(-1.06481 0.00750014 0)
(-1.11572 0.00593818 0)
(-1.16445 0.0047358 0)
(-1.20861 0.00320603 0)
(-1.24883 0.00140946 0)
(-1.28682 0.00103439 0)
(-1.31401 0.00342418 0)
(-1.3251 0.00357918 0)
(-1.32692 0.00217566 0)
(-1.3197 0.000216561 0)
(-1.29544 -0.00250438 0)
(-1.25065 -0.00607502 0)
(-1.18889 -0.0100185 0)
(-1.11615 -0.0133969 0)
(-1.0382 -0.0156545 0)
(-0.958659 -0.0168955 0)
(-0.879535 -0.0173193 0)
(-0.801654 -0.0173544 0)
(-0.726207 -0.0169615 0)
(-0.65398 -0.0163921 0)
(-0.585039 -0.0158833 0)
(-0.518736 -0.0159352 0)
(-0.454664 -0.0164454 0)
(-0.392112 -0.0173845 0)
(-0.329943 -0.0194721 0)
(-0.269996 -0.020738 0)
(-0.21237 -0.0215423 0)
(-0.156828 -0.0224016 0)
(-0.103094 -0.0232544 0)
(-0.0511685 -0.0244606 0)
(0.000799206 -0.0271533 0)
(0.0562594 -0.0255882 0)
(0.103364 -0.0229396 0)
(0.149672 -0.0215335 0)
(0.193628 -0.0205826 0)
(0.235466 -0.0195386 0)
(0.274461 -0.0184918 0)
(0.311609 -0.0178467 0)
(0.350006 -0.0178509 0)
(0.388614 -0.0176887 0)
(0.42545 -0.0169988 0)
(0.460657 -0.0161761 0)
(0.494697 -0.0154994 0)
(0.527736 -0.0149255 0)
(0.559891 -0.0144108 0)
(0.591193 -0.0139154 0)
(0.621712 -0.013438 0)
(0.651488 -0.0129809 0)
(0.680566 -0.0125396 0)
(0.708981 -0.0121177 0)
(0.736766 -0.0117097 0)
(0.763954 -0.0113192 0)
(0.790576 -0.0109429 0)
(0.816662 -0.0105826 0)
(0.842239 -0.0102352 0)
(0.867331 -0.00990065 0)
(0.891963 -0.00957646 0)
(0.916158 -0.00926128 0)
(0.939934 -0.00895402 0)
(0.963312 -0.00865197 0)
(0.98631 -0.00835709 0)
(1.00894 -0.00806512 0)
(1.03122 -0.00777942 0)
(1.05315 -0.00749561 0)
(1.07475 -0.00721623 0)
(1.09602 -0.00693838 0)
(1.11696 -0.00666279 0)
(1.13758 -0.00638817 0)
(1.15788 -0.00611454 0)
(1.17786 -0.00584098 0)
(1.19751 -0.00556792 0)
(1.21685 -0.00529447 0)
(1.23587 -0.00502107 0)
(1.25458 -0.00474775 0)
(1.27297 -0.00447298 0)
(1.29105 -0.00419781 0)
(1.30881 -0.00391778 0)
(1.32623 -0.00363371 0)
(1.34329 -0.00333804 0)