/*--------------------------------*- C++ -*----------------------------------*\
| =========                 |                                                 |
| \\      /  F ield         | OpenFOAM: The Open Source CFD Toolbox           |
|  \\    /   O peration     | Version:  2412                                  |
|   \\  /    A nd           | Website:  www.openfoam.com                      |
|    \\/     M anipulation  |                                                 |
\*---------------------------------------------------------------------------*/
FoamFile
{
    version     2.0;
    format      ascii;
    arch        "LSB;label=32;scalar=64";
    class       surfaceScalarField;
    location    "4.5";
    object      phi;
}
// * * * * * * * * * * * * * * * * * * * * * * * * * * * * * * * * * * * * * //

dimensions      [1 0 -1 0 0 0 0];

oriented        oriented;

internalField   nonuniform List<scalar> 
10325
(
0.00840003
7.24394e-11
0.00840003
5.61116e-10
0.00840003
1.72187e-09
0.00840002
5.21647e-09
0.00840001
1.22478e-08
0.00839996
3.38574e-08
0.00839989
7.13097e-08
0.00839961
2.20417e-07
0.00839918
4.14875e-07
0.00839724
1.52979e-06
0.00839402
3.08564e-06
0.00838051
1.16431e-05
0.00834678
3.15618e-05
0.00820762
0.000131401
0.00755665
0.000620255
0.0068242
0.000745613
0.00616686
0.000661999
0.00550514
0.000663579
0.00482008
0.000687027
0.00409481
0.000727841
0.00333058
0.000767519
0.00253483
0.00079926
0.00171285
0.000826437
0.000865545
0.000850238
0.000868024
0.00840003
1.40991e-10
0.00840003
1.09423e-09
0.00840003
3.35251e-09
0.00840002
1.01699e-08
0.00840001
2.38145e-08
0.00839997
6.63996e-08
0.00839989
1.37415e-07
0.00839962
4.40948e-07
0.00839922
7.92975e-07
0.00839724
3.11412e-06
0.00839408
6.09516e-06
0.00838034
2.35496e-05
0.00834629
6.34268e-05
0.00821026
0.000259893
0.00759382
0.00120598
0.00684515
0.00150743
0.00620133
0.00131056
0.00555075
0.00131605
0.0048711
0.00136863
0.00413881
0.00146264
0.00336633
0.00154335
0.00255998
0.001609
0.00172282
0.00166795
0.000860198
0.00171578
0.00173056
0.00840003
2.01554e-10
0.00840003
1.56468e-09
0.00840003
4.78695e-09
0.00840002
1.45366e-08
0.00840001
3.4057e-08
0.00839997
9.49678e-08
0.00839991
1.97248e-07
0.00839966
6.3076e-07
0.00839931
1.13002e-06
0.00839759
4.45165e-06
0.00839486
8.66867e-06
0.00838311
3.35033e-05
0.00835425
9.01177e-05
0.00824261
0.000364462
0.00775595
0.00166193
0.00700385
0.00227243
0.0063484
0.00197106
0.00569483
0.0019716
0.00501489
0.0020505
0.00427418
0.00220592
0.00348825
0.00233249
0.00266143
0.00243927
0.00179461
0.00253927
0.000897947
0.00261515
0.00263095
0.00840003
2.4451e-10
0.00840003
1.89859e-09
0.00840003
5.80089e-09
0.00840002
1.76251e-08
0.00840001
4.13305e-08
0.00839999
1.14871e-07
0.00839994
2.40448e-07
0.00839976
7.57521e-07
0.00839951
1.35837e-06
0.00839832
5.29694e-06
0.00839659
1.02421e-05
0.00838888
3.95272e-05
0.00837135
0.000105559
0.00830724
0.000422428
0.00806851
0.0018714
0.00732852
0.00302443
0.00663441
0.00267073
0.00596395
0.00264426
0.00527354
0.00274256
0.00452592
0.00295549
0.00371318
0.00314853
0.00284932
0.00330614
0.00193603
0.00345638
0.000972352
0.00358135
0.00360535
0.00840003
2.60166e-10
0.00840003
2.017e-09
0.00840003
6.18187e-09
0.00840003
1.8705e-08
0.00840002
4.40922e-08
0.00840001
1.19807e-07
0.00839998
2.60967e-07
0.00839993
7.61887e-07
0.00839983
1.44453e-06
0.00839953
5.29511e-06
0.00839943
1.02126e-05
0.00839909
3.83598e-05
0.00839621
0.000106548
0.00840901
0.000405073
0.00863111
0.00162231
0.00791033
0.00375311
0.0070884
0.00349734
0.00637188
0.00336416
0.00565549
0.00346151
0.00489198
0.00372163
0.0040514
0.00399247
0.00313323
0.00422725
0.00214761
0.00444687
0.00109696
0.00463435
0.00470409
0.00840003
2.56404e-10
0.00840003
1.98684e-09
0.00840003
6.12578e-09
0.00840003
1.84312e-08
0.00840003
4.35867e-08
0.00840003
1.16165e-07
0.00840003
2.57845e-07
0.00840005
7.06834e-07
0.00840003
1.43926e-06
0.00840038
4.73942e-06
0.00840152
9.0304e-06
0.00840511
3.3673e-05
0.00841718
9.32533e-05
0.00850861
0.000313127
0.00882165
0.00129297
0.00828393
0.00428759
0.00744569
0.0043367
0.0067357
0.00407526
0.00604411
0.00415437
0.00528129
0.00448677
0.00442818
0.00484849
0.00348265
0.00517572
0.00242893
0.00550427
0.00125867
0.00580691
0.00596393
0.00840003
2.6398e-10
0.00840003
2.04396e-09
0.00840003
6.32854e-09
0.00840003
1.8976e-08
0.00840003
4.47688e-08
0.00840002
1.18387e-07
0.00840001
2.62578e-07
0.00839999
7.06205e-07
0.00839998
1.43517e-06
0.00839993
4.64032e-06
0.00840046
8.46601e-06
0.00840119
3.22125e-05
0.0084082
8.50427e-05
0.00844134
0.00027796
0.00857322
0.00114817
0.00823281
0.00461686
0.00753263
0.0050352
0.00696775
0.00464136
0.00633423
0.00478955
0.00563303
0.00518967
0.00480076
0.00568312
0.00385199
0.00612656
0.00276296
0.00659621
0.00149328
0.00707845
0.00745783
0.00840003
3.12942e-10
0.00840003
2.42346e-09
0.00840003
7.49845e-09
0.00840002
2.24669e-08
0.00840001
5.3175e-08
0.00839999
1.39977e-07
0.00839994
3.13296e-07
0.00839981
8.16349e-07
0.00839948
1.75723e-06
0.00839902
4.97556e-06
0.00839733
1.01294e-05
0.00839586
3.30545e-05
0.0083976
8.27505e-05
0.00837282
0.000300662
0.00848479
0.00102802
0.00814575
0.00494406
0.00785446
0.0053268
0.00722777
0.00526943
0.00656363
0.00545569
0.00592804
0.00582737
0.00517707
0.00643577
0.00426918
0.00703631
0.0031731
0.00769448
0.00181117
0.00844168
0.0092691
0.00840003
3.34432e-10
0.00840003
3.14379e-09
0.00840003
9.48978e-09
0.00840002
2.88894e-08
0.0084
6.79349e-08
0.00839996
1.821e-07
0.00839987
3.99954e-07
0.00839961
1.06206e-06
0.00839914
2.22423e-06
0.008398
6.01662e-06
0.00839627
1.18295e-05
0.0083912
3.75973e-05
0.00839294
8.05835e-05
0.00837563
0.000316199
0.00843056
0.000967696
0.00826991
0.00509339
0.00785191
0.00574595
0.00737933
0.00574366
0.00683526
0.00600109
0.00624224
0.00642236
0.00557246
0.00710716
0.00475061
0.00785977
0.00375783
0.00868892
0.0023564
0.00984389
0.0116251
0.00840003
1.46864e-10
0.00840003
4.58029e-09
0.00840003
6.97397e-09
0.00840002
3.96223e-08
0.00840004
5.01222e-08
0.00839996
2.55029e-07
0.00840009
2.67887e-07
0.00839955
1.58727e-06
0.00840057
1.20133e-06
0.0083968
9.69623e-06
0.00840358
5.02614e-06
0.00837701
6.36685e-05
0.00842037
3.69955e-05
0.0082902
0.000444606
0.00843594
0.000817966
0.00836452
0.00515327
0.00796793
0.0061441
0.00754863
0.00616448
0.0071253
0.00642573
0.00660586
0.00694328
0.00606745
0.00764668
0.00544273
0.00848637
0.00454654
0.00958695
0.00321395
0.0111777
0.0148381
0.00840003
5.19479e-10
0.00840003
7.89559e-10
0.00840003
7.71023e-09
0.00840006
8.65647e-09
0.00840006
5.49811e-08
0.00840026
5.16853e-08
0.00840015
3.6851e-07
0.00840149
2.62732e-07
0.00840001
2.62692e-06
0.00840822
1.43812e-06
0.00839428
1.86576e-05
0.0084466
1.05029e-05
0.00834226
0.000139944
0.00861747
0.000168787
0.00830965
0.00112205
0.00853206
0.00491867
0.00816045
0.00651801
0.00774963
0.00657728
0.00739191
0.00678428
0.00702958
0.00730721
0.00665346
0.00802401
0.00622853
0.00891258
0.00583686
0.00998018
0.00585248
0.0111635
0.0118544
0.00883678
0.00840003
2.84338e-10
0.00840003
1.5333e-09
0.00840003
5.2627e-09
0.00840003
1.45896e-08
0.00840004
3.70761e-08
0.0084
9.06871e-08
0.00840014
2.26924e-07
0.00839985
5.3985e-07
0.00840113
1.37137e-06
0.00839875
3.8253e-06
0.00840882
8.72583e-06
0.00839034
2.95146e-05
0.00845932
7.10626e-05
0.00832822
0.000298189
0.00863128
0.000816595
0.00904756
0.00448986
0.00857322
0.0069949
0.00805271
0.00709995
0.00770724
0.00713083
0.00743505
0.00758018
0.0071849
0.00827605
0.00697714
0.00912222
0.00693318
0.0100254
0.00738777
0.0107101
0.0107406
0.00849909
0.00840003
2.62682e-10
0.00840003
2.0444e-09
0.00840003
6.25451e-09
0.00840002
1.89765e-08
0.00840002
4.49158e-08
0.00839998
1.20768e-07
0.00839994
2.72146e-07
0.00839975
7.21532e-07
0.00839951
1.60049e-06
0.00839891
4.37678e-06
0.00839802
9.5707e-06
0.0083977
2.95026e-05
0.00840375
6.48247e-05
0.00845113
0.000249429
0.00857957
0.000686172
0.00980788
0.00324956
0.00920542
0.00759997
0.00854861
0.00775934
0.00813812
0.00754297
0.00787431
0.00784446
0.00771764
0.00843354
0.00768981
0.00915156
0.00788016
0.00983735
0.00841271
0.0101792
0.010005
0.00914788
0.00840003
2.70229e-10
0.00840003
2.10236e-09
0.00840003
6.41648e-09
0.00840003
1.94576e-08
0.00840003
4.60388e-08
0.00840002
1.23612e-07
0.00840002
2.7894e-07
0.0084
7.30724e-07
0.00839994
1.65616e-06
0.00840009
4.18611e-06
0.00839942
1.02077e-05
0.00840491
2.37736e-05
0.00840332
6.62433e-05
0.00847246
0.000179169
0.00860778
0.00055096
0.00966765
0.00218272
0.00958978
0.00767431
0.00925058
0.00809852
0.00866338
0.00813117
0.00835997
0.00814883
0.00825302
0.00854143
0.00833928
0.00906667
0.00859734
0.00958026
0.00903094
0.00974722
0.00944578
0.00959291
0.00840003
2.33507e-10
0.00840003
1.81214e-09
0.00840003
5.57339e-09
0.00840003
1.67975e-08
0.00840004
3.98725e-08
0.00840006
1.0579e-07
0.0084001
2.39026e-07
0.0084002
6.16342e-07
0.00840046
1.39544e-06
0.00840108
3.536e-06
0.00840315
8.09417e-06
0.00840539
2.136e-05
0.00842167
4.96945e-05
0.00844652
0.000153489
0.00854199
0.000454343
0.00897729
0.00174424
0.00961656
0.00702534
0.00938422
0.00832925
0.00904646
0.00846829
0.00880316
0.00839302
0.00872746
0.00861793
0.00883571
0.00895898
0.00912664
0.0092912
0.00950119
0.00937279
0.00903129
0.00991685
0.00840003
1.88687e-10
0.00840003
1.45993e-09
0.00840003
4.52384e-09
0.00840003
1.35547e-08
0.00840004
3.21367e-08
0.00840006
8.45889e-08
0.00840011
1.89672e-07
0.00840023
4.94327e-07
0.00840057
1.05439e-06
0.00840106
3.01306e-06
0.00840338
5.786e-06
0.00840499
1.95598e-05
0.00841635
3.83688e-05
0.00843001
0.000139052
0.00851924
0.000364468
0.00878124
0.00147988
0.00970723
0.00609075
0.00959785
0.00843852
0.00938514
0.00868082
0.00919001
0.00858835
0.00914002
0.0086695
0.00922312
0.00887711
0.00947813
0.0090391
0.00981681
0.00903201
0.00870791
0.0101448
0.00840003
1.65865e-10
0.00840003
1.28477e-09
0.00840003
3.95784e-09
0.00840003
1.18993e-08
0.00840004
2.81786e-08
0.00840005
7.4564e-08
0.00840007
1.67284e-07
0.00840012
4.34504e-07
0.00840022
9.55344e-07
0.00840064
2.57808e-06
0.0084011
5.31979e-06
0.00840368
1.6837e-05
0.00840936
3.26871e-05
0.00842702
0.000120692
0.00848442
0.000306548
0.00873928
0.00122246
0.010372
0.00444908
0.0100826
0.00872759
0.00987013
0.00889326
0.009605
0.00885352
0.00955681
0.00871735
0.00962911
0.0088053
0.00980291
0.00886686
0.0100647
0.00877283
0.00845154
0.0103212
0.00840003
1.37145e-10
0.00840003
1.11134e-09
0.00840003
3.44363e-09
0.00840003
1.02631e-08
0.00840004
2.45618e-08
0.00840005
6.42956e-08
0.00840007
1.46439e-07
0.00840013
3.73768e-07
0.00840024
8.40142e-07
0.00840066
2.15442e-06
0.00840119
4.77352e-06
0.00840506
1.28811e-05
0.0084102
2.76756e-05
0.00844672
8.353e-05
0.00853498
0.000218933
0.00902565
0.000728998
0.010988
0.00248336
0.0109383
0.00877309
0.0105882
0.00924381
0.0101944
0.00924848
0.00997134
0.00894133
0.0099819
0.00879487
0.0101034
0.0087448
0.0102813
0.0085951
0.00826458
0.0104689
0.00840003
5.46225e-11
0.00840003
1.13055e-09
0.00840003
2.17021e-09
0.00840003
9.90571e-09
0.00840004
1.59633e-08
0.00840004
6.15783e-08
0.00840009
9.56698e-08
0.00840011
3.59308e-07
0.00840041
5.38691e-07
0.00840041
2.13544e-06
0.00840242
2.76433e-06
0.00840164
1.35811e-05
0.00841602
1.32882e-05
0.00840831
9.08072e-05
0.00852612
0.000101026
0.00857862
0.00067501
0.00942091
0.00163872
0.0109804
0.00720409
0.0109223
0.00930015
0.0106773
0.00949236
0.0103893
0.00922976
0.0103126
0.00887286
0.0103783
0.00868041
0.0104986
0.00847608
0.00814418
0.0106199
0.00840003
9.60727e-11
0.00840003
5.63841e-10
0.00840003
2.05155e-09
0.00840004
5.37503e-09
0.00840004
1.44594e-08
0.00840006
3.34986e-08
0.00840007
8.49141e-08
0.00840024
1.91071e-07
0.00840028
4.93765e-07
0.00840137
1.04954e-06
0.00840101
3.09725e-06
0.00840873
5.87181e-06
0.00840158
2.02626e-05
0.00845338
3.90613e-05
0.00840969
0.000143972
0.00872696
0.000357341
0.00888528
0.0014777
0.0109823
0.00510089
0.0111735
0.00910756
0.0110919
0.00957284
0.0108505
0.00947109
0.0106646
0.00905892
0.0106263
0.00871962
0.0106798
0.00842421
0.00806682
0.0107581
0.00840003
1.19497e-10
0.00840003
3.55482e-10
0.00840003
2.04332e-09
0.00840003
3.61934e-09
0.00840003
1.41181e-08
0.00840004
2.29972e-08
0.00840004
8.3317e-08
0.0084001
1.32724e-07
0.00840012
4.78755e-07
0.00840042
7.41146e-07
0.0084007
2.8072e-06
0.00840256
3.99435e-06
0.00840511
1.76372e-05
0.00842208
2.20767e-05
0.00844887
0.000116821
0.00861174
0.000193618
0.00923275
0.000856118
0.0115319
0.00279404
0.0118101
0.0088259
0.0117007
0.00968213
0.0113966
0.00977555
0.011119
0.00933741
0.0109759
0.00886323
0.0109253
0.00847624
0.00807202
0.0109211
0.00840003
4.01796e-11
0.00840003
4.42237e-10
0.00840003
1.00911e-09
0.00840003
3.9885e-09
0.00840004
7.28003e-09
0.00840004
2.48287e-08
0.00840008
4.33486e-08
0.00840006
1.43488e-07
0.00840029
2.47342e-07
0.00840021
8.22275e-07
0.00840162
1.39038e-06
0.00840072
4.86213e-06
0.00841062
7.72459e-06
0.00840163
3.08883e-05
0.00847086
4.743e-05
0.00844897
0.000214772
0.00884732
0.000456731
0.00978009
0.0018586
0.0116468
0.00695015
0.0118068
0.00952203
0.0117334
0.00984919
0.0114179
0.00965428
0.0112962
0.00898549
0.0112158
0.00855731
0.00813026
0.0111583
0.00840003
5.87657e-11
0.00840003
2.26986e-10
0.00840003
1.12681e-09
0.00840003
2.23792e-09
0.00840003
7.88364e-09
0.00840004
1.4233e-08
0.00840004
4.68648e-08
0.0084001
8.30479e-08
0.00840007
2.69909e-07
0.00840042
4.76234e-07
0.00840025
1.55141e-06
0.00840238
2.72769e-06
0.00840085
9.19123e-06
0.00841626
1.54797e-05
0.00840341
5.99198e-05
0.00851831
9.97795e-05
0.00851424
0.000459481
0.00924806
0.00112345
0.0118176
0.00436976
0.0120479
0.00928997
0.0120609
0.00983805
0.0119093
0.00980785
0.0115617
0.00933447
0.0114457
0.00867433
0.00820731
0.0113684
0.00840003
2.13746e-11
0.00840003
2.46793e-10
0.00840003
5.65202e-10
0.00840003
2.22177e-09
0.00840003
4.1032e-09
0.00840003
1.38479e-08
0.00840006
2.45846e-08
0.00840006
8.02174e-08
0.00840019
1.41163e-07
0.0084002
4.58948e-07
0.00840095
7.99235e-07
0.00840099
2.67643e-06
0.00840576
4.4125e-06
0.0084046
1.65411e-05
0.00843996
2.45654e-05
0.00842955
0.000109642
0.0087073
0.000181516
0.00897075
0.000858464
0.0109622
0.00237545
0.0124052
0.00783947
0.0124472
0.00979467
0.0122619
0.00999275
0.011878
0.00971933
0.011711
0.00884301
0.00834295
0.011577
0.00840003
2.32545e-11
0.00840003
1.33402e-10
0.00840003
4.95077e-10
0.00840003
1.27141e-09
0.00840003
3.48899e-09
0.00840004
7.96235e-09
0.00840004
2.05608e-08
0.00840008
4.57023e-08
0.0084001
1.16533e-07
0.0084003
2.56916e-07
0.00840043
6.61968e-07
0.00840168
1.42511e-06
0.00840214
3.93007e-06
0.00841076
7.92148e-06
0.00841022
2.49126e-05
0.0084711
4.87596e-05
0.00847646
0.000175257
0.00892034
0.000414115
0.00951929
0.00177439
0.0120388
0.00531287
0.012471
0.0093602
0.012599
0.00986434
0.0125059
0.0098128
0.0120505
0.00929802
0.00859142
0.0118029
0.00840003
2.38142e-11
0.00840003
7.98185e-11
0.00840003
4.18388e-10
0.00840003
8.03442e-10
0.00840003
2.89413e-09
0.00840003
5.08921e-09
0.00840004
1.69935e-08
0.00840005
2.93329e-08
0.00840007
9.6382e-08
0.00840017
1.65158e-07
0.00840028
5.44216e-07
0.00840078
9.20393e-07
0.00840159
3.11076e-06
0.00840441
5.077e-06
0.00841072
1.85347e-05
0.00843041
2.89204e-05
0.00848585
0.000119438
0.00867552
0.000223734
0.00954368
0.000904542
0.0120625
0.00278984
0.0129758
0.00844215
0.0129739
0.0098657
0.0127942
0.00999226
0.0124394
0.00965305
0.00886245
0.0121682
0.00840003
8.40339e-12
0.00840003
8.50856e-11
0.00840003
2.06611e-10
0.00840003
7.69688e-10
0.00840003
1.48494e-09
0.00840003
4.77833e-09
0.00840004
8.8202e-09
0.00840004
2.74609e-08
0.00840009
5.0206e-08
0.0084001
1.55302e-07
0.00840036
2.82854e-07
0.0084004
8.77726e-07
0.00840191
1.5901e-06
0.00840193
5.02824e-06
0.00841149
8.95943e-06
0.00840989
3.03541e-05
0.00847596
5.32396e-05
0.00849677
0.000202141
0.00893679
0.000463488
0.00998419
0.00173989
0.01256
0.00585656
0.0129694
0.00945448
0.0131544
0.00980703
0.0129687
0.00983883
0.00925219
0.0125784
0.00840003
1.01153e-11
0.00840003
3.9418e-11
0.00840003
1.90683e-10
0.00840003
3.89966e-10
0.00840003
1.32855e-09
0.00840003
2.46744e-09
0.00840003
7.8207e-09
0.00840005
1.42575e-08
0.00840005
4.44196e-08
0.00840013
8.06767e-08
0.00840016
2.50731e-07
0.00840058
4.54358e-07
0.00840074
1.4206e-06
0.00840321
2.55029e-06
0.00840386
8.24908e-06
0.00841986
1.43247e-05
0.00842214
5.06152e-05
0.00853583
8.8245e-05
0.00864284
0.000354976
0.00955314
0.000827768
0.0124738
0.00292448
0.0133295
0.00859551
0.013352
0.00978447
0.013252
0.00993888
0.00964243
0.0128623
0.00840003
4.69758e-12
0.00840003
3.33202e-11
0.00840003
1.03848e-10
0.00840003
3.10493e-10
0.00840003
7.37217e-10
0.00840003
1.93161e-09
0.00840003
4.34448e-09
0.00840004
1.10368e-08
0.00840006
2.45347e-08
0.00840008
6.18052e-08
0.00840019
1.3699e-07
0.0084003
3.44653e-07
0.00840095
7.62556e-07
0.00840154
1.9515e-06
0.00840558
4.20247e-06
0.00840811
1.17055e-05
0.00843516
2.35349e-05
0.0084472
7.57786e-05
0.00864654
0.000155112
0.00886402
0.000609114
0.0101496
0.00163515
0.012903
0.00583423
0.0133469
0.00934019
0.0135364
0.00975022
0.00977724
0.0134028
0.00840003
1.95473e-12
0.00840003
2.69536e-11
0.00840003
6.15343e-11
0.00840003
2.392e-10
0.00840003
4.4576e-10
0.00840003
1.47284e-09
0.00840003
2.6438e-09
0.00840004
8.40936e-09
0.00840004
1.49915e-08
0.00840006
4.72302e-08
0.00840011
8.40453e-08
0.00840019
2.64675e-07
0.00840048
4.691e-07
0.00840093
1.49124e-06
0.00840253
2.59241e-06
0.00840554
8.64912e-06
0.00841497
1.40635e-05
0.00843749
5.2931e-05
0.008506
8.63439e-05
0.0087588
0.000354896
0.00955401
0.000838226
0.0125141
0.00286283
0.013572
0.00828039
0.0136611
0.00966175
0.00977586
0.0136634
0.00840003
2.30764e-12
0.00840003
1.33253e-11
0.00840003
4.91409e-11
0.00840003
1.26997e-10
0.00840003
3.45698e-10
0.00840003
7.92041e-10
0.00840003
2.02472e-09
0.00840004
4.52234e-09
0.00840004
1.1377e-08
0.00840006
2.52813e-08
0.00840008
6.32716e-08
0.00840021
1.40441e-07
0.00840032
3.51111e-07
0.00840103
7.78533e-07
0.00840164
1.97565e-06
0.008406
4.27637e-06
0.00840824
1.17412e-05
0.00843744
2.37033e-05
0.00844784
7.5557e-05
0.00864846
0.000153748
0.00889188
0.000593812
0.010185
0.00156627
0.0130385
0.0054197
0.0136486
0.00905093
0.00958767
0.0138375
0.00840003
2.05046e-12
0.00840003
7.5087e-12
0.00840003
3.67549e-11
0.00840003
7.48211e-11
0.00840003
2.53795e-10
0.00840003
4.7108e-10
0.00840003
1.47998e-09
0.00840003
2.69699e-09
0.00840004
8.31333e-09
0.00840005
1.50948e-08
0.00840006
4.63059e-08
0.00840012
8.39297e-08
0.00840021
2.577e-07
0.00840052
4.65165e-07
0.00840105
1.44121e-06
0.00840276
2.55847e-06
0.00840621
8.25246e-06
0.00841589
1.39972e-05
0.0084417
4.9548e-05
0.00850969
8.55801e-05
0.00877907
0.000323681
0.00955681
0.000787438
0.0123988
0.00257468
0.013749
0.00769628
0.00948745
0.0138487
0.00840003
6.78149e-13
0.00840003
6.82059e-12
0.00840003
1.70249e-11
0.00840003
6.16419e-11
0.00840003
1.22052e-10
0.00840003
3.79897e-10
0.00840003
7.19109e-10
0.00840003
2.15849e-09
0.00840004
4.04943e-09
0.00840004
1.20342e-08
0.00840006
2.25466e-08
0.00840008
6.68002e-08
0.00840021
1.25053e-07
0.0084003
3.70819e-07
0.00840105
6.92591e-07
0.00840152
2.07883e-06
0.00840597
3.80277e-06
0.00840773
1.21684e-05
0.00843645
2.08167e-05
0.00844445
7.72217e-05
0.00863401
0.000133975
0.00886326
0.000556995
0.00996804
0.00146782
0.0131145
0.00454181
0.0086808
0.0139187
0.00840003
5.80369e-13
0.00840003
3.44836e-12
0.00840003
1.26516e-11
0.00840003
3.27016e-11
0.00840003
8.89208e-11
0.00840003
2.03368e-10
0.00840003
5.19786e-10
0.00840003
1.15691e-09
0.00840003
2.91282e-09
0.00840004
6.44061e-09
0.00840004
1.61527e-08
0.00840008
3.56412e-08
0.00840011
8.93143e-08
0.00840028
1.96779e-07
0.00840048
4.93769e-07
0.00840147
1.08854e-06
0.00840251
2.74807e-06
0.0084086
6.06929e-06
0.0084135
1.58273e-05
0.0084559
3.47967e-05
0.00849072
9.87262e-05
0.00880958
0.000237671
0.00950052
0.000775683
0.0118342
0.00220438
0.00664152
0.0138688
0.00840003
4.04996e-13
0.00840003
2.20209e-12
0.00840003
8.11909e-12
0.00840003
2.09807e-11
0.00840003
5.67742e-11
0.00840003
1.30473e-10
0.00840003
3.31095e-10
0.00840003
7.41105e-10
0.00840003
1.85209e-09
0.00840003
4.11971e-09
0.00840004
1.02545e-08
0.00840005
2.27733e-08
0.00840009
5.66126e-08
0.00840016
1.2562e-07
0.00840034
3.12266e-07
0.00840073
6.91811e-07
0.00840175
1.72623e-06
0.008404
3.80934e-06
0.00841005
9.725e-06
0.0084238
2.10086e-05
0.00846336
5.88619e-05
0.00857532
0.000125591
0.00892664
0.000423142
0.00998457
0.00114453
0.00374399
0.0128729
0.00840003
3.17026e-13
0.00840003
1.18776e-12
0.00840003
5.66575e-12
0.00840003
1.18444e-11
0.00840003
3.90654e-11
0.00840003
7.43462e-11
0.00840003
2.26705e-10
0.00840003
4.23428e-10
0.00840003
1.26538e-09
0.00840003
2.35631e-09
0.00840004
6.99819e-09
0.00840005
1.30357e-08
0.00840006
3.8625e-08
0.00840012
7.19637e-08
0.00840022
2.13261e-07
0.00840051
3.96691e-07
0.00840105
1.18091e-06
0.00840267
2.18618e-06
0.00840576
6.60487e-06
0.00841459
1.21517e-05
0.00843525
3.80321e-05
0.00848815
7.2551e-05
0.00867175
0.000238652
0.00922765
0.000589399
0.00191776
0.0110503
0.00840003
1.27972e-13
0.00840003
9.05709e-13
0.00840003
2.83687e-12
0.00840003
8.42756e-12
0.00840003
2.00259e-11
0.00840003
5.2025e-11
0.00840003
1.16778e-10
0.00840003
2.93884e-10
0.00840003
6.51088e-10
0.00840003
1.62436e-09
0.00840004
3.58847e-09
0.00840004
8.9236e-09
0.00840006
1.97052e-08
0.00840008
4.89108e-08
0.00840019
1.08011e-07
0.00840031
2.67856e-07
0.0084009
5.91755e-07
0.00840161
1.4702e-06
0.00840497
3.24737e-06
0.00840888
8.17895e-06
0.00842888
1.80279e-05
0.00845367
4.74552e-05
0.00858397
0.000108005
0.00885956
0.00031313
0.000877875
0.00990189
0.00840003
5.5213e-14
0.00840003
6.2718e-13
0.00840003
1.55364e-12
0.00840003
5.59731e-12
0.00840003
1.11194e-11
0.00840003
3.41455e-11
0.00840003
6.49581e-11
0.00840003
1.91875e-10
0.00840003
3.61673e-10
0.00840003
1.05705e-09
0.00840003
1.98933e-09
0.00840004
5.79337e-09
0.00840004
1.09026e-08
0.00840006
3.16964e-08
0.00840011
5.96129e-08
0.00840021
1.73253e-07
0.00840047
3.24869e-07
0.008401
9.47135e-07
0.00840249
1.76387e-06
0.00840542
5.2183e-06
0.008414
9.59123e-06
0.00843046
2.94243e-05
0.0084903
5.55363e-05
0.00861527
0.000177039
0.000422288
0.00910286
0.00840003
6.05568e-14
0.00840003
2.65111e-13
0.00840003
1.17315e-12
0.00840003
2.58574e-12
0.00840003
8.11821e-12
0.00840003
1.60945e-11
0.00840003
4.69249e-11
0.00840003
9.09557e-11
0.00840003
2.6013e-10
0.00840003
5.01867e-10
0.00840003
1.4272e-09
0.00840003
2.75215e-09
0.00840004
7.81007e-09
0.00840005
1.5065e-08
0.00840007
4.27167e-08
0.00840016
8.23839e-08
0.00840025
2.3375e-07
0.00840075
4.50336e-07
0.00840123
1.28303e-06
0.00840397
2.46594e-06
0.00840646
7.10686e-06
0.00842205
1.37341e-05
0.00843705
4.05962e-05
0.00853168
8.19121e-05
0.000257181
0.00869744
0.00840003
2.62382e-14
0.00840003
1.85674e-13
0.00840003
5.80056e-13
0.00840003
1.72261e-12
0.00840003
4.08575e-12
0.00840003
1.05912e-11
0.00840003
2.37106e-11
0.00840003
5.94776e-11
0.00840003
1.31323e-10
0.00840003
3.26515e-10
0.00840003
7.18561e-10
0.00840003
1.78138e-09
0.00840004
3.91804e-09
0.00840004
9.69841e-09
0.00840006
2.13339e-08
0.00840009
5.27421e-08
0.00840021
1.16044e-07
0.00840037
2.86635e-07
0.00840102
6.30997e-07
0.00840192
1.56074e-06
0.00840559
3.43491e-06
0.00841066
8.61542e-06
0.00843236
1.88835e-05
0.00846393
4.99316e-05
0.00011111
0.00861046
0.00840003
1.09533e-14
0.00840003
1.21906e-13
0.00840003
3.06418e-13
0.00840003
1.08969e-12
0.00840003
2.18737e-12
0.00840003
6.62538e-12
0.00840003
1.27163e-11
0.00840003
3.70089e-11
0.00840003
7.032e-11
0.00840003
2.02365e-10
0.00840003
3.83687e-10
0.00840003
1.1e-09
0.00840003
2.08503e-09
0.00840004
5.96782e-09
0.00840005
1.13113e-08
0.00840007
3.23546e-08
0.00840012
6.12756e-08
0.00840023
1.75396e-07
0.00840053
3.31279e-07
0.00840114
9.51602e-07
0.00840278
1.78737e-06
0.00840621
5.19828e-06
0.00841526
9.66787e-06
0.00843647
2.88635e-05
5.58616e-05
0.00849068
0.00840003
1.09209e-14
0.00840003
5.00911e-14
0.00840003
2.17825e-13
0.00840003
4.83742e-13
0.00840003
1.50431e-12
0.00840003
2.99209e-12
0.00840003
8.64243e-12
0.00840003
1.67728e-11
0.00840003
4.75207e-11
0.00840003
9.16589e-11
0.00840003
2.58279e-10
0.00840003
4.97304e-10
0.00840003
1.39894e-09
0.00840004
2.69168e-09
0.00840004
7.56795e-09
0.00840006
1.45519e-08
0.00840008
4.09259e-08
0.00840017
7.86015e-08
0.00840028
2.21421e-07
0.00840081
4.2447e-07
0.00840138
1.20151e-06
0.00840428
2.29705e-06
0.00840732
6.57446e-06
0.00842353
1.26389e-05
3.70326e-05
0.00844213
0.00840003
3.44787e-15
0.00840003
3.5952e-14
0.00840003
9.02798e-14
0.00840003
3.22743e-13
0.00840003
6.41428e-13
0.00840003
1.95649e-12
0.00840003
3.70003e-12
0.00840003
1.08592e-11
0.00840003
2.02541e-11
0.00840003
5.88773e-11
0.00840003
1.09219e-10
0.00840003
3.16926e-10
0.00840003
5.85861e-10
0.00840003
1.70076e-09
0.00840004
3.13409e-09
0.00840004
9.10912e-09
0.00840007
1.67295e-08
0.0084001
4.87125e-08
0.00840023
8.91033e-08
0.00840039
2.60322e-07
0.00840111
4.73863e-07
0.008402
1.39467e-06
0.00840604
2.51865e-06
0.008411
7.59772e-06
1.34551e-05
0.0084345
0.00840003
2.56522e-15
0.00840003
1.50585e-14
0.00840003
5.48772e-14
0.00840003
1.42784e-13
0.00840003
3.81348e-13
0.00840003
8.72814e-13
0.00840003
2.17059e-12
0.00840003
4.81784e-12
0.00840003
1.17395e-11
0.00840003
2.58478e-11
0.00840003
6.24899e-11
0.00840003
1.37296e-10
0.00840003
3.30336e-10
0.00840003
7.25411e-10
0.00840003
1.7377e-09
0.00840004
3.81585e-09
0.00840005
9.09704e-09
0.00840007
1.99787e-08
0.00840011
4.73685e-08
0.00840027
1.04047e-07
0.00840049
2.45168e-07
0.00840134
5.38911e-07
0.00840256
1.26235e-06
0.00840734
2.78012e-06
6.53264e-06
0.00841402
0.00840003
2.38473e-15
0.00840003
5.15576e-15
0.00840003
3.4332e-14
0.00840003
5.54733e-14
0.00840003
2.30673e-13
0.00840003
3.42092e-13
0.00840003
1.30433e-12
0.00840003
1.85864e-12
0.00840003
7.03548e-12
0.00840003
9.70129e-12
0.00840003
3.73987e-11
0.00840003
4.98065e-11
0.00840003
1.97613e-10
0.00840003
2.52989e-10
0.00840003
1.04021e-09
0.00840003
1.27192e-09
0.00840004
5.4583e-09
0.00840005
6.3161e-09
0.00840007
2.85781e-08
0.00840014
3.08231e-08
0.00840023
1.49673e-07
0.00840061
1.46381e-07
0.00840105
7.8897e-07
0.00840314
6.46145e-07
4.3987e-06
0.00840503
0.00840003
6.87493e-16
0.00840003
3.72377e-15
0.00840003
1.29995e-14
0.00840003
3.58464e-14
0.00840003
8.99724e-14
0.00840003
2.16889e-13
0.00840003
5.06885e-13
0.00840003
1.17362e-12
0.00840003
2.70061e-12
0.00840003
6.13654e-12
0.00840003
1.41179e-11
0.00840003
3.16316e-11
0.00840003
7.31729e-11
0.00840003
1.61589e-10
0.00840003
3.77025e-10
0.00840003
8.18543e-10
0.00840003
1.93183e-09
0.00840004
4.10715e-09
0.00840005
9.84251e-09
0.00840006
2.03705e-08
0.00840016
4.98934e-08
0.00840019
9.95108e-08
0.00840071
2.5268e-07
0.00840078
4.73825e-07
1.31023e-06
0.00840377
0.00840003
2.26707e-16
0.00840003
2.40704e-15
0.00840003
7.12592e-15
0.00840003
2.21703e-14
0.00840003
4.94417e-14
0.00840003
1.3206e-13
0.00840003
2.79239e-13
0.00840003
7.21839e-13
0.00840003
1.49257e-12
0.00840003
3.85291e-12
0.00840003
7.84784e-12
0.00840003
2.043e-11
0.00840003
4.10204e-11
0.00840003
1.08172e-10
0.00840003
2.13936e-10
0.00840003
5.73069e-10
0.00840003
1.11481e-09
0.00840003
3.04071e-09
0.00840004
5.79973e-09
0.00840004
1.61542e-08
0.00840005
2.97078e-08
0.00840005
8.63313e-08
0.00840014
1.40389e-07
0.00840005
4.68923e-07
4.78606e-07
0.00840076
0.00840003
-3.20355e-16
0.00840003
2.91214e-15
0.00840003
1.26833e-15
0.00840003
2.16814e-14
0.00840003
1.08256e-14
0.00840003
1.28627e-13
0.00840003
6.12398e-14
0.00840003
7.20746e-13
0.00840003
3.17548e-13
0.00840003
3.99325e-12
0.00840003
1.60794e-12
0.00840003
2.21112e-11
0.00840003
8.08653e-12
0.00840003
1.22711e-10
0.00840003
4.06169e-11
0.00840003
6.8354e-10
0.00840003
2.03376e-10
0.00840003
3.82929e-09
0.00840003
9.91092e-10
0.00840003
2.16174e-08
0.00840005
3.56445e-09
0.00839999
1.2555e-07
0.00840012
-1.30327e-08
0.0083997
7.94065e-07
-6.28013e-07
0.00840068
0.00840003
4.74962e-16
0.00840003
-1.02717e-15
0.00840003
3.79864e-15
0.00840003
-5.36745e-15
0.00840003
2.39163e-14
0.00840003
-3.08997e-14
0.00840003
1.32493e-13
0.00840003
-1.95346e-13
0.00840003
7.16453e-13
0.00840003
-1.24623e-12
0.00840003
3.83549e-12
0.00840003
-7.89636e-12
0.00840003
2.03686e-11
0.00840003
-4.96518e-11
0.00840003
1.07262e-10
0.00840003
-3.10633e-10
0.00840003
5.60965e-10
0.00840004
-1.94251e-09
0.00840003
2.93821e-09
0.00840006
-1.21877e-08
0.00840004
1.63688e-08
0.00840023
-7.93711e-08
0.00840005
1.18037e-07
0.0084013
-5.79597e-07
1.18302e-06
0.00839918
0.00840003
0.00840003
0.00840003
0.00840003
0.00840003
0.00840003
0.00840003
0.00840003
0.00840003
0.00840003
0.00840003
0.00840003
0.00840003
0.00840003
0.00840003
0.00840003
0.00840003
0.00840003
0.00840003
0.00840001
0.00840003
0.00839993
0.00840003
0.00839934
0.0084004
0.00469816
0.00413724
0.0030612
0.00163572
0.00236393
0.000694871
0.00204905
0.000305764
0.00199022
4.69505e-05
0.00214572
-0.000185711
0.00221931
-0.000124223
0.00190652
0.000228966
0.00120269
0.000584992
0.000477024
0.000679488
-0.000150564
0.000632616
-0.000707797
0.000537589
-0.00125873
0.000513711
-0.00168963
0.000444223
-0.00201099
0.000334384
-0.00224105
0.000227894
-0.00237202
0.000135958
-0.00245761
9.14102e-05
-0.00253535
8.35802e-05
-0.00261877
9.12803e-05
-0.00270414
9.17672e-05
-0.00278417
8.42937e-05
-0.00285137
7.38733e-05
-0.00290421
5.97546e-05
-0.0029485
5.04194e-05
-0.00299687
5.32944e-05
-0.00304006
4.56542e-05
-0.00306428
2.7098e-05
-0.00307002
5.18886e-06
-0.00304655
-2.66732e-05
-0.00298014
-7.18535e-05
-0.00286489
-0.000122969
-0.0027015
-0.000171501
-0.00249406
-0.000216011
-0.00225133
-0.000250278
-0.00198847
-0.000270197
-0.00171259
-0.000282365
-0.00143337
-0.000284274
-0.00114258
-0.000295192
-0.000853025
-0.000293085
-0.000567716
-0.000288222
-0.000282894
-0.000287322
1.74192e-05
-0.000302373
0.00029502
-0.000279255
0.000553608
-0.000259705
0.000800708
-0.000247965
0.00103808
-0.000237951
0.00126367
-0.00022609
0.00147767
-0.000214424
0.00168085
-0.000203436
0.00187842
-0.000197621
0.00207139
-0.000192977
0.00225545
-0.000184207
0.00242893
-0.000173437
0.00259343