/*--------------------------------*- C++ -*----------------------------------*\
| =========                 |                                                 |
| \\      /  F ield         | OpenFOAM: The Open Source CFD Toolbox           |
|  \\    /   O peration     | Version:  2412                                  |
|   \\  /    A nd           | Website:  www.openfoam.com                      |
|    \\/     M anipulation  |                                                 |
\*---------------------------------------------------------------------------*/
FoamFile
{
    version     2.0;
    format      ascii;
    arch        "LSB;label=32;scalar=64";
    class       volVectorField;
    location    "4.5";
    object      U;
}
// * * * * * * * * * * * * * * * * * * * * * * * * * * * * * * * * * * * * * //

dimensions      [0 1 -1 0 0 0 0];

internalField   nonuniform List<vector> 
5250
(
(3 1.07868e-08 0)
(2.99999 8.36826e-08 0)
(2.99996 2.5734e-07 0)
(2.99991 7.79772e-07 0)
(2.99978 1.83255e-06 0)
(2.99951 5.06029e-06 0)
(2.99867 1.06581e-05 0)
(2.99724 3.28305e-05 0)
(2.99175 6.14499e-05 0)
(2.98311 0.000222995 0)
(2.94772 0.000437355 0)
(2.87057 0.00152429 0)
(2.63834 0.00362442 0)
(1.88982 0.0117866 0)
(0.903752 0.0304955 0)
(0.393228 0.0269917 0)
(0.514742 0.0258173 0)
(0.545908 0.0270729 0)
(0.485715 0.0285611 0)
(0.391679 0.0303492 0)
(0.309449 0.0322421 0)
(0.243826 0.0342001 0)
(0.177432 0.0361075 0)
(0.104705 0.038134 0)
(0.0445321 0.0405723 0)
(3 3.17824e-08 0)
(2.99999 2.46902e-07 0)
(2.99996 7.58609e-07 0)
(2.99992 2.3004e-06 0)
(2.99978 5.39669e-06 0)
(2.99952 1.49837e-05 0)
(2.9987 3.12181e-05 0)
(2.99728 9.84607e-05 0)
(2.99191 0.000179669 0)
(2.98343 0.000678707 0)
(2.94876 0.00131688 0)
(2.8734 0.00468477 0)
(2.64609 0.0112068 0)
(1.91291 0.0365149 0)
(0.91751 0.0928956 0)
(0.391349 0.0779345 0)
(0.51661 0.0707311 0)
(0.549496 0.0719902 0)
(0.489532 0.0740846 0)
(0.395827 0.077062 0)
(0.313313 0.0795379 0)
(0.246824 0.081732 0)
(0.179171 0.0835049 0)
(0.104726 0.0848789 0)
(0.0431812 0.0853235 0)
(3 5.10382e-08 0)
(2.99999 3.97026e-07 0)
(2.99996 1.21917e-06 0)
(2.99992 3.701e-06 0)
(2.99979 8.68092e-06 0)
(2.99953 2.4168e-05 0)
(2.99874 5.02029e-05 0)
(2.99737 0.000159874 0)
(2.99223 0.00028756 0)
(2.98407 0.00110976 0)
(2.95092 0.00213889 0)
(2.87938 0.0076968 0)
(2.66273 0.0185284 0)
(1.96466 0.0606218 0)
(0.951769 0.156494 0)
(0.395849 0.131625 0)
(0.526349 0.117855 0)
(0.562455 0.120125 0)
(0.502901 0.124575 0)
(0.409338 0.131388 0)
(0.325529 0.136612 0)
(0.257173 0.141116 0)
(0.187206 0.145069 0)
(0.109636 0.148023 0)
(0.0445868 0.148219 0)
(3 6.65261e-08 0)
(2.99999 5.18052e-07 0)
(2.99997 1.59057e-06 0)
(2.99992 4.83265e-06 0)
(2.9998 1.13521e-05 0)
(2.99955 3.15511e-05 0)
(2.99881 6.59898e-05 0)
(2.99748 0.000208065 0)
(2.9927 0.000374993 0)
(2.98499 0.00143738 0)
(2.95404 0.00276593 0)
(2.88799 0.00995389 0)
(2.68688 0.0240222 0)
(2.04178 0.0787233 0)
(1.00684 0.208843 0)
(0.411382 0.186519 0)
(0.545614 0.168595 0)
(0.586276 0.170494 0)
(0.527719 0.176242 0)
(0.434112 0.186637 0)
(0.347551 0.195083 0)
(0.275934 0.202671 0)
(0.202192 0.209631 0)
(0.119387 0.215033 0)
(0.0481997 0.215644 0)
(3 7.52435e-08 0)
(2.99999 5.85399e-07 0)
(2.99997 1.7986e-06 0)
(2.99993 5.45459e-06 0)
(2.99981 1.28519e-05 0)
(2.99958 3.52656e-05 0)
(2.99889 7.55197e-05 0)
(2.99762 0.000227802 0)
(2.99325 0.000421723 0)
(2.98608 0.00156233 0)
(2.95777 0.00299848 0)
(2.89825 0.0106858 0)
(2.71591 0.0264086 0)
(2.13806 0.0843835 0)
(1.08833 0.226887 0)
(0.455588 0.230296 0)
(0.579978 0.219351 0)
(0.622256 0.222074 0)
(0.564878 0.229083 0)
(0.471236 0.242837 0)
(0.380659 0.25527 0)
(0.304207 0.266796 0)
(0.22492 0.277732 0)
(0.134595 0.286626 0)
(0.0546269 0.288528 0)
(3 7.69e-08 0)
(2.99999 5.96313e-07 0)
(2.99997 1.83432e-06 0)
(2.99993 5.53509e-06 0)
(2.99982 1.30735e-05 0)
(2.99961 3.51722e-05 0)
(2.99897 7.73237e-05 0)
(2.99777 0.00021845 0)
(2.9938 0.000427547 0)
(2.98715 0.00147019 0)
(2.96139 0.00278215 0)
(2.90868 0.00981963 0)
(2.7439 0.0248632 0)
(2.22665 0.0726283 0)
(1.18802 0.20353 0)
(0.49643 0.263085 0)
(0.606093 0.271088 0)
(0.650306 0.273949 0)
(0.598484 0.282166 0)
(0.509515 0.300395 0)
(0.418002 0.318546 0)
(0.338247 0.335408 0)
(0.254139 0.351892 0)
(0.155355 0.366581 0)
(0.0639515 0.372345 0)
(3 7.7224e-08 0)
(2.99999 5.96382e-07 0)
(2.99997 1.83492e-06 0)
(2.99994 5.5081e-06 0)
(2.99983 1.29795e-05 0)
(2.99963 3.44637e-05 0)
(2.99904 7.62692e-05 0)
(2.99792 0.000207031 0)
(2.99429 0.000418194 0)
(2.98806 0.00135736 0)
(2.96452 0.00248628 0)
(2.91764 0.00889302 0)
(2.7643 0.0221936 0)
(2.29596 0.0590872 0)
(1.29875 0.179468 0)
(0.542376 0.303629 0)
(0.618139 0.331653 0)
(0.660991 0.325143 0)
(0.622007 0.333439 0)
(0.543705 0.356564 0)
(0.45542 0.382932 0)
(0.375414 0.407705 0)
(0.288958 0.432776 0)
(0.182907 0.457197 0)
(0.0782106 0.47246 0)
(3 8.55153e-08 0)
(2.99999 6.59805e-07 0)
(2.99997 2.03155e-06 0)
(2.99994 6.08563e-06 0)
(2.99985 1.43427e-05 0)
(2.99966 3.78393e-05 0)
(2.99911 8.41071e-05 0)
(2.99806 0.000222275 0)
(2.99476 0.000463486 0)
(2.98889 0.0013864 0)
(2.9675 0.00265032 0)
(2.92588 0.00885131 0)
(2.78247 0.0212674 0)
(2.36382 0.0597473 0)
(1.43383 0.173071 0)
(0.618016 0.34973 0)
(0.626802 0.378479 0)
(0.657756 0.371387 0)
(0.639759 0.384094 0)
(0.576249 0.410422 0)
(0.494316 0.446004 0)
(0.416706 0.481554 0)
(0.331345 0.519609 0)
(0.220669 0.560334 0)
(0.100422 0.597354 0)
(3 1.05808e-07 0)
(2.99999 8.12549e-07 0)
(2.99998 2.50618e-06 0)
(2.99995 7.49213e-06 0)
(2.99986 1.77857e-05 0)
(2.99969 4.66921e-05 0)
(2.9992 0.00010529 0)
(2.99823 0.000268437 0)
(2.99526 0.00060229 0)
(2.98989 0.00153054 0)
(2.97059 0.0034048 0)
(2.93378 0.0090683 0)
(2.8033 0.0222217 0)
(2.4327 0.0631283 0)
(1.58011 0.167642 0)
(0.708879 0.391078 0)
(0.634936 0.408425 0)
(0.663223 0.410709 0)
(0.658373 0.432164 0)
(0.608523 0.462172 0)
(0.537281 0.50638 0)
(0.46536 0.555277 0)
(0.385723 0.609403 0)
(0.278239 0.676856 0)
(0.140102 0.761311 0)
(3 4.95333e-08 0)
(2.99999 1.29615e-06 0)
(2.99998 2.63019e-06 0)
(2.99995 1.15176e-05 0)
(2.99988 1.91012e-05 0)
(2.99973 7.40787e-05 0)
(2.9993 0.000105707 0)
(2.99847 0.000452987 0)
(2.99581 0.000488561 0)
(2.99123 0.00265223 0)
(2.97366 0.00185394 0)
(2.94208 0.0160692 0)
(2.82379 0.0109649 0)
(2.49598 0.0918442 0)
(1.7202 0.15978 0)
(0.805121 0.435234 0)
(0.639253 0.442625 0)
(0.673097 0.447657 0)
(0.680475 0.474719 0)
(0.642901 0.511507 0)
(0.58595 0.562632 0)
(0.523981 0.624179 0)
(0.459077 0.700964 0)
(0.373962 0.815589 0)
(0.21416 1.02133 0)
(3 9.05322e-08 0)
(2.99999 7.06513e-07 0)
(2.99999 2.17371e-06 0)
(2.99996 6.56886e-06 0)
(2.99991 1.55726e-05 0)
(2.99976 4.14559e-05 0)
(2.99951 9.35226e-05 0)
(2.99855 0.000243297 0)
(2.99708 0.000542933 0)
(2.99104 0.00144069 0)
(2.98143 0.00312611 0)
(2.94197 0.00917211 0)
(2.85527 0.021361 0)
(2.59141 0.0641488 0)
(1.78874 0.185466 0)
(0.929607 0.469792 0)
(0.64744 0.473627 0)
(0.687823 0.480903 0)
(0.708398 0.510283 0)
(0.682174 0.554212 0)
(0.639613 0.610706 0)
(0.597073 0.682827 0)
(0.567083 0.780537 0)
(0.565916 0.927846 0)
(0.603047 1.17038 0)
(3 1.34193e-07 0)
(2.99999 1.28861e-07 0)
(2.99998 1.75696e-06 0)
(2.99996 1.70147e-06 0)
(2.99991 1.22223e-05 0)
(2.9998 9.12845e-06 0)
(2.99947 8.1428e-05 0)
(2.99884 3.62544e-05 0)
(2.99681 0.000584686 0)
(2.99338 0.000291911 0)
(2.98009 0.00423523 0)
(2.95717 0.00285509 0)
(2.86912 0.0305079 0)
(2.64102 0.0467594 0)
(2.05105 0.190593 0)
(1.05756 0.511127 0)
(0.670604 0.515067 0)
(0.712697 0.520963 0)
(0.74364 0.543781 0)
(0.727822 0.58935 0)
(0.699333 0.649243 0)
(0.679406 0.727891 0)
(0.685922 0.834087 0)
(0.746574 0.979531 0)
(0.893765 1.16553 0)
(3 7.29951e-08 0)
(3 5.70295e-07 0)
(2.99999 1.75159e-06 0)
(2.99997 5.31847e-06 0)
(2.99992 1.25459e-05 0)
(2.99982 3.38113e-05 0)
(2.99954 7.53388e-05 0)
(2.99897 0.000205684 0)
(2.9973 0.000426261 0)
(2.99408 0.00134555 0)
(2.98366 0.00244181 0)
(2.96394 0.00929384 0)
(2.89518 0.0179535 0)
(2.71786 0.0683654 0)
(2.25725 0.16822 0)
(1.2268 0.502672 0)
(0.730465 0.553738 0)
(0.754345 0.571326 0)
(0.786966 0.580811 0)
(0.781849 0.621009 0)
(0.765073 0.68067 0)
(0.764537 0.75872 0)
(0.797085 0.859115 0)
(0.884867 0.981496 0)
(1.05641 1.10186 0)
(3 7.96197e-08 0)
(3 6.21962e-07 0)
(2.99999 1.9111e-06 0)
(2.99997 5.79905e-06 0)
(2.99993 1.37632e-05 0)
(2.99985 3.69448e-05 0)
(2.99961 8.35283e-05 0)
(2.99914 0.000219595 0)
(2.99775 0.000493591 0)
(2.99506 0.00128869 0)
(2.98665 0.00296174 0)
(2.9703 0.00775616 0)
(2.91601 0.0183325 0)
(2.77936 0.053069 0)
(2.41653 0.136953 0)
(1.42165 0.410201 0)
(0.824926 0.577931 0)
(0.803072 0.61449 0)
(0.82732 0.623997 0)
(0.838055 0.653671 0)
(0.833133 0.707314 0)
(0.845113 0.778253 0)
(0.891595 0.863412 0)
(0.986948 0.95797 0)
(1.15182 1.03707 0)
(3 7.51966e-08 0)
(3 5.86153e-07 0)
(2.99999 1.80311e-06 0)
(2.99998 5.45484e-06 0)
(2.99995 1.29536e-05 0)
(2.99988 3.45661e-05 0)
(2.99969 7.81738e-05 0)
(2.99931 0.000202978 0)
(2.99819 0.000460181 0)
(2.99614 0.00115867 0)
(2.98901 0.00273658 0)
(2.97694 0.00658055 0)
(2.93122 0.0164135 0)
(2.82404 0.0422879 0)
(2.52419 0.112275 0)
(1.62153 0.321423 0)
(0.935835 0.61584 0)
(0.837081 0.651966 0)
(0.857732 0.66742 0)
(0.882329 0.685412 0)
(0.893937 0.729073 0)
(0.916238 0.78959 0)
(0.968945 0.858932 0)
(1.0631 0.929896 0)
(1.21255 0.98436 0)
(3 6.27488e-08 0)
(3 4.85684e-07 0)
(2.99999 1.4961e-06 0)
(2.99998 4.49575e-06 0)
(2.99996 1.06513e-05 0)
(2.9999 2.81537e-05 0)
(2.99975 6.32794e-05 0)
(2.99946 0.000163927 0)
(2.99855 0.000360007 0)
(2.99697 0.000961398 0)
(2.99114 0.00202134 0)
(2.98183 0.00587867 0)
(2.9445 0.0124602 0)
(2.86354 0.0381788 0)
(2.62108 0.095151 0)
(1.85858 0.288958 0)
(1.09887 0.652275 0)
(0.871072 0.682835 0)
(0.883418 0.698861 0)
(0.916262 0.709176 0)
(0.945169 0.743838 0)
(0.977052 0.794298 0)
(1.03261 0.850851 0)
(1.12208 0.905103 0)
(1.25435 0.944168 0)
(3 5.26756e-08 0)
(3 4.06859e-07 0)
(2.99999 1.25371e-06 0)
(2.99999 3.76059e-06 0)
(2.99997 8.89632e-06 0)
(2.99992 2.34721e-05 0)
(2.9998 5.25528e-05 0)
(2.99956 0.000136777 0)
(2.99885 0.000294811 0)
(2.99753 0.000820368 0)
(2.99308 0.00162111 0)
(2.98572 0.0052656 0)
(2.95703 0.0102401 0)
(2.89692 0.035091 0)
(2.713 0.0826711 0)
(2.12892 0.265947 0)
(1.30804 0.661803 0)
(0.935471 0.713764 0)
(0.923565 0.724918 0)
(0.952968 0.730871 0)
(0.99274 0.754016 0)
(1.03077 0.794766 0)
(1.08643 0.841194 0)
(1.16973 0.883815 0)
(1.28598 0.913132 0)
(3 4.62647e-08 0)
(3 3.57593e-07 0)
(3 1.10202e-06 0)
(2.99999 3.3099e-06 0)
(2.99997 7.85023e-06 0)
(2.99994 2.07455e-05 0)
(2.99985 4.67113e-05 0)
(2.99966 0.000120715 0)
(2.99912 0.000267377 0)
(2.99807 0.000704188 0)
(2.99482 0.00150234 0)
(2.98907 0.00433399 0)
(2.96853 0.00883552 0)
(2.92708 0.0275651 0)
(2.79747 0.0673147 0)
(2.40306 0.200018 0)
(1.6014 0.551016 0)
(1.05908 0.723871 0)
(0.991894 0.748332 0)
(1.00351 0.758911 0)
(1.04251 0.769019 0)
(1.08375 0.797761 0)
(1.13617 0.834126 0)
(1.21122 0.867288 0)
(1.31269 0.889362 0)
(3 2.55835e-08 0)
(3 3.39279e-07 0)
(3 8.36553e-07 0)
(2.99999 3.04866e-06 0)
(2.99998 6.07091e-06 0)
(2.99995 1.9043e-05 0)
(2.99988 3.63553e-05 0)
(2.99974 0.000111107 0)
(2.99934 0.000206791 0)
(2.99856 0.000651603 0)
(2.9961 0.0011089 0)
(2.99186 0.00398327 0)
(2.97592 0.00560103 0)
(2.94758 0.024618 0)
(2.8433 0.0389454 0)
(2.56218 0.154082 0)
(1.89707 0.370923 0)
(1.18121 0.741102 0)
(1.04055 0.775502 0)
(1.0436 0.790583 0)
(1.08159 0.792135 0)
(1.12929 0.806238 0)
(1.18074 0.83173 0)
(1.24824 0.856561 0)
(1.33682 0.872626 0)
(3 1.85171e-08 0)
(3 2.51154e-07 0)
(3 6.13593e-07 0)
(2.99999 2.2518e-06 0)
(2.99999 4.43647e-06 0)
(2.99996 1.3978e-05 0)
(2.99992 2.63352e-05 0)
(2.9998 8.07814e-05 0)
(2.99957 0.000149693 0)
(2.99882 0.000466599 0)
(2.99759 0.000828061 0)
(2.99283 0.00284354 0)
(2.98535 0.00448288 0)
(2.95559 0.0186395 0)
(2.89279 0.0304364 0)
(2.69937 0.122237 0)
(2.12765 0.304363 0)
(1.38284 0.750044 0)
(1.09722 0.806508 0)
(1.0839 0.81753 0)
(1.1141 0.816056 0)
(1.16624 0.817161 0)
(1.22022 0.832577 0)
(1.28218 0.850142 0)
(1.35985 0.861584 0)
(3 3.51133e-08 0)
(3 1.2988e-07 0)
(3 6.09455e-07 0)
(3 1.29169e-06 0)
(2.99999 4.22374e-06 0)
(2.99997 8.11646e-06 0)
(2.99994 2.48215e-05 0)
(2.99985 4.62814e-05 0)
(2.99966 0.000143119 0)
(2.99913 0.000251425 0)
(2.99808 0.000869515 0)
(2.99491 0.0013328 0)
(2.98908 0.00565656 0)
(2.96946 0.00805458 0)
(2.92858 0.0366564 0)
(2.80348 0.0689164 0)
(2.43122 0.247238 0)
(1.6901 0.619296 0)
(1.21232 0.808793 0)
(1.14608 0.834203 0)
(1.15684 0.840332 0)
(1.20351 0.834136 0)
(1.25825 0.838516 0)
(1.31517 0.84822 0)
(1.38341 0.854784 0)
(3 2.18677e-08 0)
(3 1.19204e-07 0)
(3 4.43048e-07 0)
(3 1.13712e-06 0)
(2.99999 3.12245e-06 0)
(2.99998 7.15723e-06 0)
(2.99995 1.85251e-05 0)
(2.9999 4.14321e-05 0)
(2.99974 0.000106062 0)
(2.99943 0.00023543 0)
(2.99849 0.000605688 0)
(2.9968 0.0013303 0)
(2.99097 0.00353462 0)
(2.9809 0.00762119 0)
(2.94488 0.0211874 0)
(2.86091 0.0520364 0)
(2.6247 0.142125 0)
(1.9539 0.42571 0)
(1.35679 0.788972 0)
(1.20063 0.844554 0)
(1.19572 0.863955 0)
(1.23365 0.859104 0)
(1.28999 0.851069 0)
(1.34512 0.851565 0)
(1.40632 0.8529 0)
(3 1.26615e-08 0)
(3 9.83113e-08 0)
(3 3.02853e-07 0)
(3 9.11309e-07 0)
(2.99999 2.16063e-06 0)
(2.99999 5.70957e-06 0)
(2.99997 1.28523e-05 0)
(2.99992 3.30987e-05 0)
(2.99982 7.35399e-05 0)
(2.99954 0.000189848 0)
(2.99899 0.000415422 0)
(2.99735 0.00111389 0)
(2.99432 0.00233409 0)
(2.9841 0.00677225 0)
(2.96538 0.0144917 0)
(2.90015 0.0415549 0)
(2.73666 0.112722 0)
(2.29509 0.300065 0)
(1.55146 0.763742 0)
(1.26841 0.862567 0)
(1.23824 0.883003 0)
(1.25938 0.883499 0)
(1.31189 0.869052 0)
(1.3701 0.860472 0)
(1.4284 0.856487 0)
(3 1.26956e-08 0)
(3 6.81124e-08 0)
(3 2.54618e-07 0)
(3 6.52754e-07 0)
(3 1.80221e-06 0)
(2.99999 4.13176e-06 0)
(2.99998 1.07646e-05 0)
(2.99995 2.41045e-05 0)
(2.99987 6.21279e-05 0)
(2.99971 0.000138326 0)
(2.99926 0.000356564 0)
(2.9984 0.000794754 0)
(2.99569 0.00206657 0)
(2.991 0.0045591 0)
(2.97389 0.0123786 0)
(2.94196 0.0282848 0)
(2.83377 0.0793956 0)
(2.53936 0.22333 0)
(1.88447 0.582423 0)
(1.38339 0.855083 0)
(1.29243 0.890419 0)
(1.29389 0.902085 0)
(1.33431 0.889862 0)
(1.39185 0.872567 0)
(1.44893 0.863403 0)
(3 4.91378e-09 0)
(3 5.68443e-08 0)
(3 1.47597e-07 0)
(3 5.14022e-07 0)
(3 1.06579e-06 0)
(2.99999 3.19405e-06 0)
(2.99999 6.33938e-06 0)
(2.99996 1.83966e-05 0)
(2.99992 3.6091e-05 0)
(2.99979 0.000104383 0)
(2.99954 0.000203124 0)
(2.99878 0.00059824 0)
(2.99745 0.00112619 0)
(2.99269 0.00359062 0)
(2.98504 0.00625351 0)
(2.95563 0.0225074 0)
(2.89526 0.0427391 0)
(2.70649 0.145876 0)
(2.16277 0.394245 0)
(1.57219 0.823658 0)
(1.35564 0.899107 0)
(1.3333 0.915193 0)
(1.35462 0.909265 0)
(1.40788 0.888301 0)
(1.46723 0.872599 0)
(3 7.49589e-09 0)
(3 3.07628e-08 0)
(3 1.3483e-07 0)
(3 3.02464e-07 0)
(3 9.37398e-07 0)
(3 1.90463e-06 0)
(2.99999 5.50564e-06 0)
(2.99997 1.09328e-05 0)
(2.99994 3.11694e-05 0)
(2.99985 6.13041e-05 0)
(2.99968 0.000176333 0)
(2.99917 0.000337653 0)
(2.99818 0.00103062 0)
(2.99527 0.00182237 0)
(2.98966 0.00638726 0)
(2.97221 0.0105643 0)
(2.935 0.0405422 0)
(2.82428 0.0800175 0)
(2.496 0.278986 0)
(1.8732 0.662705 0)
(1.46618 0.879171 0)
(1.392 0.912612 0)
(1.39018 0.921795 0)
(1.42857 0.906681 0)
(1.48452 0.88218 0)
(3 4.4718e-09 0)
(3 2.43766e-08 0)
(3 9.04722e-08 0)
(3 2.32174e-07 0)
(3 6.35652e-07 0)
(3 1.45577e-06 0)
(2.99999 3.75107e-06 0)
(2.99998 8.38362e-06 0)
(2.99996 2.13188e-05 0)
(2.99991 4.73522e-05 0)
(2.99977 0.000120224 0)
(2.99949 0.000266148 0)
(2.99869 0.000679303 0)
(2.99715 0.00149437 0)
(2.99235 0.0038957 0)
(2.98363 0.0085436 0)
(2.95419 0.0231324 0)
(2.88763 0.0550616 0)
(2.69618 0.154031 0)
(2.15955 0.440394 0)
(1.62422 0.840167 0)
(1.4496 0.913543 0)
(1.42844 0.9302 0)
(1.44694 0.924223 0)
(1.49647 0.898371 0)
(3 2.35628e-09 0)
(3 1.82867e-08 0)
(3 5.63521e-08 0)
(3 1.69294e-07 0)
(3 4.01249e-07 0)
(3 1.05648e-06 0)
(3 2.37732e-06 0)
(2.99999 6.08513e-06 0)
(2.99997 1.35299e-05 0)
(2.99994 3.44533e-05 0)
(2.99986 7.63192e-05 0)
(2.99964 0.000194755 0)
(2.9992 0.000430006 0)
(2.99795 0.00110932 0)
(2.99553 0.0024344 0)
(2.98817 0.00649077 0)
(2.97361 0.0142395 0)
(2.92863 0.0389036 0)
(2.81854 0.101686 0)
(2.51316 0.272379 0)
(1.87262 0.711576 0)
(1.54046 0.894123 0)
(1.4768 0.927666 0)
(1.47598 0.936195 0)
(1.51199 0.920016 0)
(3 2.39711e-09 0)
(3 1.01231e-08 0)
(3 4.35333e-08 0)
(3 9.9431e-08 0)
(3 3.03348e-07 0)
(3 6.26993e-07 0)
(3 1.78367e-06 0)
(2.99999 3.60895e-06 0)
(2.99998 1.01034e-05 0)
(2.99996 2.03284e-05 0)
(2.9999 5.67869e-05 0)
(2.99978 0.000113857 0)
(2.99945 0.000319704 0)
(2.99882 0.000636591 0)
(2.99683 0.00182349 0)
(2.99344 0.00357233 0)
(2.98116 0.0107066 0)
(2.95971 0.0213997 0)
(2.88272 0.0654213 0)
(2.68926 0.160982 0)
(2.21253 0.451709 0)
(1.67526 0.856731 0)
(1.52587 0.929494 0)
(1.50705 0.94525 0)
(1.52458 0.9395 0)
(3 8.53325e-10 0)
(3 8.84586e-09 0)
(3 2.39875e-08 0)
(3 8.00807e-08 0)
(3 1.71814e-07 0)
(3 4.9466e-07 0)
(3 1.01415e-06 0)
(3 2.82252e-06 0)
(2.99999 5.72852e-06 0)
(2.99997 1.58137e-05 0)
(2.99994 3.19668e-05 0)
(2.99986 8.8291e-05 0)
(2.99964 0.000177468 0)
(2.99921 0.000498064 0)
(2.99797 0.000967513 0)
(2.99557 0.00293756 0)
(2.9884 0.00521397 0)
(2.97399 0.0181547 0)
(2.93066 0.0319687 0)
(2.82269 0.117249 0)
(2.53959 0.269909 0)
(1.93238 0.715652 0)
(1.61615 0.903547 0)
(1.5522 0.940358 0)
(1.55016 0.949739 0)
(3 5.80872e-10 0)
(3 5.90387e-09 0)
(3 1.61072e-08 0)
(3 5.34631e-08 0)
(3 1.15222e-07 0)
(3 3.30283e-07 0)
(3 6.80063e-07 0)
(3 1.88591e-06 0)
(2.99999 3.84552e-06 0)
(2.99998 1.05804e-05 0)
(2.99996 2.15183e-05 0)
(2.99991 5.91564e-05 0)
(2.99979 0.000119999 0)
(2.99947 0.000331267 0)
(2.99886 0.000668312 0)
(2.99699 0.00187416 0)
(2.99375 0.00372918 0)
(2.98214 0.0108517 0)
(2.962 0.0221731 0)
(2.88977 0.0659629 0)
(2.71164 0.162026 0)
(2.27013 0.44779 0)
(1.75572 0.852733 0)
(1.60224 0.93609 0)
(1.57995 0.954649 0)
(3 6.78443e-10 0)
(3 2.979e-09 0)
(3 1.24948e-08 0)
(3 2.90278e-08 0)
(3 8.67216e-08 0)
(3 1.8179e-07 0)
(3 5.06228e-07 0)
(3 1.03806e-06 0)
(3 2.84127e-06 0)
(2.99999 5.79573e-06 0)
(2.99998 1.57951e-05 0)
(2.99994 3.21227e-05 0)
(2.99987 8.76386e-05 0)
(2.99966 0.000177334 0)
(2.99926 0.000490751 0)
(2.99812 0.000963529 0)
(2.99587 0.00286199 0)
(2.98935 0.00517726 0)
(2.97592 0.0175578 0)
(2.93698 0.0313533 0)
(2.84046 0.112074 0)
(2.58663 0.259211 0)
(2.02014 0.688254 0)
(1.70052 0.89746 0)
(1.62772 0.943871 0)
(3 3.84092e-10 0)
(3 2.09129e-09 0)
(3 7.74939e-09 0)
(3 1.98826e-08 0)
(3 5.42058e-08 0)
(3 1.23927e-07 0)
(3 3.17334e-07 0)
(3 7.0732e-07 0)
(3 1.78511e-06 0)
(2.99999 3.95499e-06 0)
(2.99998 9.95003e-06 0)
(2.99997 2.19992e-05 0)
(2.99991 5.5362e-05 0)
(2.99981 0.00012218 0)
(2.99952 0.00030849 0)
(2.99896 0.000678822 0)
(2.99727 0.00172929 0)
(2.99431 0.00381381 0)
(2.98388 0.00981109 0)
(2.96572 0.0227555 0)
(2.90238 0.0589321 0)
(2.74763 0.156413 0)
(2.35438 0.407612 0)
(1.84962 0.827918 0)
(1.68031 0.931095 0)
(3 1.50494e-10 0)
(3 1.49898e-09 0)
(3 4.12836e-09 0)
(3 1.35924e-08 0)
(3 2.94993e-08 0)
(3 8.37417e-08 0)
(3 1.73399e-07 0)
(3 4.75464e-07 0)
(3 9.74377e-07 0)
(3 2.64743e-06 0)
(2.99999 5.41214e-06 0)
(2.99998 1.4668e-05 0)
(2.99995 2.99319e-05 0)
(2.99987 8.11959e-05 0)
(2.99972 0.000165137 0)
(2.99931 0.000453073 0)
(2.99849 0.000901829 0)
(2.99608 0.0026135 0)
(2.99168 0.00489978 0)
(2.9773 0.0158128 0)
(2.9492 0.0298666 0)
(2.86223 0.0986506 0)
(2.62664 0.243906 0)
(2.14675 0.622842 0)
(1.78974 0.888448 0)
(3 1.50969e-10 0)
(3 8.15038e-10 0)
(3 3.02284e-09 0)
(3 7.75001e-09 0)
(3 2.11015e-08 0)
(3 4.81868e-08 0)
(3 1.23083e-07 0)
(3 2.7387e-07 0)
(3 6.88854e-07 0)
(3 1.52313e-06 0)
(2.99999 3.81587e-06 0)
(2.99999 8.42023e-06 0)
(2.99997 2.10774e-05 0)
(2.99992 4.64305e-05 0)
(2.99983 0.000116353 0)
(2.99957 0.000255736 0)
(2.99907 0.000645447 0)
(2.99764 0.00140362 0)
(2.99488 0.00367266 0)
(2.98645 0.00768986 0)
(2.9707 0.0216654 0)
(2.91992 0.0474571 0)
(2.79369 0.138594 0)
(2.4752 0.359723 0)
(1.98144 0.772935 0)
(3 1.07506e-10 0)
(3 4.92878e-10 0)
(3 2.01707e-09 0)
(3 4.76845e-09 0)
(3 1.39744e-08 0)
(3 2.97324e-08 0)
(3 8.12528e-08 0)
(3 1.69017e-07 0)
(3 4.53979e-07 0)
(3 9.39995e-07 0)
(3 2.51234e-06 0)
(2.99999 5.1989e-06 0)
(2.99998 1.387e-05 0)
(2.99995 2.86944e-05 0)
(2.9999 7.65431e-05 0)
(2.99975 0.000158099 0)
(2.99944 0.000423122 0)
(2.9986 0.000869641 0)
(2.99692 0.00236631 0)
(2.99218 0.00476828 0)
(2.9824 0.0138067 0)
(2.95471 0.0271948 0)
(2.88896 0.0844522 0)
(2.71176 0.199398 0)
(2.26343 0.550541 0)
(3 6.54131e-11 0)
(3 3.00716e-10 0)
(3 1.22742e-09 0)
(3 2.90949e-09 0)
(3 8.50231e-09 0)
(3 1.81302e-08 0)
(3 4.93858e-08 0)
(3 1.02917e-07 0)
(3 2.75481e-07 0)
(3 5.71229e-07 0)
(3 1.52151e-06 0)
(3 3.15186e-06 0)
(2.99999 8.38151e-06 0)
(2.99997 1.73532e-05 0)
(2.99994 4.61512e-05 0)
(2.99986 9.54219e-05 0)
(2.99966 0.000254529 0)
(2.99926 0.000524861 0)
(2.99813 0.00141164 0)
(2.99594 0.00290936 0)
(2.9895 0.0079448 0)
(2.97694 0.0167668 0)
(2.93945 0.046644 0)
(2.8494 0.109719 0)
(2.60619 0.308669 0)
(3 2.35439e-11 0)
(3 2.2261e-10 0)
(3 6.27122e-10 0)
(3 2.01599e-09 0)
(3 4.45041e-09 0)
(3 1.23456e-08 0)
(3 2.59477e-08 0)
(3 6.95064e-08 0)
(3 1.44449e-07 0)
(3 3.83316e-07 0)
(3 7.94531e-07 0)
(3 2.10176e-06 0)
(2.99999 4.35291e-06 0)
(2.99999 1.14986e-05 0)
(2.99996 2.37876e-05 0)
(2.99992 6.28325e-05 0)
(2.9998 0.000129662 0)
(2.99956 0.000343533 0)
(2.99891 0.000704724 0)
(2.99762 0.00189423 0)
(2.99394 0.00383171 0)
(2.98668 0.0106859 0)
(2.96544 0.0218163 0)
(2.91759 0.0625504 0)
(2.78507 0.148312 0)
(3 1.66067e-11 0)
(3 1.27102e-10 0)
(3 3.92721e-10 0)
(3 1.16706e-09 0)
(3 2.76252e-09 0)
(3 7.16267e-09 0)
(3 1.60509e-08 0)
(3 4.03173e-08 0)
(3 8.91687e-08 0)
(3 2.22214e-07 0)
(3 4.8986e-07 0)
(3 1.2182e-06 0)
(3 2.68318e-06 0)
(2.99999 6.6676e-06 0)
(2.99998 1.46771e-05 0)
(2.99995 3.64636e-05 0)
(2.99989 8.01453e-05 0)
(2.99973 0.000199366 0)
(2.99942 0.000436987 0)
(2.99855 0.00109459 0)
(2.9968 0.002386 0)
(2.99194 0.00609596 0)
(2.98178 0.0134577 0)
(2.95361 0.0350541 0)
(2.88675 0.0851913 0)
(3 1.34622e-11 0)
(3 6.19704e-11 0)
(3 2.51555e-10 0)
(3 5.99739e-10 0)
(3 1.73916e-09 0)
(3 3.72511e-09 0)
(3 1.00526e-08 0)
(3 2.10196e-08 0)
(3 5.56895e-08 0)
(3 1.158e-07 0)
(3 3.0521e-07 0)
(3 6.33934e-07 0)
(3 1.66798e-06 0)
(3 3.46355e-06 0)
(2.99999 9.10891e-06 0)
(2.99997 1.8903e-05 0)
(2.99994 4.97542e-05 0)
(2.99986 0.000103116 0)
(2.99965 0.000272418 0)
(2.99924 0.000562864 0)
(2.99811 0.00150035 0)
(2.9959 0.00311183 0)
(2.98945 0.008376 0)
(2.97702 0.0179637 0)
(2.93983 0.0486094 0)
(3 4.80343e-12 0)
(3 4.46014e-11 0)
(3 1.26599e-10 0)
(3 4.03762e-10 0)
(3 8.9582e-10 0)
(3 2.46349e-09 0)
(3 5.1972e-09 0)
(3 1.3789e-08 0)
(3 2.87432e-08 0)
(3 7.55203e-08 0)
(3 1.56958e-07 0)
(3 4.11108e-07 0)
(3 8.53791e-07 0)
(3 2.23322e-06 0)
(2.99999 4.6362e-06 0)
(2.99999 1.21178e-05 0)
(2.99996 2.51341e-05 0)
(2.99992 6.57028e-05 0)
(2.9998 0.000135976 0)
(2.99957 0.000356433 0)
(2.99893 0.000733601 0)
(2.99766 0.00194934 0)
(2.99412 0.0039544 0)
(2.98698 0.0109271 0)
(2.96689 0.0221884 0)
(3 3.17008e-12 0)
(3 2.42969e-11 0)
(3 7.50688e-11 0)
(3 2.22487e-10 0)
(3 5.26474e-10 0)
(3 1.35935e-09 0)
(3 3.0422e-09 0)
(3 7.59978e-09 0)
(3 1.67761e-08 0)
(3 4.1541e-08 0)
(3 9.13646e-08 0)
(3 2.25647e-07 0)
(3 4.9573e-07 0)
(3 1.22322e-06 0)
(3 2.6859e-06 0)
(2.99999 6.62567e-06 0)
(2.99998 1.45391e-05 0)
(2.99995 3.58771e-05 0)
(2.9999 7.86263e-05 0)
(2.99974 0.000194328 0)
(2.99943 0.000425084 0)
(2.99859 0.00105671 0)
(2.9969 0.00230273 0)
(2.99224 0.00580409 0)
(2.98251 0.0129224 0)
(3 2.11842e-12 0)
(3 1.17701e-11 0)
(3 4.33471e-11 0)
(3 1.1127e-10 0)
(3 3.00348e-10 0)
(3 6.83774e-10 0)
(3 1.72534e-09 0)
(3 3.81866e-09 0)
(3 9.46663e-09 0)
(3 2.07975e-08 0)
(3 5.12926e-08 0)
(3 1.12443e-07 0)
(3 2.76816e-07 0)
(3 6.06311e-07 0)
(3 1.49152e-06 0)
(3 3.26442e-06 0)
(2.99999 8.02992e-06 0)
(2.99997 1.75541e-05 0)
(2.99993 4.32231e-05 0)
(2.99986 9.43426e-05 0)
(2.99965 0.000233103 0)
(2.99923 0.000507491 0)
(2.99808 0.00126316 0)
(2.99583 0.00277014 0)
(2.98937 0.0069108 0)
(3 6.6936e-13 0)
(3 7.36445e-12 0)
(3 1.98344e-11 0)
(3 6.60446e-11 0)
(3 1.4034e-10 0)
(3 3.99183e-10 0)
(3 8.05107e-10 0)
(3 2.20647e-09 0)
(3 4.37942e-09 0)
(3 1.19021e-08 0)
(3 2.34425e-08 0)
(3 6.368e-08 0)
(3 1.24677e-07 0)
(3 3.39351e-07 0)
(3 6.60341e-07 0)
(3 1.80288e-06 0)
(2.99999 3.48343e-06 0)
(2.99998 9.55043e-06 0)
(2.99996 1.82886e-05 0)
(2.9999 5.0456e-05 0)
(2.99978 9.54639e-05 0)
(2.99945 0.000266352 0)
(2.99879 0.000494254 0)
(2.99694 0.00141714 0)
(2.99337 0.00252663 0)
(3 7.64313e-13 0)
(3 2.75241e-12 0)
(3 1.26849e-11 0)
(3 2.71209e-11 0)
(3 8.61793e-11 0)
(3 1.66101e-10 0)
(3 4.87966e-10 0)
(3 9.09549e-10 0)
(3 2.63152e-09 0)
(3 4.81763e-09 0)
(3 1.39742e-08 0)
(3 2.51914e-08 0)
(3 7.37054e-08 0)
(3 1.307e-07 0)
(3 3.86902e-07 0)
(3 6.73256e-07 0)
(2.99999 2.02184e-06 0)
(2.99999 3.43933e-06 0)
(2.99997 1.05183e-05 0)
(2.99992 1.73768e-05 0)
(2.99983 5.45054e-05 0)
(2.99956 8.63969e-05 0)
(2.99904 0.000282047 0)
(2.99752 0.000413575 0)
(2.9946 0.0014974 0)
(3 4.46583e-13 0)
(3 1.14199e-12 0)
(3 6.53344e-12 0)
(3 1.19425e-11 0)
(3 4.39114e-11 0)
(3 7.29974e-11 0)
(3 2.47177e-10 0)
(3 3.93146e-10 0)
(3 1.32423e-09 0)
(3 2.03105e-09 0)
(3 6.98036e-09 0)
(3 1.02993e-08 0)
(3 3.65397e-08 0)
(3 5.15476e-08 0)
(3 1.90398e-07 0)
(3 2.54574e-07 0)
(2.99999 9.88198e-07 0)
(2.99999 1.23663e-06 0)
(2.99997 5.11299e-06 0)
(2.99994 5.86678e-06 0)
(2.99984 2.6442e-05 0)
(2.99964 2.67909e-05 0)
(2.99906 0.000137645 0)
(2.99795 0.000110014 0)
(2.99447 0.000755671 0)
(3 1.13755e-13 0)
(3 8.47802e-13 0)
(3 2.70544e-12 0)
(3 7.95469e-12 0)
(3 1.87462e-11 0)
(3 4.75176e-11 0)
(3 1.05357e-10 0)
(3 2.56815e-10 0)
(3 5.59729e-10 0)
(3 1.34656e-09 0)
(3 2.9173e-09 0)
(3 6.97576e-09 0)
(3 1.50717e-08 0)
(3 3.58878e-08 0)
(3 7.74056e-08 0)
(3 1.83537e-07 0)
(3 3.9536e-07 0)
(2.99999 9.32574e-07 0)
(2.99997 2.00698e-06 0)
(2.99994 4.69992e-06 0)
(2.99984 1.01022e-05 0)
(2.99965 2.34041e-05 0)
(2.9991 5.02197e-05 0)
(2.99804 0.00011381 0)
(2.99471 0.000246894 0)
(3 -3.36172e-14 0)
(3 8.78973e-13 0)
(3 9.68865e-13 0)
(3 7.18649e-12 0)
(3 7.11567e-12 0)
(3 4.2789e-11 0)
(3 4.02e-11 0)
(3 2.39166e-10 0)
(3 2.12419e-10 0)
(3 1.31902e-09 0)
(3 1.10371e-09 0)
(3 7.26906e-09 0)
(3 5.72202e-09 0)
(3 4.01751e-08 0)
(3 2.97745e-08 0)
(3 2.23078e-07 0)
(3 1.55596e-07 0)
(2.99999 1.24667e-06 0)
(2.99997 8.09452e-07 0)
(2.99994 7.01856e-06 0)
(2.99985 3.87912e-06 0)
(2.99967 4.04399e-05 0)
(2.99914 9.97308e-06 0)
(2.99811 0.000248065 0)
(2.99482 -0.00011332 0)
(3 1.91988e-14 0)
(3 2.26675e-13 0)
(3 5.89836e-13 0)
(3 1.73994e-12 0)
(3 4.08062e-12 0)
(3 1.02084e-11 0)
(3 2.25063e-11 0)
(3 5.44092e-11 0)
(3 1.18253e-10 0)
(3 2.82745e-10 0)
(3 6.11638e-10 0)
(3 1.45347e-09 0)
(3 3.13631e-09 0)
(3 7.40858e-09 0)
(3 1.59516e-08 0)
(3 3.74027e-08 0)
(3 8.03296e-08 0)
(2.99999 1.86446e-07 0)
(2.99998 3.99145e-07 0)
(2.99994 9.12956e-07 0)
(2.99987 1.94542e-06 0)
(2.99966 4.3437e-06 0)
(2.99928 9.24048e-06 0)
(2.99793 1.95131e-05 0)
(2.99576 4.26446e-05 0)
(3 9.00631e-14 0)
(3 -3.2254e-13 0)
(3 6.70625e-13 0)
(3 -2.35988e-12 0)
(3 4.15933e-12 0)
(3 -1.43063e-11 0)
(3 2.28421e-11 0)
(3 -8.55639e-11 0)
(3 1.22562e-10 0)
(3 -5.11733e-10 0)
(3 6.48501e-10 0)
(3 -3.06675e-09 0)
(3 3.3791e-09 0)
(3 -1.8422e-08 0)
(3 1.72848e-08 0)
(3 -1.1102e-07 0)
(3 8.68267e-08 0)
(2.99999 -6.72829e-07 0)
(2.99997 4.34404e-07 0)
(2.99994 -4.1071e-06 0)
(2.99985 2.45444e-06 0)
(2.99968 -2.5945e-05 0)
(2.99915 2.1703e-05 0)
(2.99814 -0.000180562 0)
(2.99487 0.000271663 0)
(1.27936 1.08129 0)
(1.71404 0.884971 0)
(1.90411 0.618988 0)
(1.91398 0.362867 0)
(1.82184 0.137484 0)
(1.62095 -0.0187074 0)
(1.30999 -0.0240933 0)
(0.975199 0.0983726 0)
(0.619103 0.176576 0)
(0.252786 0.19232 0)
(0.0407468 0.160388 0)
(-0.161303 0.108764 0)
(-0.359865 0.0682655 0)
(-0.499681 0.0303353 0)
(-0.626101 0.00434763 0)
(-0.728559 -0.0115603 0)
(-0.790997 -0.0124098 0)
(-0.829043 -0.00396837 0)
(-0.862369 0.00442312 0)
(-0.898494 0.0105734 0)
(-0.937119 0.0126895 0)
(-0.974398 0.0112222 0)
(-1.00868 0.00777426 0)
(-1.04168 0.0038071 0)
(-1.07393 0.00136916 0)
(-1.09821 0.00118784 0)
(-1.1109 0.000456996 0)
(-1.11696 -0.000757357 0)
(-1.11194 -0.00206099 0)
(-1.08576 -0.00486964 0)
(-1.03669 -0.00931083 0)
(-0.967547 -0.0140629 0)
(-0.883632 -0.0181288 0)
(-0.790351 -0.0213858 0)
(-0.693284 -0.0237515 0)
(-0.59726 -0.0253114 0)
(-0.504766 -0.0271364 0)
(-0.417479 -0.029289 0)
(-0.331512 -0.0336729 0)
(-0.251022 -0.0348977 0)
(-0.174719 -0.0354259 0)
(-0.101424 -0.0369746 0)
(-0.03424 -0.0426169 0)
(0.0445624 -0.0359352 0)
(0.105125 -0.0316361 0)
(0.165887 -0.0299432 0)
(0.222213 -0.0286269 0)
(0.275299 -0.0270765 0)
(0.324243 -0.0255208 0)
(0.370098 -0.0242381 0)
(0.417478 -0.023868 0)
(0.465369 -0.0237387 0)
(0.510752 -0.0227594 0)
(0.553737 -0.0214836 0)
(0.595041 -0.0204235 0)
(0.634873 -0.0194518 0)
(0.673466 -0.018597 0)
(0.710836 -0.0177364 0)
(0.747114 -0.0169486 0)
(0.782308 -0.0161555 0)
(0.816537 -0.0154272 0)
(0.849796 -0.014702 0)
(0.882178 -0.014027 0)
(0.913688 -0.013361 0)
(0.944399 -0.0127373 0)
(0.974323 -0.012126 0)
(1.00352 -0.0115499 0)
(1.03202 -0.0109857 0)
(1.05986 -0.0104508 0)
(1.08706 -0.00992587 0)
(1.11368 -0.00942557 0)
(1.13972 -0.0089337 0)
(1.16522 -0.0084636 0)
(1.19018 -0.00800236 0)
(1.21463 -0.00755941 0)
(1.23857 -0.00712243 0)
(1.26202 -0.0067018 0)
(1.28499 -0.00628871 0)
(1.30748 -0.00589323 0)
(1.3295 -0.00550883 0)
(1.35105 -0.00514439 0)
(1.37213 -0.00479547 0)
(1.39276 -0.00446923 0)
(1.41293 -0.00416284 0)
(1.43265 -0.00388182 0)
(1.45192 -0.00362437 0)
(1.47074 -0.00339521 0)
(1.4891 -0.00319499 0)
(1.50699 -0.00302863 0)
(1.52439 -0.00289835 0)
(1.54129 -0.00280956 0)
(1.55763 -0.00276548 0)
(1.57338 -0.00277112 0)
(1.58842 -0.00282756 0)
(1.60265 -0.002937 0)
(1.61583 -0.0030952 0)
(1.62761 -0.00329934 0)
(1.63759 -0.00353505 0)
(1.64434 -0.00379332 0)
(1.65239 -0.00432416 0)
(1.36335 0.997638 0)
(1.68391 0.723718 0)
(1.8613 0.415811 0)
(1.93572 0.159221 0)
(1.95219 -0.0204179 0)
(1.93173 -0.11819 0)
(1.85328 -0.111267 0)