/*--------------------------------*- C++ -*----------------------------------*\
| =========                 |                                                 |
| \\      /  F ield         | OpenFOAM: The Open Source CFD Toolbox           |
|  \\    /   O peration     | Version:  2412                                  |
|   \\  /    A nd           | Website:  www.openfoam.com                      |
|    \\/     M anipulation  |                                                 |
\*---------------------------------------------------------------------------*/
FoamFile
{
    version     2.0;
    format      ascii;
    arch        "LSB;label=32;scalar=64";
    class       surfaceScalarField;
    location    "0.0999";
    object      phi;
}
// * * * * * * * * * * * * * * * * * * * * * * * * * * * * * * * * * * * * * //

dimensions      [1 0 -1 0 0 0 0];

oriented        oriented;

internalField   nonuniform List<scalar> 
29750
(
13.8651
2.82219e-13
13.8651
9.1438e-13
13.8651
2.15428e-12
13.8651
4.44533e-12
13.8651
8.61344e-12
13.8651
1.61283e-11
13.8651
2.9614e-11
13.8651
5.37627e-11
13.8651
9.69581e-11
13.8651
1.74196e-10
13.8651
3.12284e-10
13.8651
5.59217e-10
13.8651
1.00084e-09
13.8651
1.79094e-09
13.8651
3.20481e-09
13.8651
5.73596e-09
13.8651
1.02685e-08
13.8651
1.83886e-08
13.8651
3.29403e-08
13.8651
5.90309e-08
13.8651
1.05826e-07
13.8651
1.89802e-07
13.8651
3.40559e-07
13.8651
6.11362e-07
13.8651
1.09802e-06
13.8651
1.97317e-06
13.8651
3.54774e-06
13.8651
6.38279e-06
13.8651
1.14904e-05
13.8651
2.07001e-05
13.865
3.73196e-05
13.865
6.73427e-05
13.8648
0.000121637
13.8646
0.000219961
13.8642
0.000398326
13.8635
0.000722829
13.8622
0.00131562
13.8598
0.00240452
13.8554
0.00441996
13.8472
0.00819704
13.8319
0.0154037
13.8024
0.0294579
13.7442
0.0570994
13.6333
0.109892
13.4304
0.202106
13.0891
0.341416
12.5691
0.519767
11.8462
0.723187
10.892
0.961474
1.28745
9.60652
13.8651
5.40901e-13
13.8651
1.75604e-12
13.8651
4.14058e-12
13.8651
8.54639e-12
13.8651
1.65593e-11
13.8651
3.09986e-11
13.8651
5.68953e-11
13.8651
1.03236e-10
13.8651
1.86065e-10
13.8651
3.34061e-10
13.8651
5.98439e-10
13.8651
1.0708e-09
13.8651
1.91481e-09
13.8651
3.4234e-09
13.8651
6.12025e-09
13.8651
1.09431e-08
13.8651
1.95698e-08
13.8651
3.50065e-08
13.8651
6.26354e-08
13.8651
1.12107e-07
13.8651
2.00713e-07
13.8651
3.5948e-07
13.8651
6.44047e-07
13.8651
1.15434e-06
13.8651
2.06968e-06
13.8651
3.71246e-06
13.8651
6.66184e-06
13.8651
1.196e-05
13.8651
2.14813e-05
13.8651
3.86027e-05
13.865
6.94074e-05
13.865
0.000124875
13.8649
0.000224827
13.8647
0.000405129
13.8644
0.000730807
13.8638
0.00132045
13.8627
0.00239163
13.8607
0.00434706
13.8573
0.00794145
13.8508
0.0146248
13.839
0.0272622
13.8169
0.0516559
13.7739
0.0991484
13.6937
0.189115
13.5497
0.345606
13.3105
0.580663
12.9561
0.874451
12.4964
1.18367
11.98
1.48003
1.76603
11.5039
13.8651
7.61391e-13
13.8651
2.47224e-12
13.8651
5.82967e-12
13.8651
1.20286e-11
13.8651
2.32944e-11
13.8651
4.3579e-11
13.8651
7.99254e-11
13.8651
1.44901e-10
13.8651
2.60909e-10
13.8651
4.67943e-10
13.8651
8.37328e-10
13.8651
1.49645e-09
13.8651
2.67257e-09
13.8651
4.77178e-09
13.8651
8.5189e-09
13.8651
1.52096e-08
13.8651
2.71578e-08
13.8651
4.85016e-08
13.8651
8.66347e-08
13.8651
1.54787e-07
13.8651
2.76609e-07
13.8651
4.94443e-07
13.8651
8.84022e-07
13.8651
1.58101e-06
13.8651
2.8282e-06
13.8651
5.06078e-06
13.8651
9.05811e-06
13.8651
1.6218e-05
13.8651
2.90454e-05
13.8651
5.20368e-05
13.8651
9.32587e-05
13.865
0.000167209
13.8649
0.000299933
13.8648
0.000538332
13.8646
0.000966956
13.8642
0.00173908
13.8634
0.00313403
13.8621
0.00566476
13.8598
0.0102842
13.8556
0.0188039
13.8482
0.0347598
13.8346
0.0652367
13.8091
0.124031
13.7624
0.23493
13.6792
0.428403
13.5385
0.72122
13.3257
1.08793
13.0467
1.46348
12.7356
1.79129
2.06039
12.4428
13.8651
9.31144e-13
13.8651
3.02269e-12
13.8651
7.12763e-12
13.8651
1.4702e-11
13.8651
2.8455e-11
13.8651
5.3192e-11
13.8651
9.74637e-11
13.8651
1.76505e-10
13.8651
3.17431e-10
13.8651
5.68566e-10
13.8651
1.01594e-09
13.8651
1.81294e-09
13.8651
3.2327e-09
13.8651
5.76236e-09
13.8651
1.02696e-08
13.8651
1.83025e-08
13.8651
3.26193e-08
13.8651
5.81422e-08
13.8651
1.03645e-07
13.8651
1.84789e-07
13.8651
3.29499e-07
13.8651
5.87639e-07
13.8651
1.04815e-06
13.8651
1.86988e-06
13.8651
3.33627e-06
13.8651
5.95377e-06
13.8651
1.06263e-05
13.8651
1.89694e-05
13.8651
3.3868e-05
13.8651
6.04803e-05
13.8651
0.000108022
13.8651
0.000192988
13.865
0.000344877
13.8649
0.000616557
13.8648
0.00110284
13.8646
0.00197459
13.8642
0.00354101
13.8634
0.00636619
13.8623
0.0114893
13.8602
0.0208647
13.8568
0.0382615
13.8509
0.0711545
13.8403
0.134092
13.8219
0.252638
13.7885
0.461387
13.7258
0.783474
13.6185
1.1961
13.4595
1.62322
13.2648
1.98615
2.25725
13.0678
13.8651
1.04272e-12
13.8651
3.38951e-12
13.8651
7.99238e-12
13.8651
1.64815e-11
13.8651
3.18799e-11
13.8651
5.95418e-11
13.8651
1.08982e-10
13.8651
1.97121e-10
13.8651
3.54017e-10
13.8651
6.33147e-10
13.8651
1.12953e-09
13.8651
2.01222e-09
13.8651
3.58168e-09
13.8651
6.37263e-09
13.8651
1.13354e-08
13.8651
2.01618e-08
13.8651
3.5859e-08
13.8651
6.37809e-08
13.8651
1.13446e-07
13.8651
2.01803e-07
13.8651
3.5899e-07
13.8651
6.38677e-07
13.8651
1.13631e-06
13.8651
2.02188e-06
13.8651
3.59776e-06
13.8651
6.4025e-06
13.8651
1.13942e-05
13.8651
2.02795e-05
13.8651
3.60948e-05
13.8651
6.42501e-05
13.8651
0.000114374
13.8651
0.00020363
13.8651
0.00036259
13.865
0.000645803
13.865
0.00115062
13.8649
0.00205157
13.8648
0.00366268
13.8646
0.006553
13.8643
0.0117627
13.864
0.0212277
13.8637
0.0386349
13.8637
0.0712222
13.8643
0.133082
13.8668
0.249562
13.8704
0.457276
13.8668
0.786451
13.8399
1.22373
13.7714
1.69246
13.6612
2.09662
2.38882
13.5293
13.8651
1.1019e-12
13.8651
3.58036e-12
13.8651
8.43947e-12
13.8651
1.73926e-11
13.8651
3.36158e-11
13.8651
6.27239e-11
13.8651
1.14673e-10
13.8651
2.07137e-10
13.8651
3.71453e-10
13.8651
6.6326e-10
13.8651
1.18122e-09
13.8651
2.10052e-09
13.8651
3.73182e-09
13.8651
6.6268e-09
13.8651
1.17638e-08
13.8651
2.08801e-08
13.8651
3.70569e-08
13.8651
6.5766e-08
13.8651
1.16712e-07
13.8651
2.07127e-07
13.8651
3.67578e-07
13.8651
6.52342e-07
13.8651
1.15768e-06
13.8651
2.05455e-06
13.8651
3.64611e-06
13.8651
6.4707e-06
13.8651
1.1483e-05
13.8651
2.03783e-05
13.8651
3.61625e-05
13.8651
6.41734e-05
13.8651
0.000113877
13.8651
0.000202087
13.8651
0.000358637
13.8651
0.000636556
13.8652
0.00113008
13.8652
0.00200732
13.8653
0.00356904
13.8655
0.00635707
13.8659
0.0113548
13.8668
0.0203745
13.8686
0.0368268
13.8725
0.0673317
13.8806
0.124765
13.897
0.232819
13.9255
0.428058
13.9643
0.74699
13.9986
1.18996
14.0023
1.6894
13.9606
2.13868
2.46817
13.8811
13.8651
1.10856e-12
13.8651
3.60623e-12
13.8651
8.5022e-12
13.8651
1.75162e-11
13.8651
3.38328e-11
13.8651
6.30693e-11
13.8651
1.15169e-10
13.8651
2.07749e-10
13.8651
3.71982e-10
13.8651
6.63111e-10
13.8651
1.17888e-09
13.8651
2.0925e-09
13.8651
3.71044e-09
13.8651
6.57575e-09
13.8651
1.16493e-08
13.8651
2.06334e-08
13.8651
3.65401e-08
13.8651
6.47056e-08
13.8651
1.1457e-07
13.8651
2.02857e-07
13.8651
3.59147e-07
13.8651
6.3584e-07
13.8651
1.12561e-06
13.8651
1.99258e-06
13.8651
3.527e-06
13.8651
6.24283e-06
13.8651
1.10488e-05
13.8651
1.95537e-05
13.8651
3.46019e-05
13.8651
6.12279e-05
13.8651
0.000108332
13.8651
0.000191671
13.8652
0.000339108
13.8652
0.000599997
13.8653
0.00106171
13.8654
0.00187944
13.8656
0.0033295
13.8661
0.00590698
13.8669
0.0105046
13.8685
0.0187526
13.8717
0.0336826
13.878
0.0611093
13.8903
0.1123
13.9145
0.208388
13.9578
0.384026
14.0242
0.679874
14.1032
1.11126
14.1654
1.62767
14.1835
2.12104
2.49974
14.152
13.8651
1.07681e-12
13.8651
3.50375e-12
13.8651
8.25773e-12
13.8651
1.70034e-11
13.8651
3.28171e-11
13.8651
6.11154e-11
13.8651
1.11467e-10
13.8651
2.00794e-10
13.8651
3.58981e-10
13.8651
6.38879e-10
13.8651
1.13381e-09
13.8651
2.00881e-09
13.8651
3.55524e-09
13.8651
6.2883e-09
13.8651
1.11175e-08
13.8651
1.96508e-08
13.8651
3.47264e-08
13.8651
6.13612e-08
13.8651
1.08409e-07
13.8651
1.91518e-07
13.8651
3.38298e-07
13.8651
5.97535e-07
13.8651
1.0553e-06
13.8651
1.86362e-06
13.8651
3.29065e-06
13.8651
5.80999e-06
13.8651
1.02567e-05
13.8651
1.81053e-05
13.8651
3.19551e-05
13.8651
5.63944e-05
13.8651
9.95105e-05
13.8652
0.000175579
13.8652
0.000309767
13.8652
0.000546516
13.8653
0.000964237
13.8655
0.00170167
13.8658
0.00300471
13.8664
0.00531172
13.8675
0.00940841
13.8696
0.0167182
13.8734
0.0298603
13.8808
0.0537932
13.8949
0.0980614
13.9224
0.180807
13.9724
0.333345
14.0538
0.597649
14.1628
1.00245
14.2711
1.51951
14.3427
2.05001
2.48485
14.3579
13.8651
1.01374e-12
13.8651
3.29958e-12
13.8651
7.776e-12
13.8651
1.6004e-11
13.8651
3.08659e-11
13.8651
5.74268e-11
13.8651
1.04617e-10
13.8651
1.882e-10
13.8651
3.35964e-10
13.8651
5.9695e-10
13.8651
1.05758e-09
13.8651
1.87039e-09
13.8651
3.3041e-09
13.8651
5.83292e-09
13.8651
1.02922e-08
13.8651
1.81556e-08
13.8651
3.20187e-08
13.8651
5.64593e-08
13.8651
9.95385e-08
13.8651
1.7547e-07
13.8651
3.09279e-07
13.8651
5.45075e-07
13.8651
9.60497e-07
13.8651
1.69237e-06
13.8651
2.98142e-06
13.8651
5.2518e-06
13.8651
9.24952e-06
13.8651
1.62886e-05
13.8651
2.86794e-05
13.8651
5.04903e-05
13.8651
8.8873e-05
13.8652
0.000156419
13.8652
0.000275264
13.8653
0.00048439
13.8654
0.000852372
13.8656
0.00150014
13.8659
0.00264118
13.8666
0.00465437
13.8678
0.00821525
13.87
0.0145389
13.874
0.0258391
13.8816
0.0462527
13.8959
0.083667
13.9235
0.15318
13.9743
0.281918
14.0609
0.510367
14.1863
0.876959
14.3285
1.37727
14.447
1.93203
2.4239
14.5085
13.8651
9.29701e-13
13.8651
3.02858e-12
13.8651
7.13674e-12
13.8651
1.46808e-11
13.8651
2.82928e-11
13.8651
5.25898e-11
13.8651
9.56968e-11
13.8651
1.71931e-10
13.8651
3.06475e-10
13.8651
5.43699e-10
13.8651
9.61646e-10
13.8651
1.69777e-09
13.8651
2.99381e-09
13.8651
5.27542e-09
13.8651
9.291e-09
13.8651
1.63581e-08
13.8651
2.87926e-08
13.8651
5.06705e-08
13.8651
8.91545e-08
13.8651
1.56847e-07
13.8651
2.75889e-07
13.8651
4.85224e-07
13.8651
8.53246e-07
13.8651
1.50022e-06
13.8651
2.6373e-06
13.8651
4.63564e-06
13.8651
8.14664e-06
13.8651
1.4315e-05
13.8651
2.5149e-05
13.8651
4.41765e-05
13.8651
7.75852e-05
13.8652
0.000136242
13.8652
0.000239208
13.8653
0.000419963
13.8654
0.000737254
13.8656
0.00129438
13.866
0.00227304
13.8666
0.0039944
13.8678
0.00702816
13.8699
0.012393
13.8739
0.0219292
13.8811
0.0390329
13.8947
0.0701056
13.9204
0.127407
13.9683
0.233594
14.0526
0.425453
14.1828
0.746404
14.3462
1.21359
14.5038
1.77498
2.31768
14.6106
13.8651
8.34222e-13
13.8651
2.7166e-12
13.8651
6.40221e-12
13.8651
1.31671e-11
13.8651
2.536e-11
13.8651
4.70968e-11
13.8651
8.56086e-11
13.8651
1.53613e-10
13.8651
2.73444e-10
13.8651
4.84378e-10
13.8651
8.55367e-10
13.8651
1.50765e-09
13.8651
2.65401e-09
13.8651
4.66849e-09
13.8651
8.20742e-09
13.8651
1.44241e-08
13.8651
2.53419e-08
13.8651
4.45151e-08
13.8651
7.81772e-08
13.8651
1.37275e-07
13.8651
2.41001e-07
13.8651
4.23049e-07
13.8651
7.42471e-07
13.8651
1.30291e-06
13.8651
2.28593e-06
13.8651
4.01009e-06
13.8651
7.0333e-06
13.8651
1.2334e-05
13.8651
2.16252e-05
13.8651
3.791e-05
13.8651
6.64447e-05
13.8652
0.000116441
13.8652
0.000204022
13.8653
0.000357444
13.8654
0.000626177
13.8656
0.00109699
13.8659
0.00192203
13.8665
0.0033693
13.8677
0.00591215
13.8696
0.0103924
13.8733
0.0183198
13.8799
0.0324485
13.8921
0.0579054
13.915
0.10446
13.9578
0.190478
14.0352
0.347716
14.161
0.620011
14.3332
1.04085
14.52
1.58871
2.16859
14.6697
13.8651
7.33524e-13
13.8651
2.39142e-12
13.8651
5.63471e-12
13.8651
1.15831e-11
13.8651
2.22964e-11
13.8651
4.13733e-11
13.8651
7.51279e-11
13.8651
1.34647e-10
13.8651
2.39367e-10
13.8651
4.23411e-10
13.8651
7.46584e-10
13.8651
1.31385e-09
13.8651
2.30913e-09
13.8651
4.05512e-09
13.8651
7.11712e-09
13.8651
1.24867e-08
13.8651
2.19002e-08
13.8651
3.84025e-08
13.8651
6.7324e-08
13.8651
1.18009e-07
13.8651
2.06809e-07
13.8651
3.62381e-07
13.8651
6.34858e-07
13.8651
1.11206e-06
13.8651
1.94757e-06
13.8651
3.41032e-06
13.8651
5.97051e-06
13.8651
1.04511e-05
13.8651
1.82905e-05
13.8651
3.20056e-05
13.8651
5.59933e-05
13.8652
9.79454e-05
13.8652
0.000171297
13.8653
0.000299552
13.8654
0.000523771
13.8655
0.000915822
13.8659
0.00160142
13.8664
0.00280125
13.8674
0.00490354
13.8692
0.00859563
13.8724
0.0151023
13.8782
0.0266362
13.8889
0.0472666
13.9087
0.0846751
13.9456
0.153398
14.0134
0.279704
14.1285
0.504253
14.2985
0.870127
14.5031
1.38451
1.98134
14.6908
13.8651
6.3427e-13
13.8651
2.06846e-12
13.8651
4.87355e-12
13.8651
1.0016e-11
13.8651
1.92668e-11
13.8651
3.5723e-11
13.8651
6.48055e-11
13.8651
1.16017e-10
13.8651
2.05993e-10
13.8651
3.6389e-10
13.8651
6.40724e-10
13.8651
1.12589e-09
13.8651
1.97578e-09
13.8651
3.46432e-09
13.8651
6.0706e-09
13.8651
1.06336e-08
13.8651
1.86199e-08
13.8651
3.25974e-08
13.8651
5.70535e-08
13.8651
9.98419e-08
13.8651
1.74684e-07
13.8651
3.05584e-07
13.8651
5.34468e-07
13.8651
9.34656e-07
13.8651
1.63416e-06
13.8651
2.85678e-06
13.8651
4.99311e-06
13.8651
8.72574e-06
13.8651
1.52456e-05
13.8651
2.66332e-05
13.8651
4.65173e-05
13.8652
8.12352e-05
13.8652
0.000141837
13.8652
0.000247622
13.8653
0.000432247
13.8655
0.000754506
13.8658
0.00131703
13.8663
0.00229948
13.8672
0.00401688
13.8687
0.00702468
13.8715
0.0123074
13.8765
0.0216288
13.8856
0.0381958
13.9023
0.0679909
13.9333
0.122314
13.9907
0.222155
14.0915
0.402793
14.2507
0.710246
14.4611
1.17425
1.76338
14.6793
13.8651
5.41012e-13
13.8651
1.76326e-12
13.8651
4.15223e-12
13.8651
8.52918e-12
13.8651
1.63981e-11
13.8651
3.03794e-11
13.8651
5.50591e-11
13.8651
9.8465e-11
13.8651
1.74622e-10
13.8651
3.08079e-10
13.8651
5.41727e-10
13.8651
9.50604e-10
13.8651
1.66577e-09
13.8651
2.91648e-09
13.8651
5.10299e-09
13.8651
8.92518e-09
13.8651
1.56047e-08
13.8651
2.72771e-08
13.8651
4.76686e-08
13.8651
8.32905e-08
13.8651
1.45501e-07
13.8651
2.54142e-07
13.8651
4.43811e-07
13.8651
7.74925e-07
13.8651
1.35281e-06
13.8651
2.3613e-06
13.8651
4.12078e-06
13.8651
7.1903e-06
13.8651
1.25438e-05
13.8651
2.188e-05
13.8651
3.81577e-05
13.8652
6.65361e-05
13.8652
0.000115998
13.8652
0.000202207
13.8653
0.000352435
13.8654
0.000614249
13.8657
0.00107053
13.8661
0.00186603
13.8669
0.00325379
13.8682
0.00567834
13.8706
0.00992381
13.8748
0.0173857
13.8825
0.0305767
13.8963
0.0541239
13.9219
0.0967002
13.9694
0.174625
14.0548
0.316897
14.1973
0.567138
14.4024
0.968933
1.5246
14.641
13.8651
4.53082e-13
13.8651
1.47971e-12
13.8651
3.48699e-12
13.8651
7.16038e-12
13.8651
1.37583e-11
13.8651
2.54717e-11
13.8651
4.61251e-11
13.8651
8.2404e-11
13.8651
1.45975e-10
13.8651
2.57228e-10
13.8651
4.5173e-10
13.8651
7.91626e-10
13.8651
1.38529e-09
13.8651
2.42202e-09
13.8651
4.23183e-09
13.8651
7.39094e-09
13.8651
1.29037e-08
13.8651
2.2523e-08
13.8651
3.93035e-08
13.8651
6.85746e-08
13.8651
1.1962e-07
13.8651
2.08632e-07
13.8651
3.63809e-07
13.8651
6.34316e-07
13.8651
1.10574e-06
13.8651
1.92727e-06
13.8651
3.35853e-06
13.8651
5.85188e-06
13.8651
1.01943e-05
13.8651
1.77567e-05
13.8651
3.09231e-05
13.8651
5.38454e-05
13.8652
9.37423e-05
13.8652
0.000163183
13.8653
0.00028402
13.8654
0.000494314
13.8656
0.000860266
13.866
0.00149729
13.8666
0.00260659
13.8678
0.00454055
13.8698
0.00791815
13.8733
0.0138348
13.8796
0.0242465
13.891
0.0427103
13.9119
0.0758162
13.9505
0.135984
14.021
0.24603
14.144
0.443793
14.3346
0.777749
1.27684
14.5819
13.8651
3.76033e-13
13.8651
1.22724e-12
13.8651
2.89058e-12
13.8651
5.9347e-12
13.8651
1.1397e-11
13.8651
2.10844e-11
13.8651
3.81478e-11
13.8651
6.8085e-11
13.8651
1.20478e-10
13.8651
2.12051e-10
13.8651
3.71936e-10
13.8651
6.50956e-10
13.8651
1.13763e-09
13.8651
1.98633e-09
13.8651
3.46583e-09
13.8651
6.04477e-09
13.8651
1.05388e-08
13.8651
1.83695e-08
13.8651
3.20106e-08
13.8651
5.5772e-08
13.8651
9.7151e-08
13.8651
1.69206e-07
13.8651
2.94645e-07
13.8651
5.13009e-07
13.8651
8.9303e-07
13.8651
1.55436e-06
13.8651
2.7049e-06
13.8651
4.70648e-06
13.8651
8.18763e-06
13.8651
1.42418e-05
13.8651
2.4768e-05
13.8651
4.30687e-05
13.8652
7.48783e-05
13.8652
0.000130168
13.8653
0.000226247
13.8654
0.000393221
13.8655
0.000683375
13.8658
0.00118769
13.8664
0.00206445
13.8673
0.00358997
13.869
0.00624774
13.8719
0.0108893
13.8772
0.0190241
13.8865
0.0333675
13.9034
0.0588859
13.9345
0.10487
13.9917
0.188644
14.0945
0.340782
14.2642
0.60731
1.03293
14.5074
13.8651
3.07865e-13
13.8651
1.00442e-12
13.8651
2.36655e-12
13.8651
4.85678e-12
13.8651
9.32232e-12
13.8651
1.72359e-11
13.8651
3.11596e-11
13.8651
5.55607e-11
13.8651
9.82145e-11
13.8651
1.72671e-10
13.8651
3.025e-10
13.8651
5.28768e-10
13.8651
9.22895e-10
13.8651
1.60927e-09
13.8651
2.80416e-09
13.8651
4.88409e-09
13.8651
8.50352e-09
13.8651
1.48016e-08
13.8651
2.57574e-08
13.8651
4.48149e-08
13.8651
7.79559e-08
13.8651
1.35585e-07
13.8651
2.35771e-07
13.8651
4.09928e-07
13.8651
7.12593e-07
13.8651
1.23856e-06
13.8651
2.15234e-06
13.8651
3.73979e-06
13.8651
6.49682e-06
13.8651
1.12849e-05
13.8651
1.95981e-05
13.8651
3.4031e-05
13.8652
5.90824e-05
13.8652
0.000102563
13.8652
0.000178014
13.8653
0.000308946
13.8655
0.000536126
13.8657
0.000930373
13.8662
0.00161461
13.867
0.00280284
13.8683
0.00486814
13.8707
0.00846457
13.875
0.0147446
13.8826
0.0257608
13.8963
0.0452205
13.9212
0.0799687
13.967
0.142777
14.0506
0.256968
14.1957
0.461535
0.805582
14.4223
13.8651
2.49467e-13
13.8651
8.14238e-13
13.8651
1.91547e-12
13.8651
3.92875e-12
13.8651
7.53808e-12
13.8651
1.39276e-11
13.8651
2.51585e-11
13.8651
4.48183e-11
13.8651
7.91416e-11
13.8651
1.3898e-10
13.8651
2.43183e-10
13.8651
4.24547e-10
13.8651
7.40029e-10
13.8651
1.28869e-09
13.8651
2.24251e-09
13.8651
3.9005e-09
13.8651
6.78163e-09
13.8651
1.17879e-08
13.8651
2.04842e-08
13.8651
3.55898e-08
13.8651
6.18206e-08
13.8651
1.07368e-07
13.8651
1.86435e-07
13.8651
3.23681e-07
13.8651
5.6185e-07
13.8651
9.75128e-07
13.8651
1.69206e-06
13.8651
2.93569e-06
13.8651
5.09235e-06
13.8651
8.83212e-06
13.8651
1.53153e-05
13.8651
2.65537e-05
13.8651
4.603e-05
13.8652
7.9781e-05
13.8652
0.000138254
13.8653
0.000239557
13.8654
0.00041503
13.8656
0.000719005
13.866
0.00124558
13.8666
0.00215811
13.8677
0.00374034
13.8697
0.00648739
13.8732
0.0112665
13.8793
0.0196093
13.8903
0.0342507
13.9101
0.0601632
13.9463
0.106541
14.0128
0.190366
14.132
0.341845
0.605719
14.3313
13.8651
1.98619e-13
13.8651
6.49925e-13
13.8651
1.53155e-12
13.8651
3.14138e-12
13.8651
6.02485e-12
13.8651
1.11245e-11
13.8651
2.00788e-11
13.8651
3.5736e-11
13.8651
6.30379e-11
13.8651
1.10573e-10
13.8651
1.93243e-10
13.8651
3.36932e-10
13.8651
5.86529e-10
13.8651
1.02e-09
13.8651
1.77248e-09
13.8651
3.07861e-09
13.8651
5.34499e-09
13.8651
9.27726e-09
13.8651
1.60979e-08
13.8651
2.79275e-08
13.8651
4.84387e-08
13.8651
8.40003e-08
13.8651
1.45637e-07
13.8651
2.52462e-07
13.8651
4.37548e-07
13.8651
7.58205e-07
13.8651
1.31357e-06
13.8651
2.27537e-06
13.8651
3.94052e-06
13.8651
6.82317e-06
13.8651
1.1812e-05
13.8651
2.0445e-05
13.8651
3.53797e-05
13.8652
6.1214e-05
13.8652
0.000105889
13.8653
0.000183141
13.8653
0.000316692
13.8655
0.00054757
13.8658
0.000946657
13.8663
0.00163664
13.8672
0.00282983
13.8688
0.004895
13.8716
0.00847433
13.8765
0.0146934
13.8852
0.0255414
13.9008
0.0445799
13.9291
0.0782992
13.9807
0.138635
14.0748
0.24743
0.440506
14.2397
13.8651
1.58096e-13
13.8651
5.1481e-13
13.8651
1.2117e-12
13.8651
2.48535e-12
13.8651
4.76363e-12
13.8651
8.78908e-12
13.8651
1.58497e-11
13.8651
2.81806e-11
13.8651
4.96557e-11
13.8651
8.6997e-11
13.8651
1.51848e-10
13.8651
2.64406e-10
13.8651
4.59647e-10
13.8651
7.98216e-10
13.8651
1.38508e-09
13.8651
2.4022e-09
13.8651
4.16439e-09
13.8651
7.21712e-09
13.8651
1.25038e-08
13.8651
2.16585e-08
13.8651
3.7506e-08
13.8651
6.49368e-08
13.8651
1.12403e-07
13.8651
1.94529e-07
13.8651
3.36579e-07
13.8651
5.8225e-07
13.8651
1.007e-06
13.8651
1.74126e-06
13.8651
3.01017e-06
13.8651
5.20275e-06
13.8651
8.9901e-06
13.8651
1.55313e-05
13.8651
2.68247e-05
13.8652
4.63204e-05
13.8652
7.99638e-05
13.8652
0.000138014
13.8653
0.000238143
13.8654
0.000410838
13.8657
0.000708615
13.8661
0.00122209
13.8668
0.0021075
13.8681
0.00363494
13.8703
0.00627202
13.8741
0.0108324
13.8809
0.0187405
13.893
0.0325137
13.9146
0.0566691
13.9538
0.0994
14.0254
0.175751
0.311872
14.1538
13.8651
1.22347e-13
13.8651
4.02456e-13
13.8651
9.48575e-13
13.8651
1.94422e-12
13.8651
3.72391e-12
13.8651
6.86673e-12
13.8651
1.23722e-11
13.8651
2.19755e-11
13.8651
3.86786e-11
13.8651
6.76832e-11
13.8651
1.17984e-10
13.8651
2.05162e-10
13.8651
3.56149e-10
13.8651
6.17573e-10
13.8651
1.07001e-09
13.8651
1.85289e-09
13.8651
3.20706e-09
13.8651
5.54911e-09
13.8651
9.5983e-09
13.8651
1.65981e-08
13.8651
2.86947e-08
13.8651
4.95963e-08
13.8651
8.56998e-08
13.8651
1.48054e-07
13.8651
2.55706e-07
13.8651
4.4154e-07
13.8651
7.62216e-07
13.8651
1.31549e-06
13.8651
2.26973e-06
13.8651
3.91524e-06
13.8651
6.75166e-06
13.8651
1.16401e-05
13.8651
2.00615e-05
13.8651
3.45667e-05
13.8652
5.95402e-05
13.8652
0.000102528
13.8653
0.000176495
13.8654
0.00030374
13.8656
0.00052256
13.8659
0.000898816
13.8664
0.00154565
13.8674
0.00265779
13.8691
0.0045705
13.8721
0.00786331
13.8773
0.0135423
13.8864
0.0233663
13.9026
0.0404455
13.9317
0.0703283
13.9843
0.12309
0.216705
14.0794
13.8651
9.49241e-14
13.8651
3.10529e-13
13.8651
7.32969e-13
13.8651
1.5028e-12
13.8651
2.87981e-12
13.8651
5.30753e-12
13.8651
9.55491e-12
13.8651
1.69549e-11
13.8651
2.98083e-11
13.8651
5.20943e-11
13.8651
9.06873e-11
13.8651
1.57471e-10
13.8651
2.72956e-10
13.8651
4.72588e-10
13.8651
8.17517e-10
13.8651
1.41337e-09
13.8651
2.44229e-09
13.8651
4.21873e-09
13.8651
7.28463e-09
13.8651
1.25752e-08
13.8651
2.17013e-08
13.8651
3.74412e-08
13.8651
6.45778e-08
13.8651
1.11355e-07
13.8651
1.91958e-07
13.8651
3.3082e-07
13.8651
5.69955e-07
13.8651
9.81693e-07
13.8651
1.69031e-06
13.8651
2.90963e-06
13.8651
5.00678e-06
13.8651
8.61291e-06
13.8651
1.48109e-05
13.8651
2.54611e-05
13.8652
4.37528e-05
13.8652
7.51602e-05
13.8652
0.000129062
13.8653
0.000221541
13.8655
0.000380132
13.8657
0.000652037
13.8661
0.00111804
13.8669
0.00191666
13.8682
0.00328518
13.8704
0.0056313
13.8743
0.0096573
13.881
0.0165806
13.8929
0.0285285
13.914
0.0492399
13.9517
0.0853896
0.14893
14.0194
13.8651
7.34968e-14
13.8651
2.39586e-13
13.8651
5.62661e-13
13.8651
1.15197e-12
13.8651
2.20479e-12
13.8651
4.05986e-12
13.8651
7.3026e-12
13.8651
1.29438e-11
13.8651
2.27292e-11
13.8651
3.96719e-11
13.8651
6.89647e-11
13.8651
1.19574e-10
13.8651
2.06947e-10
13.8651
3.57731e-10
13.8651
6.17816e-10
13.8651
1.06633e-09
13.8651
1.83945e-09
13.8651
3.17186e-09
13.8651
5.46722e-09
13.8651
9.4208e-09
13.8651
1.62277e-08
13.8651
2.79453e-08
13.8651
4.81075e-08
13.8651
8.27937e-08
13.8651
1.42441e-07
13.8651
2.4499e-07
13.8651
4.21219e-07
13.8651
7.23998e-07
13.8651
1.24396e-06
13.8651
2.13667e-06
13.8651
3.66859e-06
13.8651
6.2967e-06
13.8651
1.08031e-05
13.8651
1.85279e-05
13.8651
3.17625e-05
13.8652
5.44297e-05
13.8652
9.32308e-05
13.8653
0.000159627
13.8654
0.000273179
13.8656
0.000467317
13.8659
0.000799073
13.8664
0.00136587
13.8674
0.00233395
13.869
0.00398747
13.8719
0.00681289
13.8768
0.0116475
13.8854
0.0199406
13.9004
0.0342096
13.9269
0.0588754
0.101793
13.974
13.8651
5.54001e-14
13.8651
1.82188e-13
13.8651
4.28102e-13
13.8651
8.74745e-13
13.8651
1.67133e-12
13.8651
3.07443e-12
13.8651
5.52514e-12
13.8651
9.78317e-12
13.8651
1.71574e-11
13.8651
2.99061e-11
13.8651
5.1915e-11
13.8651
8.98771e-11
13.8651
1.55305e-10
13.8651
2.68026e-10
13.8651
4.62118e-10
13.8651
7.9623e-10
13.8651
1.37111e-09
13.8651
2.36006e-09
13.8651
4.06056e-09
13.8651
6.98398e-09
13.8651
1.20076e-08
13.8651
2.06384e-08
13.8651
3.54599e-08
13.8651
6.09067e-08
13.8651
1.04576e-07
13.8651
1.79499e-07
13.8651
3.07981e-07
13.8651
5.28253e-07
13.8651
9.05701e-07
13.8651
1.55229e-06
13.8651
2.65938e-06
13.8651
4.55431e-06
13.8651
7.796e-06
13.8651
1.33397e-05
13.8651
2.2815e-05
13.8652
3.90038e-05
13.8652
6.66472e-05
13.8652
0.000113832
13.8653
0.000194322
13.8654
0.000331576
13.8657
0.000565493
13.8661
0.000964034
13.8668
0.00164277
13.868
0.00279849
13.87
0.00476632
13.8735
0.00811975
13.8796
0.0138439
13.8902
0.0236367
13.9086
0.0404423
0.0694261
13.9409
13.8651
4.22995e-14
13.8651
1.36335e-13
13.8651
3.2041e-13
13.8651
6.56808e-13
13.8651
1.25477e-12
13.8651
2.30649e-12
13.8651
4.1398e-12
13.8651
7.32125e-12
13.8651
1.28247e-11
13.8651
2.23243e-11
13.8651
3.86969e-11
13.8651
6.68909e-11
13.8651
1.15403e-10
13.8651
1.98836e-10
13.8651
3.42243e-10
13.8651
5.88663e-10
13.8651
1.01189e-09
13.8651
1.7386e-09
13.8651
2.98586e-09
13.8651
5.12601e-09
13.8651
8.79659e-09
13.8651
1.50905e-08
13.8651
2.58776e-08
13.8651
4.43609e-08
13.8651
7.60159e-08
13.8651
1.30215e-07
13.8651
2.22965e-07
13.8651
3.81644e-07
13.8651
6.52974e-07
13.8651
1.11678e-06
13.8651
1.90918e-06
13.8651
3.26252e-06
13.8651
5.57259e-06
13.8651
9.51432e-06
13.8651
1.62363e-05
13.8651
2.76951e-05
13.8652
4.72171e-05
13.8652
8.04627e-05
13.8653
0.000137044
13.8654
0.000233304
13.8655
0.000396969
13.8658
0.000675149
13.8663
0.00114774
13.8672
0.00195039
13.8686
0.00331324
13.8711
0.00562832
13.8754
0.00956506
13.8827
0.0162706
13.8954
0.0277161
0.0473199
13.9175
13.8651
3.04201e-14
13.8651
1.0103e-13
13.8651
2.38698e-13
13.8651
4.88498e-13
13.8651
9.32809e-13
13.8651
1.71296e-12
13.8651
3.07299e-12
13.8651
5.43021e-12
13.8651
9.49918e-12
13.8651
1.65126e-11
13.8651
2.85821e-11
13.8651
4.93331e-11
13.8651
8.49745e-11
13.8651
1.46166e-10
13.8651
2.51162e-10
13.8651
4.31259e-10
13.8651
7.40017e-10
13.8651
1.26921e-09
13.8651
2.17579e-09
13.8651
3.72846e-09
13.8651
6.38644e-09
13.8651
1.09354e-08
13.8651
1.87167e-08
13.8651
3.20239e-08
13.8651
5.47694e-08
13.8651
9.36366e-08
13.8651
1.60018e-07
13.8651
2.73357e-07
13.8651
4.66766e-07
13.8651
7.96708e-07
13.8651
1.35925e-06
13.8651
2.31806e-06
13.8651
3.95131e-06
13.8651
6.73245e-06
13.8651
1.14655e-05
13.8651
1.95171e-05
13.8652
3.32063e-05
13.8652
5.64711e-05
13.8652
9.59856e-05
13.8653
0.000163073
13.8654
0.000276907
13.8656
0.000469994
13.866
0.000797349
13.8666
0.00135218
13.8676
0.00229219
13.8693
0.00388508
13.8723
0.00658583
13.8774
0.0111707
13.8861
0.0189652
0.0322486
13.9012
13.8651
2.32037e-14
13.8651
7.49401e-14
13.8651
1.75415e-13
13.8651
3.59157e-13
13.8651
6.8745e-13
13.8651
1.26255e-12
13.8651
2.26108e-12
13.8651
3.99036e-12
13.8651
6.97342e-12
13.8651
1.21078e-11
13.8651
2.0928e-11
13.8651
3.60657e-11
13.8651
6.20261e-11
13.8651
1.06521e-10
13.8651
1.82738e-10
13.8651
3.13241e-10
13.8651
5.36582e-10
13.8651
9.18697e-10
13.8651
1.57213e-09
13.8651
2.68923e-09
13.8651
4.59808e-09
13.8651
7.85894e-09
13.8651
1.34267e-08
13.8651
2.29305e-08
13.8651
3.9145e-08
13.8651
6.68002e-08
13.8651
1.13944e-07
13.8651
1.94286e-07
13.8651
3.31129e-07
13.8651
5.64133e-07
13.8651
9.60657e-07
13.8651
1.63523e-06
13.8651
2.78216e-06
13.8651
4.73157e-06
13.8651
8.04299e-06
13.8651
1.3666e-05
13.8651
2.32089e-05
13.8652
3.9398e-05
13.8652
6.68464e-05
13.8652
0.000113368
13.8653
0.00019217
13.8655
0.000325611
13.8657
0.000551463
13.8661
0.000933621
13.8668
0.00157998
13.8681
0.00267325
13.8701
0.00452292
13.8736
0.00765517
13.8796
0.012964
0.0219774
13.8899
13.8651
1.68754e-14
13.8651
5.4734e-14
13.8651
1.2812e-13
13.8651
2.62568e-13
13.8651
5.01932e-13
13.8651
9.21374e-13
13.8651
1.65035e-12
13.8651
2.90989e-12
13.8651
5.0796e-12
13.8651
8.80818e-12
13.8651
1.52028e-11
13.8651
2.61619e-11
13.8651
4.49241e-11
13.8651
7.70293e-11
13.8651
1.31929e-10
13.8651
2.25777e-10
13.8651
3.86115e-10
13.8651
6.59967e-10
13.8651
1.12746e-09
13.8651
1.92531e-09
13.8651
3.28627e-09
13.8651
5.60714e-09
13.8651
9.56299e-09
13.8651
1.63037e-08
13.8651
2.77839e-08
13.8651
4.73303e-08
13.8651
8.05932e-08
13.8651
1.37181e-07
13.8651
2.33398e-07
13.8651
3.96948e-07
13.8651
6.748e-07
13.8651
1.14668e-06
13.8651
1.94767e-06
13.8651
3.30682e-06
13.8651
5.61185e-06
13.8651
9.51968e-06
13.8651
1.61412e-05
13.8651
2.73572e-05
13.8652
4.63451e-05
13.8652
7.84798e-05
13.8653
0.000132835
13.8654
0.00022475
13.8655
0.000380106
13.8658
0.000642623
13.8663
0.00108603
13.8672
0.00183498
13.8686
0.0031001
13.871
0.00523849
13.8751
0.00885431
0.0149763
13.8821
13.8651
1.14353e-14
13.8651
3.91909e-14
13.8651
9.35918e-14
13.8651
1.91291e-13
13.8651
3.64597e-13
13.8651
6.68798e-13
13.8651
1.1966e-12
13.8651
2.10698e-12
13.8651
3.67262e-12
13.8651
6.35791e-12
13.8651
1.09596e-11
13.8651
1.88342e-11
13.8651
3.22952e-11
13.8651
5.52939e-11
13.8651
9.456e-11
13.8651
1.61574e-10
13.8651
2.75883e-10
13.8651
4.70802e-10
13.8651
8.03009e-10
13.8651
1.36904e-09
13.8651
2.33301e-09
13.8651
3.97421e-09
13.8651
6.76704e-09
13.8651
1.15183e-08
13.8651
1.95972e-08
13.8651
3.33305e-08
13.8651
5.66638e-08
13.8651
9.62964e-08
13.8651
1.6358e-07
13.8651
2.77771e-07
13.8651
4.71472e-07
13.8651
7.99948e-07
13.8651
1.35669e-06
13.8651
2.30002e-06
13.8651
3.89757e-06
13.8651
6.60225e-06
13.8651
1.1179e-05
13.8651
1.89211e-05
13.8652
3.20114e-05
13.8652
5.41381e-05
13.8652
9.1521e-05
13.8653
0.000154664
13.8654
0.000261269
13.8656
0.000441217
13.8659
0.000744837
13.8665
0.00125713
13.8675
0.00212148
13.8692
0.00358047
13.872
0.00604324
0.0102041
13.8767
13.8651
9.4369e-15
13.8651
2.88658e-14
13.8651
6.77236e-14
13.8651
1.38334e-13
13.8651
2.63234e-13
13.8651
4.81837e-13
13.8651
8.60423e-13
13.8651
1.51412e-12
13.8651
2.63733e-12
13.8651
4.56124e-12
13.8651
7.8505e-12
13.8651
1.34719e-11
13.8651
2.30688e-11
13.8651
3.94396e-11
13.8651
6.73472e-11
13.8651
1.14906e-10
13.8651
1.95904e-10
13.8651
3.33813e-10
13.8651
5.68499e-10
13.8651
9.67766e-10
13.8651
1.6467e-09
13.8651
2.80087e-09
13.8651
4.76199e-09
13.8651
8.09335e-09
13.8651
1.37496e-08
13.8651
2.33506e-08
13.8651
3.96397e-08
13.8651
6.72679e-08
13.8651
1.14106e-07
13.8651
1.93489e-07
13.8651
3.27963e-07
13.8651
5.55701e-07
13.8651
9.41196e-07
13.8651
1.59355e-06
13.8651
2.69697e-06
13.8651
4.56285e-06
13.8651
7.71654e-06
13.8651
1.30455e-05
13.8651
2.20461e-05
13.8652
3.7244e-05
13.8652
6.28956e-05
13.8652
0.000106182
13.8653
0.000179199
13.8655
0.000302341
13.8657
0.000509933
13.8661
0.000859899
13.8668
0.00144986
13.8679
0.0024447
13.8698
0.00412184
0.00695079
13.8731
13.8651
5.32907e-15
13.8651
1.9762e-14
13.8651