/*--------------------------------*- C++ -*----------------------------------*\
| =========                 |                                                 |
| \\      /  F ield         | OpenFOAM: The Open Source CFD Toolbox           |
|  \\    /   O peration     | Version:  2412                                  |
|   \\  /    A nd           | Website:  www.openfoam.com                      |
|    \\/     M anipulation  |                                                 |
\*---------------------------------------------------------------------------*/
FoamFile
{
    version     2.0;
    format      ascii;
    arch        "LSB;label=32;scalar=64";
    class       volScalarField;
    location    "0.0999";
    object      T;
}
// * * * * * * * * * * * * * * * * * * * * * * * * * * * * * * * * * * * * * //

dimensions      [0 0 0 1 0 0 0];

internalField   nonuniform List<scalar> 
15000
(
300
300
300
300
300
300
300
300
300
300
300
300
300
300
300
300
300
300
300
300
300
300.001
300.001
300.002
300.003
300.005
300.009
300.016
300.028
300.049
300.086
300.153
300.27
300.477
300.842
301.487
302.623
304.619
308.101
314.106
324.226
340.585
365.427
399.058
436.994
470.899
494.561
508.343
516.154
524.025
300
300
300
300
300
300
300
300
300
300
300
300
300
300
300
300
300
300
300
300
300
300.001
300.001
300.002
300.003
300.005
300.009
300.015
300.027
300.047
300.084
300.148
300.261
300.461
300.813
301.434
302.527
304.445
307.79
313.554
323.27
339.001
362.977
395.686
433.028
466.883
490.652
504.055
510.681
515.02
300
300
300
300
300
300
300
300
300
300
300
300
300
300
300
300
300
300
300
300
300
300
300.001
300.001
300.003
300.005
300.008
300.014
300.025
300.045
300.079
300.139
300.244
300.431
300.76
301.339
302.356
304.138
307.243
312.592
321.618
336.284
358.81
389.995
426.485
460.595
485.251
499.291
506.013
509.516
300
300
300
300
300
300
300
300
300
300
300
300
300
300
300
300
300
300
300
300
300
300
300.001
300.001
300.002
300.004
300.007
300.013
300.023
300.041
300.072
300.127
300.223
300.393
300.691
301.215
302.135
303.744
306.544
311.369
319.527
332.852
353.534
382.741
418.079
452.609
478.766
494.235
501.754
505.346
300
300
300
300
300
300
300
300
300
300
300
300
300
300
300
300
300
300
300
300
300
300
300.001
300.001
300.002
300.004
300.007
300.012
300.021
300.037
300.064
300.113
300.199
300.349
300.613
301.077
301.888
303.306
305.77
310.021
317.224
329.063
347.663
374.53
408.324
443.149
471.158
488.667
497.531
501.643
300
300
300
300
300
300
300
300
300
300
300
300
300
300
300
300
300
300
300
300
300
300
300.001
300.001
300.002
300.003
300.006
300.01
300.018
300.032
300.056
300.099
300.173
300.304
300.533
300.934
301.635
302.859
304.984
308.651
314.884
325.198
341.607
365.867
397.66
432.394
462.329
482.377
493.13
498.158
300
300
300
300
300
300
300
300
300
300
300
300
300
300
300
300
300
300
300
300
300
300
300.001
300.001
300.002
300.003
300.005
300.009
300.016
300.028
300.048
300.085
300.148
300.26
300.455
300.796
301.391
302.428
304.228
307.336
312.634
321.461
335.678
357.175
386.516
420.562
452.19
475.108
488.295
494.66
300
300
300
300
300
300
300
300
300
300
300
300
300
300
300
300
300
300
300
300
300
300
300
300.001
300.001
300.002
300.004
300.008
300.013
300.023
300.041
300.071
300.125
300.218
300.382
300.667
301.164
302.03
303.531
306.125
310.556
317.989
330.097
348.795
375.307
407.946
440.721
466.6
482.735
490.927
300
300
300
300
300
300
300
300
300
300
300
300
300
300
300
300
300
300
300
300
300
300
300
300.001
300.001
300.002
300.004
300.006
300.011
300.019
300.034
300.059
300.104
300.181
300.316
300.551
300.961
301.673
302.908
305.042
308.697
314.863
325.012
340.982
364.421
394.924
428.026
456.636
476.123
486.702
300
300
300
300
300
300
300
300
300
300
300
300
300
300
300
300
300
300
300
300
300
300
300
300.001
300.001
300.002
300.003
300.005
300.009
300.016
300.028
300.049
300.085
300.148
300.258
300.45
300.783
301.362
302.366
304.099
307.074
312.118
320.496
333.903
354.18
381.924
414.363
445.098
468.12
481.671
300
300
300
300
300
300
300
300
300
300
300
300
300
300
300
300
300
300
300
300
300
300
300
300
300.001
300.001
300.002
300.004
300.007
300.013
300.023
300.04
300.069
300.12
300.209
300.363
300.631
301.096
301.902
303.294
305.686
309.76
316.577
327.647
344.824
369.373
400.13
432.031
458.419
475.469
300
300
300
300
300
300
300
300
300
300
300
300
300
300
300
300
300
300
300
300
300
300
300
300
300.001
300.001
300.002
300.003
300.006
300.01
300.018
300.032
300.055
300.096
300.167
300.29
300.503
300.873
301.513
302.619
304.52
307.768
313.24
322.236
336.497
357.645
385.823
417.675
446.812
467.692
300
300
300
300
300
300
300
300
300
300
300
300
300
300
300
300
300
300
300
300
300
300
300
300
300.001
300.001
300.002
300.003
300.005
300.008
300.015
300.025
300.044
300.076
300.132
300.229
300.397
300.687
301.19
302.059
303.553
306.112
310.445
317.643
329.255
347.011
371.956
402.466
433.274
457.943
300
300
300
300
300
300
300
300
300
300
300
300
300
300
300
300
300
300
300
300
300
300
300
300
300
300.001
300.001
300.002
300.004
300.007
300.011
300.02
300.034
300.059
300.103
300.179
300.309
300.536
300.927
301.601
302.763
304.753
308.137
313.808
323.086
337.634
358.991
386.991
418.036
445.915
300
300
300
300
300
300
300
300
300
300
300
300
300
300
300
300
300
300
300
300
300
300
300
300
300
300.001
300.001
300.002
300.003
300.005
300.009
300.015
300.027
300.046
300.08
300.138
300.239
300.413
300.713
301.231
302.123
303.652
306.259
310.655
317.929
329.571
347.274
371.899
401.618
431.52
300
300
300
300
300
300
300
300
300
300
300
300
300
300
300
300
300
300
300
300
300
300
300
300
300
300
300.001
300.001
300.002
300.004
300.007
300.012
300.02
300.035
300.061
300.105
300.182
300.314
300.542
300.935
301.611
302.77
304.749
308.102
313.695
322.799
337.027
357.805
384.794
415.022
300
300
300
300
300
300
300
300
300
300
300
300
300
300
300
300
300
300
300
300
300
300
300
300
300
300
300.001
300.001
300.002
300.003
300.005
300.009
300.015
300.027
300.046
300.08
300.137
300.237
300.407
300.702
301.207
302.073
303.553
306.067
310.286
317.242
328.344
345.198
368.473
397.144
300
300
300
300
300
300
300
300
300
300
300
300
300
300
300
300
300
300
300
300
300
300
300
300
300
300
300
300.001
300.001
300.002
300.004
300.007
300.012
300.02
300.034
300.059
300.102
300.176
300.302
300.519
300.892
301.53
302.62
304.473
307.595
312.791
321.217
334.4
353.524
379.012
300
300
300
300
300
300
300
300
300
300
300
300
300
300
300
300
300
300
300
300
300
300
300
300
300
300
300
300.001
300.001
300.002
300.003
300.005
300.009
300.015
300.025
300.044
300.075
300.129
300.221
300.38
300.651
301.114
301.904
303.249
305.518
309.318
315.553
325.533
340.585
361.912
300
300
300
300
300
300
300
300
300
300
300
300
300
300
300
300
300
300
300
300
300
300
300
300
300
300
300
300
300.001
300.001
300.002
300.004
300.006
300.011
300.019
300.032
300.055
300.093
300.16
300.274
300.469
300.801
301.366
302.327
303.951
306.679
311.193
318.541
329.965
346.907
300
300
300
300
300
300
300
300
300
300
300
300
300
300
300
300
300
300
300
300
300
300
300
300
300
300
300
300
300.001
300.001
300.002
300.003
300.005
300.008
300.013
300.023
300.039
300.067
300.114
300.196
300.334
300.569
300.969
301.648
302.795
304.724
307.936
313.225
321.644
334.558
300
300
300
300
300
300
300
300
300
300
300
300
300
300
300
300
300
300
300
300
300
300
300
300
300
300
300
300
300
300.001
300.001
300.002
300.003
300.006
300.01
300.016
300.028
300.048
300.081
300.138
300.235
300.4
300.681
301.155
301.957
303.307
305.562
309.305
315.369
324.913
300
300
300
300
300
300
300
300
300
300
300
300
300
300
300
300
300
300
300
300
300
300
300
300
300
300
300
300
300
300
300.001
300.001
300.002
300.004
300.007
300.012
300.02
300.034
300.057
300.097
300.165
300.28
300.474
300.804
301.361
302.298
303.866
306.483
310.777
317.667
300
300
300
300
300
300
300
300
300
300
300
300
300
300
300
300
300
300
300
300
300
300
300
300
300
300
300
300
300
300
300.001
300.001
300.002
300.003
300.005
300.008
300.014
300.023
300.04
300.068
300.115
300.194
300.329
300.557
300.941
301.588
302.672
304.486
307.489
312.379
300
300
300
300
300
300
300
300
300
300
300
300
300
300
300
300
300
300
300
300
300
300
300
300
300
300
300
300
300
300
300
300.001
300.001
300.002
300.003
300.006
300.01
300.016
300.028
300.047
300.079
300.134
300.227
300.384
300.648
301.093
301.839
303.09
305.173
308.598
300
300
300
300
300
300
300
300
300
300
300
300
300
300
300
300
300
300
300
300
300
300
300
300
300
300
300
300
300
300
300
300
300.001
300.001
300.002
300.004
300.007
300.011
300.019
300.032
300.055
300.092
300.156
300.264
300.445
300.75
301.262
302.121
303.557
305.935
300
300
300
300
300
300
300
300
300
300
300
300
300
300
300
300
300
300
300
300
300
300
300
300
300
300
300
300
300
300
300
300
300.001
300.001
300.002
300.003
300.005
300.008
300.013
300.022
300.038
300.063
300.107
300.181
300.305
300.513
300.864
301.452
302.439
304.078
300
300
300
300
300
300
300
300
300
300
300
300
300
300
300
300
300
300
300
300
300
300
300
300
300
300
300
300
300
300
300
300
300
300.001
300.001
300.002
300.003
300.005
300.009
300.015
300.026
300.044
300.073
300.124
300.208
300.351
300.59
300.993
301.669
302.794
300
300
300
300
300
300
300
300
300
300
300
300
300
300
300
300
300
300
300
300
300
300
300
300
300
300
300
300
300
300
300
300
300
300
300.001
300.001
300.002
300.004
300.006
300.01
300.018
300.03
300.05
300.084
300.142
300.239
300.403
300.678
301.139
301.91
300
300
300
300
300
300
300
300
300
300
300
300
300
300
300
300
300
300
300
300
300
300
300
300
300
300
300
300
300
300
300
300
300
300
300.001
300.001
300.001
300.003
300.004
300.007
300.012
300.02
300.034
300.058
300.097
300.163
300.275
300.462
300.777
301.303
300
300
300
300
300
300
300
300
300
300
300
300
300
300
300
300
300
300
300
300
300
300
300
300
300
300
300
300
300
300
300
300
300
300
300
300.001
300.001
300.002
300.003
300.005
300.008
300.014
300.023
300.039
300.066
300.111
300.187
300.314
300.529
300.888
300
300
300
300
300
300
300
300
300
300
300
300
300
300
300
300
300
300
300
300
300
300
300
300
300
300
300
300
300
300
300
300
300
300
300
300
300.001
300.001
300.002
300.003
300.006
300.009
300.016
300.027
300.045
300.076
300.127
300.214
300.36
300.604
300
300
300
300
300
300
300
300
300
300
300
300
300
300
300
300
300
300
300
300
300
300
300
300
300
300
300
300
300
300
300
300
300
300
300
300
300
300.001
300.001
300.002
300.004
300.006
300.011
300.018
300.031
300.051
300.087
300.145
300.245
300.411
300
300
300
300
300
300
300
300
300
300
300
300
300
300
300
300
300
300
300
300
300
300
300
300
300
300
300
300
300
300
300
300
300
300
300
300
300
300.001
300.001
300.002
300.003
300.004
300.007
300.012
300.021
300.035
300.059
300.099
300.166
300.279
300
300
300
300
300
300
300
300
300
300
300
300
300
300
300
300
300
300
300
300
300
300
300
300
300
300
300
300
300
300
300
300
300
300
300
300
300
300
300.001
300.001
300.002
300.003
300.005
300.008
300.014
300.024
300.04
300.067
300.113
300.189
300
300
300
300
300
300
300
300
300
300
300
300
300
300
300
300
300
300
300
300
300
300
300
300
300
300
300
300
300
300
300
300
300
300
300
300
300
300
300
300.001
300.001
300.002
300.003
300.006
300.01
300.016
300.027
300.045
300.076
300.128
300
300
300
300
300
300
300
300
300
300
300
300
300
300
300
300
300
300
300
300
300
300
300
300
300
300
300
300
300
300
300
300
300
300
300
300
300
300
300
300
300.001
300.001
300.002
300.004
300.007
300.011
300.018
300.031
300.052
300.087
300
300
300
300
300
300
300
300
300
300
300
300
300
300
300
300
300
300
300
300
300
300
300
300
300
300
300
300
300
300
300
300
300
300
300
300
300
300
300
300
300.001
300.001
300.002
300.003
300.004
300.007
300.012
300.021
300.035
300.059
300
300
300
300
300
300
300
300
300
300
300
300
300
300
300
300
300
300
300
300
300
300
300
300
300
300
300
300
300
300
300
300
300
300
300
300
300
300
300
300
300
300.001
300.001
300.002
300.003
300.005
300.008
300.014
300.024
300.04
300
300
300
300
300
300
300
300
300
300
300
300
300
300
300
300
300
300
300
300
300
300
300
300
300
300
300
300
300
300
300
300
300
300
300
300
300
300
300
300
300
300
300.001
300.001
300.002
300.003
300.006
300.01
300.016
300.027
300
300
300
300
300
300
300
300
300
300
300
300
300
300
300
300
300
300
300
300
300
300
300
300
300
300
300
300
300
300
300
300
300
300
300
300
300
300
300
300
300
300
300
300.001
300.001
300.002
300.004
300.006
300.011
300.018
300
300
300
300
300
300
300
300
300
300
300
300
300
300
300
300
300
300
300
300
300
300
300
300
300
300
300
300
300
300
300
300
300
300
300
300
300
300
300
300
300
300
300
300.001
300.001
300.002
300.003
300.004
300.007
300.012
300
300
300
300
300
300
300
300
300
300
300
300
300
300
300
300
300
300
300
300
300
300
300
300
300
300
300
300
300
300
300
300
300
300
300
300
300
300
300
300
300
300
300
300
300.001
300.001
300.002
300.003
300.005
300.008
300
300
300
300
300
300
300
300
300
300
300
300
300
300
300
300
300
300
300
300
300
300
300
300
300
300
300
300
300
300
300
300
300
300
300
300
300
300
300
300
300
300
300
300
300
300.001
300.001
300.002
300.003
300.006
300
300
300
300
300
300
300
300
300
300
300
300
300
300
300
300
300
300
300
300
300
300
300
300
300
300
300
300
300
300
300
300
300
300
300
300
300
300
300
300
300
300
300
300
300
300
300.001
300.001
300.002
300.004
300
300
300
300
300
300
300
300
300
300
300
300
300
300
300
300
300
300
300
300
300
300
300
300
300
300
300
300
300
300
300
300
300
300
300
300
300
300
300
300
300
300
300
300
300
300
300.001
300.001
300.002
300.003
300
300
300
300
300
300
300
300
300
300
300
300
300
300
300
300
300
300
300
300
300
300
300
300
300
300
300
300
300
300
300
300
300
300
300
300
300
300
300
300
300
300
300
300
300
300
300
300.001
300.001
300.002
300
300
300
300
300
300
300
300
300
300
300
300
300
300
300
300
300
300
300
300
300
300
300
300
300
300
300
300
300
300
300
300
300
300
300
300
300
300
300
300
300
300
300
300
300
300
300
300
300.001
300.001
300
300
300
300
300
300
300
300
300
300
300
300
300
300
300
300
300
300
300
300
300
300
300
300
300
300
300
300
300
300
300
300
300
300
300
300
300
300
300
300
300
300
300
300
300
300
300
300
300
300.001
300
300
300
300
300
300
300
300
300
300
300
300
300
300
300
300
300
300
300
300
300
300
300
300
300
300
300
300
300
300
300
300
300
300
300
300
300
300
300
300
300
300
300
300
300
300
300
300
300
300.001
300
300
300
300
300
300
300
300
300
300
300
300
300
300
300
300
300
300
300
300
300
300
300
300
300
300
300
300
300
300
300
300
300
300
300
300
300
300
300
300
300
300
300
300
300
300
300
300
300
300
300
300
300
300
300
300
300
300
300
300
300
300
300
300
300
300
300
300
300
300
300
300
300
300
300
300
300
300
300
300
300
300
300
300
300
300
300
300
300
300
300
300
300
300
300
300
300
300
300
300
300
300
300
300
300
300
300
300
300
300
300
300
300
300
300
300
300
300
300
300
300
300
300
300
300
300
300
300
300
300
300
300
300
300
300
300
300
300
300
300
300
300
300
300
300
300
300
300
300
300
300
300
300
300
300
300
300
300
300
300
300
300
300
300
300
300
300
300
300
300
300
300
300
300
300
300
300
300
300
300
300
300
300
300
300
300
300
300
300
300
300
300
300
300
300
300
300
300
300
300
300
300
300
300
300
300
300
300
300
300
300
300
300
300
300
300
300
300
300
300
300
300
300
300
300
300
300
300
300
300
300
300
300
300
300
300
300
300
300
300
300
300
300
300
300
300
300
300
300
300
300
300
300
300
300
300
300
300
300
300
300
300
300
300
300
300
300
300
300
300
300
300
300
300
300
300
300
300
300
300
300
300
300
300
300
300
300
300
300
300
300
300
300
300
300
300
300
300
300
300
300
300
300
300
300
300
300
300
300
300
300
300
300
300
300
300
300
300
300
300
300
300
300
300
300
300
300
300
300
300
300
300
300
300
300
300
300
300
300
300
300
300
300
300
300
300
300
300
300
300
300
300
300
300
300
300
300
300
300
300
300
300
300
300
300
300
300
300
300
300
300
300
300
300
300
300
300
300
300
300
300
300
300
300
300
300
300
300
300
300
300
300
300
300
300
300
300
300
300
300
300
300
300
300
300
300
300
300
300
300
300
300
300
300
300
300
300
300
300
300
300
300
300
300
300
300
300
300
300
300
300
300
300
300
300
300
300
300
300
300
300
300
300
300
300
300
300
300
300
300
300
300
300
300
300
300
300
300
300
300
300
300
300
300
300
300
300
300
300
300
300
300
300
300
300
300
300
300
300
300
300
300
300
300
300
300
300
300
300
300
300
300
300
300
300
300
300
300
300
300
300
300
300
300
300
300
300
300
300
300
300
300
300
300
300
300
300
300
300
300
300
300
300
300
300
300
300
300
300
300
300
300
300
300
300
300
300
300
300
300
300
300
300
300
300
300
300
300
300
300
300
300
300
300
300
300
300
300
300
300
300
300
300
300
300
300
300
300
300
300
300
300
300
300
300
300
300
300
300
300
300
300
300
300
300
300
300
300
300
300
300
300
300
300
300
300
300
300
300
300
300
300
300
300
300
300
300
300
300
300
300
300
300
300
300
300
300
300
300
300
300
300
300
300
300
300
300
300
300
300
300
300
300
300
300
300
300
300
300
300
300
300
300
300
300
300
300
300
300
300
300
300
300
300
300
300
300
300
300
300
300
300
300
300
300
300
300
300
300
300
300
300
300
300
300
300
300
300
300
300
300
300
300
300
300
300
300
300
300
300
300
300
300
300
300
300
300
300
300
300
300
300
300
300
300
300
300
300
300
300
300
300
300
300
300
300
300
300
300
300
300
300
300
300
300
300
300
300
300
300
300
300
300
300
300
300
300
300
300
300
300
300
300
300
300
300
300
300
300
300
300
300
300
300
300
300
300
300
300
300
300
300
300
300
300
300
300
300
300
300
300
300
300
300
300
300
300
300
300
300
300
300
300
300
300
300
300
300
300
300
300
300
300
300
300
300
300
300
300
300
300
300
300
300
300
300
300
300
300
300
300
300
300
300
300
300
300
300
300
300
300
300
300
300
300
300
300
300
300
300
300
300
300
300
300
300
300
300
300
300
300
300
300
300
300
300
300
300
300
300
300
300
300
300
300
300
300
300
300
300
300
300
300
300
300
300
300
300
300
300
300
300
300
300
300
300
300
300
300
300
300
300
300
300
300
300
300
300
300
300
300
300
300
300
300
300
300
300
300
300
300
300
300
300
300
300
300
300
300
300
300
300
300
300
300
300
300
300
300
300
300
300
300
300
300
300
300
300
300
300
300
300
300
300
300
300
300
300
300
300
300
300
300
300
300
300
300
300
300
300
300
300
300
300
300
300
300
300
300
300
300
300
300
300
300
300
300
300
300
300
300
300
300
300
300
300
300
300
300
300
300
300
300
300
300
300
300
300
300
300
300
300
300
300
300
300
300
300
300
300
300
300
300
300
300
300
300
300
300
300
300
300
300
300
300
300
300
300
300
300
300
300
300
300
300
300
300
300
300
300
300
300
300
300
300
300
300
300
300
300
300
300
300
300
300
300
300
300
300
300
300
300
300
300
300
300
300
300
300
300
300
300
300
300
300
300
300
300
300
300
300
300
300
300
300
300
300
300
300
300
300
300
300
300
300
300
300
300
300
300
300
300
300
300
300
300
300
300
300
300
300
300
300
300
300
300
300
300
300
300
300
300
300
300
300
300
300
300
300
300
300
300
300
300
300
300
300
300
300
300
300
300
300
300
300
300
300
300
300
300
300
300
300
300
300
300
300
300
300
300
300
300
300
300
300
300
300
300
300
300
300
300
300
300
300
300
300
300
300
300
300
300
300
300
300
300
300
300
300
300
300
300
300
300
300
300
300
300
300
300
300
300
300
300
300
300
300
300
300
300
300
300
300
300
300
300
300
300
300
300
300
300
300
300
300
300
300
300
300
300
300
300
300
300
300
300
300
300
300
300
300
300
300
300
300
300
300
300
300
300
300
300
300
300
300
300
300
300
300
300
300
300
300
300
300
300
300
300
300
300
300
300
300
300
300
300
300
300
300
300
300
300
300
300
300
300
300
300
300
300
300
300
300
300
300
300
300
300
300
300
300
300
300
300
300
300
300
300
300
300
300
300
300
300
300
300
300
300
300
300
300
300
300
300
300
300
300
300
300
300
300
300
300
300
300
300
300
300
300
300
300
300
300
300
300
300
300
300
300
300
300
300
300
300
300
300
300
300
300
300
300
300
300
300
300
300
300
300
300
300
300
300
300
300
300
300
300
300
300
300
300
300
300
300
300
300
300
300
300
300
300
300
300
300
300
300
300
300
300
300
300
300
300
300
300
300
300
300
300
300
300
300
300
300
300
300
300
300
300
300
300
300
300
300
300
300
300
300
300
300
300
300
300
300
300
300
300
300
300
300
300
300
300
300
300
300
300
300
300
300
300
300
300
300
300
300
300
300
300
300
300
300
300
300
300
300
300
300
300
300
300
300
300
300
300
300
300
300
300
300
300
300
300
300
300
300
300
300
300
300
300
300
300
300
300
300
300
300
300
300
300
300
300
300
300
300
300
300
300
300
300
300
300
300
300
300
300
300
300
300
300
300
300
300
300
300
300
300
300
300
300
300
300
300
300
300
300
300
300
300
300
300
300
300
300
300
300
300
300
300
300
300
300
300
300
300
300
300
300
300
300
300
300
300
300
300
300
300
300
300
300
300
300
300
300
300
300
300
300
300
300
300
300
300
300
300
300
300
300
300
300
300
300
300
300
300
300
300
300
300
300
300
300
300
300
300
300
300
300
300
300
300
300
300
300
300
300
300
300
300
300
300
300
300
300
300
300
300
300
300
300
300
300
300
300
300
300
300
300
300
300
300
300
300
300
300
300
300
300
300
300
300
300
300
300
300
300
300
300
300
300
300
300
300
300
300
300
300
300
300
300
300
300
300
300
300
300
300
300
300
300
300
300
300
300
300
300
300
300
300
300
300
300
300
300
300
300
300
300
300
300
300
300
300
300
300
300
300
300
300
300
300
300
300
300
300
300
300
300
300
300
300
300
300
300
300
300
300
300
300
300
300
300
300
300
300
300
300
300
300
300
300
300
300
300
300
300
300
300
300
300
300
300
300
300
300
300
300
300
300
300
300
300
300
300
300
300
300
300
300
300
300
300
300
300
300
300
300
300
300
300
300
300
300
300
300
300
300
300
300
300
300
300
300
300
300
300
300
300
300
300
300
300
300
300
300
300
300
300
300
300
300
300
300
300
300
300
300
300
300
300
300
300
300
300
300
300
300
300
300
300
300
300
300
300
300
300
300
300
300
300
300
300
300
300
300
300
300
300
300
300
300
300
300
300
300
300
300
300
300
300
300
300
300
300
300
300
300
300
300
300
300
300
300
300
300
300
300
300
300
300
300
300
300
300
300
300
300
300
300
300
300
300
300
300
300
300
300
300
300
300
300
300
300
300
300
300
300
300
300
300
300
300
300
300
300
300
300
300
300
300
300
300
300
300
300
300
300
300
300
300
300
300
300
300
300
300
300
300
300
300
300
300
300
300
300
300
300
300
300
300
300
300
300
300
300
300
300
300
300
300
300
300
300
300
300
300
300
300
300
300
300
300
300
300
300
300
300
300
300
300
300
300
300
300
300
300
300
300
300
300
300
300
300
300
300
300
300
300
300
300
300
300
300
300
300
300
300
300
300
300
300
300
300
300
300
300
300
300
300
300
300
300
300
300
300
300
300
300
300
300
300
300
300
300
300
300
300
300
300
300
300
300
300
300
300
300
300
300
300
300
300
300
300
300
300
300
300
300
300
300
300
300
300
300
300
300
300
300
300
300
300
300
300
300
300
300
300
300
300
300
300
300
300
300
300
300
300
300
300
300
300
300
300
300
300
300
300
300
300
300
300
300
300
300
300
300
300
300
300
300
300
300
300
300
300
300
300
300
300
300
300
300
300
300
300
300
300
300
300
300
300
300
300
300
300
300
300
300
300
300
300
300
300
300
300
300
300
300
300
300
300
300
300
300
300
300
300
300
300
300
300
300
300
300
300
300
300
300
300
300
300
300
300
300
300
300
300
300
300
300
300
300
300
300
300
300
300
300
300
300
300
300
300
300
300
300
300
300
300
300
300
300
300
300
300
300
300
300
300
300
300
300
300
300
300
300
300
300
300
300
300
300
300
300
300
300
300
300
300
300
300
300
300
300
300
300
300
300
300
300
300
300
300
300
300
300
300
300
300
300
300
300
300
300
300
300
300
300
300
300
300
300
300
300
300
300
300
300
300
300
300
300
300
300
300
300
300
300
300
300
300
300
300
300
300
300
300
300
300
300
300
300
300
300
300
300
300
300
300
300
300
300
300
300
300
300
300
300
300
300
300
300
300
300
300
300
300
300
300
300
300
300
300
300
300
300
300
300
300
300
300
300
300
300
300
300
300
300
300
300
300
300
300
300
300
300
300
300
300
300
300
300
300
300
300
300
300
300
300
300
300
300
300
300
300
300
300
300
300
300
300
300
300
300
300
300
300
300
300
300
300
300
300
300
300
300
300
300
300
300
300
300
300
300
300
300
300
300
300
300
300
300
300
300
300
300
300
300
300
300
300
300
300
300
300
300
300
300
300
300
300
300
300
300
300
300
300
300
300
300
300
300
300
300
300
300
300
300
300
300
300
300
300
300
300
300
300
300
300
300
300
300
300
300
300
300
300
300
300
300
300
300
300
300
300
300
300
300
300
300
300
300
300
300
300
300
300
300
300
300
300
300
300
300
300
300
300
300
300
300
300
300
300
300
300
300
300
300
300
300
300
300
300
300
300
300
300
300
300
523.563
519.479
516.55
514.353
512.29
510.558
509.149
507.897
506.806
505.803
504.914
504.086
503.34
502.638
501.997
501.389
500.829
500.297
499.803
499.334
498.895
498.475
498.081
497.703
497.346
497.002
496.675
496.359
496.057
495.765
495.483
495.21
494.945
494.687
494.436
494.191
493.952
493.718
493.49
493.266
493.047
492.832
492.621
492.414
492.211
492.011
491.814
491.621
491.431
491.243
491.059
490.877
490.698
490.522
490.348
490.177
490.008
489.841
489.677
489.514
489.355
489.197
489.041
488.888
488.736
488.587
488.44
488.295
488.152
488.011
487.873
487.736
487.602
487.47
487.341
487.213
487.089
486.966
486.847
486.73
486.616
486.504
486.396
486.291
486.189
486.091
485.997
485.906
485.819
485.737
485.66
485.587
485.52
485.458
485.403
485.355
485.315
485.284
485.25
485.256
515.309
512.785
510.484
508.74
507.196
505.827
504.622
503.546
502.554
501.647
500.797
500.015
499.277
498.597
497.952
497.354
496.785
496.254
495.747
495.273
494.822
494.398
493.992
493.609
493.241
492.89
492.552
492.228
491.914
491.611
491.316
491.031
490.753
490.484
490.22
489.964
489.713
489.469
489.229
488.995
488.765
488.541
488.32
488.104
487.891
487.683
487.478
487.277
487.079
486.885
486.693
486.505
486.32
486.138
485.958
485.781
485.607
485.436
485.267
485.101
484.937
484.776
484.617
484.461
484.307
484.156
484.007
483.86
483.716
483.575
483.435
483.299
483.164
483.033
482.904
482.778
482.654
482.534
482.416
482.301
482.19
482.082
481.977
481.875
481.778
481.684
481.595
481.509
481.429
481.353
481.282
481.217
481.157
481.104
481.058
481.02
480.989
480.969
480.958
480.957
510.177
509.4
508.179
507.064
506.011
505.023
504.081
503.195
502.354
501.564
500.822
500.127
499.479
498.869
498.297
497.759
497.259
496.788
496.348
495.931
495.537
495.16
494.802
494.46
494.133
493.819
493.518
493.227
492.948
492.676
492.413
492.157
491.908
491.665
491.428
491.196
490.97
490.748
490.53
490.316
490.107
489.901
489.699
489.5
489.304
489.111
488.921
488.734
488.55
488.368
488.189
488.012
487.838
487.665
487.496
487.328
487.163
486.999
486.838
486.678
486.521
486.365
486.212
486.06
485.911
485.763
485.618
485.474
485.332
485.192
485.055
484.919
484.786
484.654
484.526
484.399
484.274
484.153
484.033
483.917
483.803
483.692
483.584
483.479
483.378
483.28
483.186
483.096
483.01
482.929
482.852
482.781
482.715
482.655
482.601
482.555
482.516
482.486
482.459
482.457
506.283
505.852
504.915
503.863
502.823
501.816
500.865
499.956
499.105
498.299
497.546
496.837
496.175
495.554
494.978
494.441
493.933
493.454
492.998
492.57
492.163
491.777
491.408
491.055
490.716
490.39
490.075
489.773
489.479
489.196
488.92
488.653
488.393
488.14
487.893
487.652
487.417
487.188
486.963
486.743
486.528
486.318
486.111
485.909
485.711
485.517
485.326
485.139
484.954
484.774
484.596
484.422
484.251
484.082
483.917
483.754
483.594
483.437
483.282
483.13
482.98
482.833
482.688
482.546
482.406
482.269
482.134
482.002
481.872
481.745
481.62
481.498
481.378
481.261
481.147
481.036
480.927
480.821
480.718
480.619
480.522
480.429
480.34
480.254
480.172
480.094
480.02
479.951
479.886
479.826
479.772
479.723
479.68
479.643
479.614
479.591
479.576
479.571
479.568
479.593
502.945
502.885
502.311
501.582
500.827
500.098
499.401
498.74
498.108
497.513
496.947
496.417
495.913
495.441
494.986
494.551
494.136
493.738
493.357
492.993
492.645
492.313
491.993
491.685
491.388
491.101
490.822
490.551
490.288
490.032
489.782
489.537
489.299
489.065
488.836
488.611
488.391
488.174
487.962
487.752
487.547
487.344
487.145
486.948
486.755
486.564
486.376
486.191
486.008
485.827
485.649
485.473
485.299
485.128
484.958
484.791
484.626
484.462
484.301
484.142
483.985
483.829
483.676
483.525
483.375
483.228
483.082
482.939
482.798
482.658
482.521
482.386
482.254
482.123
481.995
481.869
481.747
481.626
481.508
481.393
481.282
481.173
481.067
480.965
480.867
480.772
480.681
480.595
480.513
480.435
480.363
480.296
480.235
480.179
480.13
480.088
480.053
480.026
480.002
480.004
499.989
500.269
499.938
499.387
498.764
498.131
497.506
496.889
496.285
495.693
495.121
494.565
494.031
493.514
493.025
492.561
492.122
491.706
491.311
490.933
490.573
490.226
489.894
489.573
489.265
488.966
488.677
488.398
488.126
487.863
487.607
487.357
487.114
486.877
486.646
486.42
486.199
485.983
485.772
485.565
485.362
485.164
484.969
484.778
484.59
484.406
484.225
484.047
483.873
483.701
483.532
483.366
483.203
483.043
482.885
482.729
482.576
482.426
482.278
482.132
481.989
481.848
481.709
481.572
481.438
481.306
481.176
481.049
480.923
480.8
480.68
480.562
480.446
480.333
480.222
480.114
480.009
479.906
479.807
479.71
479.617
479.526
479.439
479.356
479.276
479.2
479.129
479.061
478.998
478.94
478.887
478.84
478.797
478.761
478.731
478.708
478.691
478.682
478.672
478.696
497.227
497.895
497.792
497.393
496.891
496.368
495.849
495.337
494.837
494.352
493.886
493.441
493.017
492.618
492.234
491.868
491.516
491.182
490.858
490.547
490.245
489.953
489.668
489.392
489.122
488.859
488.603
488.352
488.107
487.867
487.632
487.401
487.175
486.953
486.735
486.521
486.31
486.103
485.9
485.699
485.502
485.308
485.117
484.928
484.743
484.559
484.379
484.201
484.025
483.852
483.681
483.512
483.346
483.181
483.019
482.859
482.701
482.545
482.391
482.239
482.089
481.941
481.795
481.651
481.509
481.369
481.232
481.096
480.962
480.831
480.702
480.575
480.451
480.328
480.209
480.092
479.977
479.865
479.757
479.651
479.548
479.448
479.352
479.259
479.171
479.085
479.005
478.928
478.856
478.789
478.726
478.669
478.618
478.572
478.532
478.499
478.472
478.452
478.434
478.445
494.512
495.682
495.839
495.589
495.19
494.755
494.317
493.881
493.45
493.025
492.609
492.202
491.806
491.421
491.049
490.688
490.339
490
489.672
489.352