/*--------------------------------*- C++ -*----------------------------------*\
| =========                 |                                                 |
| \\      /  F ield         | OpenFOAM: The Open Source CFD Toolbox           |
|  \\    /   O peration     | Version:  2412                                  |
|   \\  /    A nd           | Website:  www.openfoam.com                      |
|    \\/     M anipulation  |                                                 |
\*---------------------------------------------------------------------------*/
FoamFile
{
    version     2.0;
    format      ascii;
    arch        "LSB;label=32;scalar=64";
    class       volVectorField;
    location    "0.0999";
    object      U;
}
// * * * * * * * * * * * * * * * * * * * * * * * * * * * * * * * * * * * * * //

dimensions      [0 1 -1 0 0 0 0];

internalField   nonuniform List<vector> 
15000
(
(694.73 1.2024e-11 0)
(694.73 3.9188e-11 0)
(694.73 9.25454e-11 0)
(694.73 1.91158e-10 0)
(694.73 3.70618e-10 0)
(694.73 6.94198e-10 0)
(694.73 1.27501e-09 0)
(694.73 2.31522e-09 0)
(694.73 4.1763e-09 0)
(694.73 7.50472e-09 0)
(694.73 1.34568e-08 0)
(694.73 2.41027e-08 0)
(694.73 4.31473e-08 0)
(694.73 7.72275e-08 0)
(694.73 1.38231e-07 0)
(694.73 2.47469e-07 0)
(694.73 4.43143e-07 0)
(694.73 7.938e-07 0)
(694.73 1.42242e-06 0)
(694.73 2.54989e-06 0)
(694.73 4.57287e-06 0)
(694.729 8.20456e-06 0)
(694.729 1.47272e-05 0)
(694.728 2.64488e-05 0)
(694.726 4.75242e-05 0)
(694.724 8.54423e-05 0)
(694.719 0.000153703 0)
(694.71 0.000276676 0)
(694.695 0.000498359 0)
(694.668 0.00089831 0)
(694.621 0.00162046 0)
(694.536 0.00292558 0)
(694.388 0.00528632 0)
(694.125 0.00956035 0)
(693.66 0.017305 0)
(692.839 0.0313562 0)
(691.386 0.0568817 0)
(688.823 0.103276 0)
(684.311 0.187532 0)
(676.404 0.340313 0)
(662.66 0.616313 0)
(639.281 1.11014 0)
(601.449 1.96747 0)
(545.61 3.35787 0)
(473.689 5.36861 0)
(395.222 7.9001 0)
(323.211 10.7519 0)
(266.475 13.9301 0)
(225.548 17.9933 0)
(193.377 24.3405 0)
(694.73 3.50554e-11 0)
(694.73 1.14385e-10 0)
(694.73 2.7025e-10 0)
(694.73 5.5838e-10 0)
(694.73 1.0826e-09 0)
(694.73 2.02762e-09 0)
(694.73 3.7231e-09 0)
(694.73 6.75837e-09 0)
(694.73 1.2186e-08 0)
(694.73 2.1888e-08 0)
(694.73 3.92279e-08 0)
(694.73 7.02242e-08 0)
(694.73 1.25638e-07 0)
(694.73 2.24738e-07 0)
(694.73 4.01999e-07 0)
(694.73 7.19193e-07 0)
(694.73 1.28692e-06 0)
(694.73 2.3035e-06 0)
(694.73 4.12429e-06 0)
(694.73 7.387e-06 0)
(694.73 1.32353e-05 0)
(694.729 2.37233e-05 0)
(694.729 4.25384e-05 0)
(694.728 7.63099e-05 0)
(694.727 0.00013695 0)
(694.724 0.000245899 0)
(694.719 0.000441726 0)
(694.711 0.000793931 0)
(694.696 0.00142769 0)
(694.67 0.00256885 0)
(694.624 0.0046248 0)
(694.543 0.0083317 0)
(694.399 0.0150192 0)
(694.145 0.027092 0)
(693.697 0.0488988 0)
(692.906 0.0883228 0)
(691.509 0.15965 0)
(689.045 0.288708 0)
(684.714 0.521908 0)
(677.133 0.942405 0)
(663.971 1.69713 0)
(641.583 3.03723 0)
(605.288 5.34255 0)
(551.446 9.0378 0)
(481.563 14.2902 0)
(404.75 20.6856 0)
(334.197 27.4038 0)
(279.751 33.9617 0)
(243.486 40.7679 0)
(221.044 49.0747 0)
(694.73 5.54618e-11 0)
(694.73 1.81045e-10 0)
(694.73 4.27828e-10 0)
(694.73 8.83779e-10 0)
(694.73 1.71288e-09 0)
(694.73 3.20649e-09 0)
(694.73 5.88426e-09 0)
(694.73 1.0674e-08 0)
(694.73 1.92307e-08 0)
(694.73 3.45114e-08 0)
(694.73 6.17933e-08 0)
(694.73 1.10508e-07 0)
(694.73 1.97499e-07 0)
(694.73 3.52883e-07 0)
(694.73 6.3047e-07 0)
(694.73 1.12653e-06 0)
(694.73 2.01317e-06 0)
(694.73 3.59847e-06 0)
(694.73 6.43351e-06 0)
(694.73 1.15054e-05 0)
(694.73 2.0581e-05 0)
(694.729 3.68271e-05 0)
(694.729 6.59158e-05 0)
(694.728 0.000118021 0)
(694.727 0.000211377 0)
(694.724 0.000378717 0)
(694.72 0.000678752 0)
(694.712 0.00121695 0)
(694.698 0.00218265 0)
(694.673 0.00391623 0)
(694.63 0.0070293 0)
(694.554 0.0126224 0)
(694.42 0.0226744 0)
(694.183 0.0407467 0)
(693.764 0.0732452 0)
(693.027 0.131715 0)
(691.727 0.236941 0)
(689.439 0.426246 0)
(685.423 0.766212 0)
(678.405 1.37517 0)
(666.232 2.46038 0)
(645.516 4.37342 0)
(611.774 7.64493 0)
(561.194 12.8738 0)
(494.476 20.3129 0)
(419.749 29.3608 0)
(350.033 38.6902 0)
(296.034 47.1952 0)
(260.871 54.7215 0)
(240.725 61.9391 0)
(694.73 7.20784e-11 0)
(694.73 2.35198e-10 0)
(694.73 5.55656e-10 0)
(694.73 1.14738e-09 0)
(694.73 2.22245e-09 0)
(694.73 4.15735e-09 0)
(694.73 7.62252e-09 0)
(694.73 1.38135e-08 0)
(694.73 2.48597e-08 0)
(694.73 4.45598e-08 0)
(694.73 7.96823e-08 0)
(694.73 1.42306e-07 0)
(694.73 2.53961e-07 0)
(694.73 4.53084e-07 0)
(694.73 8.08213e-07 0)
(694.73 1.44175e-06 0)
(694.73 2.57203e-06 0)
(694.73 4.58917e-06 0)
(694.73 8.18931e-06 0)
(694.73 1.46167e-05 0)
(694.73 2.60929e-05 0)
(694.729 4.65899e-05 0)
(694.729 8.32024e-05 0)
(694.728 0.000148622 0)
(694.727 0.000265526 0)
(694.725 0.000474502 0)
(694.721 0.000848105 0)
(694.713 0.00151624 0)
(694.701 0.00271124 0)
(694.678 0.00484924 0)
(694.639 0.00867484 0)
(694.569 0.0155223 0)
(694.447 0.0277798 0)
(694.231 0.0497254 0)
(693.852 0.0890146 0)
(693.184 0.15937 0)
(692.009 0.285352 0)
(689.946 0.510817 0)
(686.328 0.913552 0)
(680.017 1.63091 0)
(669.08 2.90203 0)
(650.437 5.13162 0)
(619.871 8.93677 0)
(573.372 15.0419 0)
(510.605 23.8248 0)
(438.245 34.6567 0)
(368.692 45.8821 0)
(313.442 55.8267 0)
(276.975 63.8372 0)
(256.432 70.3359 0)
(694.73 8.40735e-11 0)
(694.73 2.74281e-10 0)
(694.73 6.47904e-10 0)
(694.73 1.3373e-09 0)
(694.73 2.58868e-09 0)
(694.73 4.83829e-09 0)
(694.73 8.86192e-09 0)
(694.73 1.60406e-08 0)
(694.73 2.883e-08 0)
(694.73 5.1603e-08 0)
(694.73 9.21366e-08 0)
(694.73 1.64284e-07 0)
(694.73 2.92688e-07 0)
(694.73 5.21256e-07 0)
(694.73 9.28111e-07 0)
(694.73 1.65247e-06 0)
(694.73 2.94213e-06 0)
(694.73 5.23874e-06 0)
(694.73 9.32855e-06 0)
(694.73 1.66133e-05 0)
(694.73 2.95891e-05 0)
(694.729 5.27069e-05 0)
(694.729 9.38939e-05 0)
(694.728 0.00016729 0)
(694.727 0.000298081 0)
(694.725 0.000531203 0)
(694.721 0.000946716 0)
(694.715 0.00168747 0)
(694.704 0.00300802 0)
(694.684 0.00536262 0)
(694.648 0.00956088 0)
(694.587 0.0170477 0)
(694.478 0.0303983 0)
(694.287 0.0542062 0)
(693.951 0.0966533 0)
(693.361 0.172334 0)
(692.325 0.307241 0)
(690.508 0.547577 0)
(687.328 0.974932 0)
(681.789 1.73268 0)
(672.194 3.06938 0)
(655.809 5.40637 0)
(628.732 9.39719 0)
(586.831 15.8536 0)
(528.68 25.3152 0)
(459.171 37.2904 0)
(389.613 50.0086 0)
(332.112 61.3498 0)
(292.819 70.1667 0)
(270.283 76.6425 0)
(694.73 9.13376e-11 0)
(694.73 2.97973e-10 0)
(694.73 7.03541e-10 0)
(694.73 1.45138e-09 0)
(694.73 2.80732e-09 0)
(694.73 5.24185e-09 0)
(694.73 9.59012e-09 0)
(694.73 1.7336e-08 0)
(694.73 3.1113e-08 0)
(694.73 5.5602e-08 0)
(694.73 9.9111e-08 0)
(694.73 1.76409e-07 0)
(694.73 3.13712e-07 0)
(694.73 5.57629e-07 0)
(694.73 9.90906e-07 0)
(694.73 1.76067e-06 0)
(694.73 3.12813e-06 0)
(694.73 5.55777e-06 0)
(694.73 9.87439e-06 0)
(694.73 1.75446e-05 0)
(694.73 3.11731e-05 0)
(694.73 5.53915e-05 0)
(694.729 9.84257e-05 0)
(694.729 0.000174904 0)
(694.728 0.000310808 0)
(694.726 0.00055234 0)
(694.722 0.000981561 0)
(694.717 0.0017444 0)
(694.707 0.00310002 0)
(694.689 0.00550927 0)
(694.659 0.00979051 0)
(694.605 0.0173989 0)
(694.51 0.0309178 0)
(694.344 0.0549381 0)
(694.053 0.0976031 0)
(693.542 0.173378 0)
(692.647 0.307913 0)
(691.081 0.546637 0)
(688.344 0.96951 0)
(683.58 1.71652 0)
(675.332 3.02973 0)
(661.22 5.32071 0)
(637.713 9.24052 0)
(600.679 15.6489 0)
(547.71 25.2541 0)
(481.749 37.8272 0)
(412.518 51.6947 0)
(352.351 64.4329 0)
(309.188 74.3716 0)
(283.437 81.3405 0)
(694.73 9.41453e-11 0)
(694.73 3.07039e-10 0)
(694.73 7.2473e-10 0)
(694.73 1.49422e-09 0)
(694.73 2.88792e-09 0)
(694.73 5.38706e-09 0)
(694.73 9.84403e-09 0)
(694.73 1.77707e-08 0)
(694.73 3.18447e-08 0)
(694.73 5.68162e-08 0)
(694.73 1.01099e-07 0)
(694.73 1.79617e-07 0)
(694.73 3.18808e-07 0)
(694.73 5.65565e-07 0)
(694.73 1.00296e-06 0)
(694.73 1.77833e-06 0)
(694.73 3.15269e-06 0)
(694.73 5.58898e-06 0)
(694.73 9.90724e-06 0)
(694.73 1.75619e-05 0)
(694.73 3.11291e-05 0)
(694.73 5.51778e-05 0)
(694.729 9.77994e-05 0)
(694.729 0.000173344 0)
(694.728 0.000307222 0)
(694.726 0.000544493 0)
(694.724 0.000964938 0)
(694.719 0.00171 0)
(694.71 0.00303008 0)
(694.695 0.00536899 0)
(694.669 0.00951225 0)
(694.623 0.0168519 0)
(694.542 0.0298509 0)
(694.4 0.0528709 0)
(694.152 0.0936218 0)
(693.718 0.165748 0)
(692.959 0.293353 0)
(691.633 0.518995 0)
(689.318 0.917401 0)
(685.293 1.61906 0)
(678.326 2.84925 0)
(666.384 4.99218 0)
(646.345 8.66716 0)
(614.225 14.7409 0)
(566.861 24.0652 0)
(505.265 36.7405 0)
(437.127 51.3841 0)
(374.42 65.4535 0)
(326.751 76.7643 0)
(296.771 84.6581 0)
(694.73 9.30781e-11 0)
(694.73 3.0356e-10 0)
(694.73 7.16297e-10 0)
(694.73 1.47601e-09 0)
(694.73 2.85063e-09 0)
(694.73 5.31221e-09 0)
(694.73 9.69552e-09 0)
(694.73 1.74783e-08 0)
(694.73 3.12726e-08 0)
(694.73 5.57029e-08 0)
(694.73 9.89431e-08 0)
(694.73 1.75462e-07 0)
(694.73 3.10834e-07 0)
(694.73 5.50327e-07 0)
(694.73 9.73941e-07 0)
(694.73 1.72327e-06 0)
(694.73 3.04852e-06 0)
(694.73 5.39247e-06 0)
(694.73 9.53749e-06 0)
(694.73 1.68678e-05 0)
(694.73 2.98291e-05 0)
(694.73 5.27476e-05 0)
(694.729 9.32653e-05 0)
(694.729 0.000164899 0)
(694.728 0.000291517 0)
(694.727 0.000515332 0)
(694.724 0.000910868 0)
(694.72 0.00160988 0)
(694.713 0.00284493 0)
(694.7 0.00502703 0)
(694.678 0.00888141 0)
(694.639 0.0156894 0)
(694.571 0.0277112 0)
(694.452 0.0489372 0)
(694.245 0.0863995 0)
(693.882 0.152502 0)
(693.248 0.269089 0)
(692.142 0.474623 0)
(690.214 0.836509 0)
(686.865 1.47225 0)
(681.07 2.58453 0)
(671.121 4.51991 0)
(654.32 7.84604 0)
(626.966 13.399 0)
(585.435 22.1245 0)
(529.013 34.4572 0)
(463.05 49.4542 0)
(398.456 64.6791 0)
(346.082 77.5178 0)
(311.044 86.7101 0)
(694.73 8.90391e-11 0)
(694.73 2.90299e-10 0)
(694.73 6.8469e-10 0)
(694.73 1.41e-09 0)
(694.73 2.72087e-09 0)
(694.73 5.06524e-09 0)
(694.73 9.23359e-09 0)
(694.73 1.66226e-08 0)
(694.73 2.96966e-08 0)
(694.73 5.28089e-08 0)
(694.73 9.36392e-08 0)
(694.73 1.65754e-07 0)
(694.73 2.93081e-07 0)
(694.73 5.17885e-07 0)
(694.73 9.14697e-07 0)
(694.73 1.61514e-06 0)
(694.73 2.85128e-06 0)
(694.73 5.03288e-06 0)
(694.73 8.88226e-06 0)
(694.73 1.56745e-05 0)
(694.73 2.76569e-05 0)
(694.73 4.87955e-05 0)
(694.73 8.60786e-05 0)
(694.729 0.000151836 0)
(694.728 0.000267787 0)
(694.727 0.000472243 0)
(694.725 0.000832668 0)
(694.722 0.00146803 0)
(694.716 0.00258774 0)
(694.705 0.00456096 0)
(694.687 0.00803727 0)
(694.655 0.0141612 0)
(694.598 0.0249463 0)
(694.5 0.0439377 0)
(694.328 0.0773663 0)
(694.029 0.136192 0)
(693.507 0.239659 0)
(692.597 0.421575 0)
(691.014 0.741084 0)
(688.265 1.30119 0)
(683.509 2.27954 0)
(675.335 3.98042 0)
(661.46 6.90855 0)
(638.566 11.8395 0)
(602.871 19.753 0)
(552.29 31.3683 0)
(489.756 46.2625 0)
(424.4 62.3401 0)
(367.614 76.7355 0)
(326.945 87.5339 0)
(694.73 8.27734e-11 0)
(694.73 2.69879e-10 0)
(694.73 6.36302e-10 0)
(694.73 1.30957e-09 0)
(694.73 2.52503e-09 0)
(694.73 4.69603e-09 0)
(694.73 8.55044e-09 0)
(694.73 1.53722e-08 0)
(694.73 2.74218e-08 0)
(694.73 4.86856e-08 0)
(694.73 8.61817e-08 0)
(694.73 1.52283e-07 0)
(694.73 2.6877e-07 0)
(694.73 4.74032e-07 0)
(694.73 8.35632e-07 0)
(694.73 1.47263e-06 0)
(694.73 2.59452e-06 0)
(694.73 4.57038e-06 0)
(694.73 8.04943e-06 0)
(694.73 1.41752e-05 0)
(694.73 2.49586e-05 0)
(694.73 4.39407e-05 0)
(694.73 7.73467e-05 0)
(694.729 0.000136135 0)
(694.729 0.000239565 0)
(694.728 0.000421527 0)
(694.726 0.000741566 0)
(694.723 0.00130442 0)
(694.718 0.00229406 0)
(694.71 0.00403394 0)
(694.694 0.00709192 0)
(694.668 0.0124661 0)
(694.622 0.0219079 0)
(694.542 0.038494 0)
(694.402 0.0676189 0)
(694.158 0.118749 0)
(693.733 0.208463 0)
(692.994 0.365826 0)
(691.71 0.641608 0)
(689.481 1.12417 0)
(685.626 1.96598 0)
(678.993 3.42847 0)
(667.692 5.94935 0)
(648.84 10.224 0)
(618.762 17.2095 0)
(574.449 27.8245 0)
(516.585 42.165 0)
(451.964 58.6778 0)
(391.604 74.5039 0)
(345.091 87.1245 0)
(694.73 7.51207e-11 0)
(694.73 2.44858e-10 0)
(694.73 5.77192e-10 0)
(694.73 1.18738e-09 0)
(694.73 2.28779e-09 0)
(694.73 4.25075e-09 0)
(694.73 7.73101e-09 0)
(694.73 1.38811e-08 0)
(694.73 2.47267e-08 0)
(694.73 4.38332e-08 0)
(694.73 7.74661e-08 0)
(694.73 1.36651e-07 0)
(694.73 2.40757e-07 0)
(694.73 4.23863e-07 0)
(694.73 7.45823e-07 0)
(694.73 1.31191e-06 0)
(694.73 2.30698e-06 0)
(694.73 4.05608e-06 0)
(694.73 7.12979e-06 0)
(694.73 1.25311e-05 0)
(694.73 2.20201e-05 0)
(694.73 3.869e-05 0)
(694.73 6.79668e-05 0)
(694.729 0.000119383 0)
(694.729 0.000209655 0)
(694.728 0.000368138 0)
(694.727 0.000646296 0)
(694.725 0.00113447 0)
(694.72 0.00199096 0)
(694.713 0.00349356 0)
(694.701 0.00612885 0)
(694.68 0.0107502 0)
(694.642 0.018852 0)
(694.578 0.0330534 0)
(694.465 0.0579376 0)
(694.268 0.10153 0)
(693.927 0.177858 0)
(693.334 0.311458 0)
(692.303 0.545134 0)
(690.517 0.953363 0)
(687.427 1.66474 0)
(682.108 2.89996 0)
(673.019 5.03103 0)
(657.729 8.66374 0)
(632.865 14.6882 0)
(594.945 24.1242 0)
(542.809 37.5128 0)
(480.63 53.9653 0)
(418.073 70.929 0)
(365.991 85.4578 0)
(694.73 6.67801e-11 0)
(694.73 2.17605e-10 0)
(694.73 5.12785e-10 0)
(694.73 1.0544e-09 0)
(694.73 2.03022e-09 0)
(694.73 3.76885e-09 0)
(694.73 6.84722e-09 0)
(694.73 1.22791e-08 0)
(694.73 2.18432e-08 0)
(694.73 3.86649e-08 0)
(694.73 6.82265e-08 0)
(694.73 1.20158e-07 0)
(694.73 2.11348e-07 0)
(694.73 3.71454e-07 0)
(694.73 6.52472e-07 0)
(694.73 1.14569e-06 0)
(694.73 2.01109e-06 0)
(694.73 3.52948e-06 0)
(694.73 6.19287e-06 0)
(694.73 1.08645e-05 0)
(694.73 1.90563e-05 0)
(694.73 3.34203e-05 0)
(694.73 5.86001e-05 0)
(694.73 0.000102737 0)
(694.729 0.000180082 0)
(694.729 0.000315613 0)
(694.727 0.00055303 0)
(694.726 0.000968902 0)
(694.722 0.00169715 0)
(694.717 0.00297229 0)
(694.707 0.00520437 0)
(694.69 0.0091111 0)
(694.66 0.0159468 0)
(694.608 0.027906 0)
(694.518 0.0488216 0)
(694.362 0.0853931 0)
(694.09 0.149309 0)
(693.619 0.260978 0)
(692.801 0.455958 0)
(691.384 0.796096 0)
(688.935 1.38827 0)
(684.717 2.41609 0)
(677.493 4.19053 0)
(665.267 7.22698 0)
(645.084 12.32 0)
(613.387 20.5012 0)
(567.713 32.6328 0)
(509.678 48.5086 0)
(446.766 66.1585 0)
(389.994 82.5089 0)
(694.73 5.82517e-11 0)
(694.73 1.89863e-10 0)
(694.73 4.47308e-10 0)
(694.73 9.19354e-10 0)
(694.73 1.76906e-09 0)
(694.73 3.28135e-09 0)
(694.73 5.95553e-09 0)
(694.73 1.06676e-08 0)
(694.73 1.89523e-08 0)
(694.73 3.35012e-08 0)
(694.73 5.90285e-08 0)
(694.73 1.03801e-07 0)
(694.73 1.8229e-07 0)
(694.73 3.1987e-07 0)
(694.73 5.60946e-07 0)
(694.73 9.83347e-07 0)
(694.73 1.72324e-06 0)
(694.73 3.01922e-06 0)
(694.73 5.28859e-06 0)
(694.73 9.26225e-06 0)
(694.73 1.62182e-05 0)
(694.73 2.83941e-05 0)
(694.73 4.97012e-05 0)
(694.73 8.69853e-05 0)
(694.729 0.000152208 0)
(694.729 0.000266297 0)
(694.728 0.000465807 0)
(694.726 0.00081467 0)
(694.724 0.00142451 0)
(694.719 0.00249048 0)
(694.712 0.00435318 0)
(694.698 0.00760778 0)
(694.674 0.0132926 0)
(694.633 0.0232213 0)
(694.562 0.0405563 0)
(694.439 0.070817 0)
(694.225 0.123617 0)
(693.855 0.215719 0)
(693.213 0.376282 0)
(692.102 0.656013 0)
(690.181 1.14261 0)
(686.872 1.98692 0)
(681.198 3.44541 0)
(671.554 5.94814 0)
(655.451 10.1812 0)
(629.554 17.1189 0)
(590.675 27.804 0)
(538.268 42.6289 0)
(477.13 60.3921 0)
(417.201 78.269 0)
(694.73 5.00558e-11 0)
(694.73 1.63064e-10 0)
(694.73 3.83977e-10 0)
(694.73 7.88808e-10 0)
(694.73 1.51681e-09 0)
(694.73 2.81107e-09 0)
(694.73 5.09696e-09 0)
(694.73 9.11967e-09 0)
(694.73 1.61824e-08 0)
(694.73 2.85677e-08 0)
(694.73 5.02664e-08 0)
(694.73 8.82657e-08 0)
(694.73 1.54779e-07 0)
(694.73 2.71185e-07 0)
(694.73 4.74839e-07 0)
(694.73 8.31107e-07 0)
(694.73 1.45418e-06 0)
(694.73 2.54379e-06 0)
(694.73 4.44875e-06 0)
(694.73 7.77902e-06 0)
(694.73 1.35994e-05 0)
(694.73 2.37713e-05 0)
(694.73 4.15431e-05 0)
(694.73 7.25911e-05 0)
(694.729 0.000126818 0)
(694.729 0.000221523 0)
(694.728 0.000386871 0)
(694.727 0.000675542 0)
(694.725 0.00117936 0)
(694.722 0.00205864 0)
(694.715 0.00359269 0)
(694.705 0.00626889 0)
(694.686 0.0109362 0)
(694.654 0.0190753 0)
(694.599 0.0332643 0)
(694.503 0.0579965 0)
(694.336 0.101089 0)
(694.048 0.17615 0)
(693.55 0.30683 0)
(692.687 0.534229 0)
(691.198 0.929472 0)
(688.632 1.61509 0)
(684.228 2.80006 0)
(676.721 4.83753 0)
(664.084 8.30421 0)
(643.387 14.0731 0)
(611.235 23.2386 0)
(565.526 36.6336 0)
(508.329 53.8772 0)
(447.383 72.7621 0)
(694.73 4.23363e-11 0)
(694.73 1.37954e-10 0)
(694.73 3.24804e-10 0)
(694.73 6.66887e-10 0)
(694.73 1.28158e-09 0)
(694.73 2.37326e-09 0)
(694.73 4.29914e-09 0)
(694.73 7.68418e-09 0)
(694.73 1.36195e-08 0)
(694.73 2.40133e-08 0)
(694.73 4.2197e-08 0)
(694.73 7.39952e-08 0)
(694.73 1.29573e-07 0)
(694.73 2.26697e-07 0)
(694.73 3.96365e-07 0)
(694.73 6.92739e-07 0)
(694.73 1.21029e-06 0)
(694.73 2.11401e-06 0)
(694.73 3.69163e-06 0)
(694.73 6.4455e-06 0)
(694.73 1.12513e-05 0)
(694.73 1.96376e-05 0)
(694.73 3.42678e-05 0)
(694.73 5.97894e-05 0)
(694.73 0.000104298 0)
(694.729 0.000181915 0)
(694.729 0.000317231 0)
(694.728 0.000553123 0)
(694.726 0.00096423 0)
(694.723 0.00168065 0)
(694.719 0.00292879 0)
(694.71 0.00510311 0)
(694.696 0.00888979 0)
(694.671 0.0154839 0)
(694.629 0.0269636 0)
(694.554 0.0469464 0)
(694.426 0.0817179 0)
(694.205 0.14221 0)
(693.822 0.247394 0)
(693.16 0.430224 0)
(692.019 0.747734 0)
(690.053 1.29833 0)
(686.677 2.25035 0)
(680.912 3.88972 0)
(671.156 6.69062 0)
(654.963 11.4034 0)
(629.119 19.0743 0)
(590.654 30.789 0)
(539.3 46.8963 0)
(479.892 66.0672 0)
(694.73 3.53085e-11 0)
(694.73 1.1508e-10 0)
(694.73 2.70943e-10 0)
(694.73 5.56173e-10 0)
(694.73 1.06821e-09 0)
(694.73 1.97673e-09 0)
(694.73 3.57782e-09 0)
(694.73 6.38845e-09 0)
(694.73 1.13103e-08 0)
(694.73 1.99181e-08 0)
(694.73 3.49569e-08 0)
(694.73 6.12191e-08 0)
(694.73 1.07057e-07 0)
(694.73 1.87047e-07 0)
(694.73 3.26586e-07 0)
(694.73 5.69983e-07 0)
(694.73 9.94414e-07 0)
(694.73 1.73448e-06 0)
(694.73 3.02457e-06 0)
(694.73 5.27332e-06 0)
(694.73 9.19206e-06 0)
(694.73 1.60206e-05 0)
(694.73 2.79165e-05 0)
(694.73 4.86387e-05 0)
(694.73 8.47266e-05 0)
(694.729 0.000147571 0)
(694.729 0.000256978 0)
(694.728 0.000447439 0)
(694.727 0.000778911 0)
(694.725 0.00135576 0)
(694.721 0.00235936 0)
(694.715 0.00410532 0)
(694.704 0.00714189 0)
(694.685 0.0124228 0)
(694.652 0.0216041 0)
(694.596 0.0375654 0)
(694.498 0.0653044 0)
(694.33 0.113503 0)
(694.039 0.197216 0)
(693.538 0.342564 0)
(692.674 0.594756 0)
(691.187 1.03188 0)
(688.634 1.78784 0)
(684.27 3.09094 0)
(676.86 5.32362 0)
(664.45 9.10904 0)
(644.241 15.3809 0)
(613.016 25.3015 0)
(568.863 39.7497 0)
(513.625 58.35 0)
(694.73 2.91269e-11 0)
(694.73 9.48441e-11 0)
(694.73 2.2325e-10 0)
(694.73 4.58086e-10 0)
(694.73 8.79271e-10 0)
(694.73 1.62591e-09 0)
(694.73 2.94028e-09 0)
(694.73 5.24495e-09 0)
(694.73 9.27594e-09 0)
(694.73 1.63167e-08 0)
(694.73 2.86016e-08 0)
(694.73 5.00259e-08 0)
(694.73 8.73687e-08 0)
(694.73 1.52445e-07 0)
(694.73 2.65811e-07 0)
(694.73 4.6328e-07 0)
(694.73 8.07144e-07 0)
(694.73 1.4059e-06 0)
(694.73 2.44819e-06 0)
(694.73 4.26247e-06 0)
(694.73 7.41968e-06 0)
(694.73 1.29136e-05 0)
(694.73 2.2471e-05 0)
(694.73 3.90967e-05 0)
(694.73 6.80101e-05 0)
(694.73 0.00011829 0)
(694.729 0.000205704 0)
(694.729 0.000357668 0)
(694.728 0.000621775 0)
(694.726 0.00108076 0)
(694.723 0.00187821 0)
(694.719 0.00326363 0)
(694.71 0.00566988 0)
(694.696 0.00984892 0)
(694.671 0.0171048 0)
(694.629 0.0297021 0)
(694.555 0.0515661 0)
(694.429 0.0895087 0)
(694.211 0.155326 0)
(693.836 0.269469 0)
(693.19 0.4673 0)
(692.081 0.80993 0)
(690.178 1.40237 0)
(686.923 2.42412 0)
(681.388 4.178 0)
(672.066 7.16627 0)
(656.673 12.1779 0)
(632.196 20.3154 0)
(595.874 32.7413 0)
(547.062 49.9014 0)
(694.73 2.37295e-11 0)
(694.73 7.72539e-11 0)
(694.73 1.81729e-10 0)
(694.73 3.72665e-10 0)
(694.73 7.14976e-10 0)
(694.73 1.32125e-09 0)
(694.73 2.38742e-09 0)
(694.73 4.25475e-09 0)
(694.73 7.51684e-09 0)
(694.73 1.32075e-08 0)
(694.73 2.31235e-08 0)
(694.73 4.03936e-08 0)
(694.73 7.04551e-08 0)
(694.73 1.22771e-07 0)
(694.73 2.13782e-07 0)
(694.73 3.72092e-07 0)
(694.73 6.47383e-07 0)
(694.73 1.12606e-06 0)
(694.73 1.95817e-06 0)
(694.73 3.40455e-06 0)
(694.73 5.91799e-06 0)
(694.73 1.02855e-05 0)
(694.73 1.78726e-05 0)
(694.73 3.1052e-05 0)
(694.73 5.39394e-05 0)
(694.73 9.36836e-05 0)
(694.729 0.000162681 0)
(694.729 0.000282456 0)
(694.728 0.000490322 0)
(694.727 0.000851043 0)
(694.725 0.00147686 0)
(694.721 0.0025625 0)
(694.715 0.00444535 0)
(694.705 0.00771058 0)
(694.686 0.0133715 0)
(694.654 0.0231852 0)
(694.6 0.0401929 0)
(694.506 0.0696649 0)
(694.345 0.120716 0)
(694.068 0.209125 0)
(693.592 0.362148 0)
(692.776 0.62686 0)
(691.378 1.08423 0)
(688.988 1.87292 0)
(684.922 3.22797 0)
(678.053 5.5431 0)
(666.607 9.45541 0)
(648.035 15.9232 0)
(619.404 26.1633 0)
(578.47 41.1627 0)
(694.73 1.90918e-11 0)
(694.73 6.21855e-11 0)
(694.73 1.46201e-10 0)
(694.73 2.9969e-10 0)
(694.73 5.7475e-10 0)
(694.73 1.06142e-09 0)
(694.73 1.91631e-09 0)
(694.73 3.41197e-09 0)
(694.73 6.02153e-09 0)
(694.73 1.05679e-08 0)
(694.73 1.84798e-08 0)
(694.73 3.22407e-08 0)
(694.73 5.61609e-08 0)
(694.73 9.77313e-08 0)
(694.73 1.69947e-07 0)
(694.73 2.95387e-07 0)
(694.73 5.13206e-07 0)
(694.73 8.91409e-07 0)
(694.73 1.54789e-06 0)
(694.73 2.68735e-06 0)
(694.73 4.66452e-06 0)
(694.73 8.09509e-06 0)
(694.73 1.40457e-05 0)
(694.73 2.43669e-05 0)
(694.73 4.22635e-05 0)
(694.73 7.32939e-05 0)
(694.73 0.000127081 0)
(694.729 0.000220306 0)
(694.729 0.000381842 0)
(694.728 0.000661719 0)
(694.726 0.0011465 0)
(694.724 0.00198612 0)
(694.719 0.00343988 0)
(694.711 0.00595679 0)
(694.698 0.010313 0)
(694.674 0.0178519 0)
(694.634 0.0308946 0)
(694.566 0.0534563 0)
(694.448 0.0924691 0)
(694.246 0.159912 0)
(693.901 0.276441 0)
(693.308 0.477684 0)
(692.296 0.824889 0)
(690.568 1.42303 0)
(687.628 2.45063 0)
(682.654 4.20827 0)
(674.325 7.19093 0)
(660.628 12.1771 0)
(638.911 20.2729 0)
(606.268 32.6881 0)
(694.73 1.51934e-11 0)
(694.73 4.94376e-11 0)
(694.73 1.16285e-10 0)
(694.73 2.38355e-10 0)
(694.73 4.56839e-10 0)
(694.73 8.43045e-10 0)
(694.73 1.52079e-09 0)
(694.73 2.70512e-09 0)
(694.73 4.76897e-09 0)
(694.73 8.3599e-09 0)
(694.73 1.46006e-08 0)
(694.73 2.54398e-08 0)
(694.73 4.42548e-08 0)
(694.73 7.69056e-08 0)
(694.73 1.33544e-07 0)
(694.73 2.31779e-07 0)
(694.73 4.02106e-07 0)
(694.73 6.97398e-07 0)
(694.73 1.20919e-06 0)
(694.73 2.09612e-06 0)
(694.73 3.63272e-06 0)
(694.73 6.29464e-06 0)
(694.73 1.09046e-05 0)
(694.73 1.88875e-05 0)
(694.73 3.27071e-05 0)
(694.73 5.66285e-05 0)
(694.73 9.8023e-05 0)
(694.729 0.000169647 0)
(694.729 0.000293537 0)
(694.728 0.00050781 0)
(694.727 0.000878286 0)
(694.725 0.00151876 0)
(694.722 0.00262565 0)
(694.716 0.00453834 0)
(694.706 0.00784235 0)
(694.689 0.0135489 0)
(694.661 0.0234014 0)
(694.611 0.040409 0)
(694.526 0.0697558 0)
(694.381 0.12038 0)
(694.133 0.20766 0)
(693.709 0.358063 0)
(692.985 0.617019 0)
(691.752 1.06235 0)
(689.657 1.82658 0)
(686.112 3.13346 0)
(680.157 5.35516 0)
(670.286 9.09186 0)
(654.329 15.2559 0)
(629.423 25.0245 0)
(694.73 1.19332e-11 0)
(694.73 3.89281e-11 0)
(694.73 9.15457e-11 0)
(694.73 1.87581e-10 0)
(694.73 3.59228e-10 0)
(694.73 6.62361e-10 0)
(694.73 1.19373e-09 0)
(694.73 2.12117e-09 0)
(694.73 3.73525e-09 0)
(694.73 6.53992e-09 0)
(694.73 1.14073e-08 0)
(694.73 1.98492e-08 0)
(694.73 3.4481e-08 0)
(694.73 5.98345e-08 0)
(694.73 1.03747e-07 0)
(694.73 1.79792e-07 0)
(694.73 3.11435e-07 0)
(694.73 5.39299e-07 0)
(694.73 9.33582e-07 0)
(694.73 1.61576e-06 0)
(694.73 2.79564e-06 0)
(694.73 4.83615e-06 0)
(694.73 8.36387e-06 0)
(694.73 1.4462e-05 0)
(694.73 2.5e-05 0)
(694.73 4.32082e-05 0)
(694.73 7.46583e-05 0)
(694.73 0.000128974 0)
(694.729 0.000222745 0)
(694.729 0.000384609 0)
(694.728 0.000663912 0)
(694.727 0.00114578 0)
(694.724 0.00197682 0)
(694.72 0.00340977 0)
(694.713 0.00587963 0)
(694.701 0.0101358 0)
(694.68 0.0174673 0)
(694.645 0.0300928 0)
(694.584 0.0518251 0)
(694.481 0.0892207 0)
(694.305 0.153531 0)
(694.004 0.264069 0)
(693.493 0.453899 0)
(692.624 0.779564 0)
(691.149 1.33734 0)
(688.653 2.29004 0)
(684.455 3.91008 0)
(677.463 6.64269 0)
(666.016 11.1905 0)
(647.674 18.5563 0)
(694.73 9.26209e-12 0)
(694.73 3.02037e-11 0)
(694.73 7.11591e-11 0)
(694.73 1.45784e-10 0)
(694.73 2.79203e-10 0)
(694.73 5.14608e-10 0)
(694.73 9.26704e-10 0)
(694.73 1.64501e-09 0)
(694.73 2.89354e-09 0)
(694.73 5.0599e-09 0)
(694.73 8.81411e-09 0)
(694.73 1.53156e-08 0)
(694.73 2.65669e-08 0)
(694.73 4.60318e-08 0)
(694.73 7.96911e-08 0)
(694.73 1.37885e-07 0)
(694.73 2.38458e-07 0)
(694.73 4.12248e-07 0)
(694.73 7.12449e-07 0)
(694.73 1.23094e-06 0)
(694.73 2.12613e-06 0)
(694.73 3.67149e-06 0)
(694.73 6.33828e-06 0)
(694.73 1.09396e-05 0)
(694.73 1.88758e-05 0)
(694.73 3.25619e-05 0)
(694.73 5.61546e-05 0)
(694.73 9.68175e-05 0)
(694.73 0.000166874 0)
(694.729 0.000287548 0)
(694.729 0.000495327 0)
(694.728 0.000853009 0)
(694.726 0.00146847 0)
(694.723 0.00252726 0)
(694.718 0.00434786 0)
(694.709 0.00747757 0)
(694.694 0.0128551 0)
(694.669 0.0220919 0)
(694.627 0.0379493 0)
(694.554 0.0651622 0)
(694.43 0.111833 0)
(694.219 0.191829 0)
(693.861 0.328827 0)
(693.254 0.563214 0)
(692.225 0.963663 0)
(690.485 1.64641 0)
(687.556 2.8066 0)
(682.663 4.7657 0)
(674.586 8.04124 0)
(661.423 13.4184 0)
(694.73 7.18226e-12 0)
(694.73 2.33382e-11 0)
(694.73 5.48173e-11 0)
(694.73 1.1222e-10 0)
(694.73 2.14835e-10 0)
(694.73 3.95692e-10 0)
(694.73 7.11907e-10 0)
(694.73 1.26238e-09 0)
(694.73 2.21786e-09 0)
(694.73 3.87336e-09 0)
(694.73 6.73784e-09 0)
(694.73 1.16907e-08 0)
(694.73 2.02482e-08 0)
(694.73 3.50287e-08 0)
(694.73 6.05447e-08 0)
(694.73 1.04584e-07 0)
(694.73 1.80563e-07 0)
(694.73 3.11622e-07 0)
(694.73 5.37604e-07 0)
(694.73 9.27195e-07 0)
(694.73 1.59859e-06 0)
(694.73 2.75542e-06 0)
(694.73 4.74788e-06 0)
(694.73 8.17898e-06 0)
(694.73 1.4085e-05 0)
(694.73 2.42494e-05 0)
(694.73 4.17347e-05 0)
(694.73 7.18078e-05 0)
(694.73 0.000123508 0)
(694.729 0.000212366 0)
(694.729 0.000365019 0)
(694.728 0.0006272 0)
(694.727 0.00107727 0)
(694.725 0.00184968 0)
(694.721 0.00317457 0)
(694.715 0.00544641 0)
(694.705 0.00933989 0)
(694.687 0.0160101 0)
(694.657 0.0274303 0)
(694.606 0.0469748 0)
(694.52 0.0804011 0)
(694.373 0.137537 0)
(694.124 0.235111 0)
(693.703 0.40159 0)
(692.99 0.685267 0)
(691.786 1.1679 0)
(689.757 1.98705 0)
(686.361 3.37064 0)
(680.725 5.68979 0)
(671.441 9.52801 0)
(694.73 5.48352e-12 0)
(694.73 1.78735e-11 0)
(694.73 4.19166e-11 0)
(694.73 8.56476e-11 0)
(694.73 1.6366e-10 0)
(694.73 3.01089e-10 0)
(694.73 5.4123e-10 0)
(694.73 9.58722e-10 0)
(694.73 1.68232e-09 0)
(694.73 2.9342e-09 0)
(694.73 5.09694e-09 0)
(694.73 8.83032e-09 0)
(694.73 1.52702e-08 0)
(694.73 2.63742e-08 0)
(694.73 4.55103e-08 0)
(694.73 7.84801e-08 0)
(694.73 1.35259e-07 0)
(694.73 2.33022e-07 0)
(694.73 4.01279e-07 0)
(694.73 6.90807e-07 0)
(694.73 1.1888e-06 0)
(694.73 2.0452e-06 0)
(694.73 3.5173e-06 0)
(694.73 6.04721e-06 0)
(694.73 1.03931e-05 0)
(694.73 1.78569e-05 0)
(694.73 3.06695e-05 0)
(694.73 5.26583e-05 0)
(694.73 9.03774e-05 0)
(694.73 0.000155062 0)
(694.729 0.000265934 0)
(694.729 0.000455915 0)
(694.728 0.000781282 0)
(694.726 0.00133833 0)
(694.724 0.0022915 0)
(694.72 0.00392188 0)
(694.712 0.00670899 0)
(694.7 0.0114716 0)
(694.679 0.0196046 0)
(694.644 0.0334869 0)
(694.584 0.0571664 0)
(694.482 0.0975352 0)
(694.31 0.166297 0)
(694.019 0.283317 0)
(693.528 0.482229 0)
(692.698 0.819938 0)
(691.301 1.3923 0)
(688.957 2.35889 0)
(685.052 3.98165 0)
(678.578 6.68114 0)
(694.73 4.15441e-12 0)
(694.73 1.34716e-11 0)
(694.73 3.16297e-11 0)
(694.73 6.46668e-11 0)
(694.73 1.23478e-10 0)
(694.73 2.26918e-10 0)
(694.73 4.07472e-10 0)
(694.73 7.2094e-10 0)
(694.73 1.26348e-09 0)
(694.73 2.20067e-09 0)
(694.73 3.81727e-09 0)
(694.73 6.60331e-09 0)
(694.73 1.14009e-08 0)
(694.73 1.96591e-08 0)
(694.73 3.38657e-08 0)
(694.73 5.82987e-08 0)
(694.73 1.003e-07 0)
(694.73 1.72483e-07 0)
(694.73 2.96484e-07 0)
(694.73 5.09453e-07 0)
(694.73 8.75057e-07 0)
(694.73 1.50255e-06 0)
(694.73 2.57903e-06 0)
(694.73 4.42532e-06 0)
(694.73 7.59043e-06 0)
(694.73 1.3015e-05 0)
(694.73 2.23073e-05 0)
(694.73 3.82209e-05 0)
(694.73 6.54595e-05 0)
(694.73 0.000112069 0)
(694.729 0.000191782 0)
(694.729 0.000328065 0)
(694.729 0.000560935 0)
(694.727 0.000958706 0)
(694.726 0.00163775 0)
(694.723 0.00279652 0)
(694.718 0.00477271 0)
(694.709 0.00814156 0)
(694.695 0.0138807 0)
(694.67 0.0236533 0)
(694.629 0.0402827 0)
(694.559 0.0685649 0)
(694.44 0.116627 0)
(694.24 0.19824 0)
(693.903 0.336668 0)
(693.333 0.57124 0)
(692.374 0.968213 0)
(690.763 1.63838 0)
(688.072 2.7648 0)
(683.589 4.64519 0)
(694.73 3.09818e-12 0)
(694.73 1.00646e-11 0)
(694.73 2.36131e-11 0)
(694.73 4.83057e-11 0)
(694.73 9.22187e-11 0)
(694.73 1.69383e-10 0)
(694.73 3.03825e-10 0)
(694.73 5.37002e-10 0)
(694.73 9.39951e-10 0)
(694.73 1.63493e-09 0)
(694.73 2.8318e-09 0)
(694.73 4.8911e-09 0)
(694.73 8.43122e-09 0)
(694.73 1.45143e-08 0)
(694.73 2.49606e-08 0)
(694.73 4.28942e-08 0)
(694.73 7.36666e-08 0)
(694.73 1.26455e-07 0)
(694.73 2.16969e-07 0)
(694.73 3.72131e-07 0)
(694.73 6.37989e-07 0)
(694.73 1.0934e-06 0)
(694.73 1.87315e-06 0)
(694.73 3.20786e-06 0)
(694.73 5.4914e-06 0)
(694.73 9.39715e-06 0)
(694.73 1.60741e-05 0)
(694.73 2.74852e-05 0)
(694.73 4.69765e-05 0)
(694.73 8.02592e-05 0)
(694.73 0.00013706 0)
(694.729 0.000233965 0)
(694.729 0.000399196 0)
(694.728 0.000680823 0)
(694.727 0.00116056 0)
(694.725 0.00197745 0)
(694.721 0.00336758 0)
(694.716 0.00573225 0)
(694.706 0.00975205 0)
(694.689 0.0165824 0)
(694.66 0.0281806 0)
(694.612 0.0478653 0)
(694.531 0.0812504 0)
(694.393 0.137834 0)
(694.162 0.233639 0)
(693.772 0.395727 0)
(693.115 0.669675 0)
(692.011 1.13193 0)
(690.163 1.90946 0)
(687.075 3.21069 0)
(694.73 2.2791e-12 0)
(694.73 7.42912e-12 0)
(694.73 1.7476e-11 0)
(694.73 3.57367e-11 0)
(694.73 6.82623e-11 0)
(694.73 1.25271e-10 0)
(694.73 2.24515e-10 0)
(694.73 3.96411e-10 0)
(694.73 6.93007e-10 0)
(694.73 1.20384e-09 0)
(694.73 2.08212e-09 0)
(694.73 3.59077e-09 0)