/*--------------------------------*- C++ -*----------------------------------*\
| =========                 |                                                 |
| \\      /  F ield         | OpenFOAM: The Open Source CFD Toolbox           |
|  \\    /   O peration     | Version:  2412                                  |
|   \\  /    A nd           | Website:  www.openfoam.com                      |
|    \\/     M anipulation  |                                                 |
\*---------------------------------------------------------------------------*/
FoamFile
{
    version     2.0;
    format      ascii;
    arch        "LSB;label=32;scalar=64";
    class       volScalarField;
    location    "5";
    object      p;
}
// * * * * * * * * * * * * * * * * * * * * * * * * * * * * * * * * * * * * * //

dimensions      [1 -1 -2 0 0 0 0];

internalField   nonuniform List<scalar> 
5250
(
1.00001
1.00003
1.00008
1.00025
1.00051
1.00147
1.00288
1.00894
1.01572
1.05808
1.09469
1.37578
1.77655
3.57462
7.95338
11.6457
11.2461
11.0216
11.1102
11.3402
11.5491
11.6721
11.7651
11.8371
11.8882
1.00001
1.00003
1.00008
1.00024
1.0005
1.00145
1.00284
1.00879
1.0155
1.05696
1.09305
1.36843
1.76055
3.5211
7.8213
11.6674
11.2516
11.0148
11.1036
11.3338
11.5428
11.6666
11.7611
11.8343
11.8869
1
1.00003
1.00008
1.00024
1.00049
1.0014
1.00277
1.00847
1.0151
1.05459
1.08979
1.35285
1.72646
3.40543
7.523
11.7117
11.2589
10.9901
11.0761
11.3027
11.511
11.6342
11.7288
11.8026
11.857
1
1.00003
1.00008
1.00023
1.00047
1.00133
1.00265
1.00799
1.01452
1.05107
1.08502
1.32977
1.67579
3.23321
7.06204
11.7756
11.2719
10.9474
11.0269
11.245
11.4529
11.5749
11.6681
11.742
11.7999
1
1.00003
1.00007
1.00021
1.00044
1.00125
1.0025
1.00739
1.01378
1.0467
1.07904
1.30108
1.61265
3.01918
6.46966
11.8369
11.2898
10.893
10.9611
11.1634
11.3703
11.4901
11.5805
11.6535
11.7158
1
1.00003
1.00007
1.0002
1.00041
1.00115
1.00233
1.00674
1.01297
1.04183
1.07252
1.26938
1.54222
2.78242
5.7744
11.8048
11.2822
10.827
10.8782
11.053
11.2559
11.3708
11.4546
11.5238
11.592
1
1.00003
1.00006
1.00018
1.00038
1.00106
1.00215
1.00616
1.012
1.03774
1.06657
1.24215
1.47834
2.59498
5.26627
11.5536
11.185
10.7435
10.7722
10.9057
11.0999
11.2063
11.2771
11.334
11.4024
1
1.00002
1.00006
1.00017
1.00035
1.00098
1.00198
1.00565
1.01117
1.03414
1.06211
1.21889
1.42378
2.47769
4.77948
10.9912
10.9324
10.68
10.6468
10.7254
10.8919
10.9826
11.0281
11.0558
11.1065
1
1.00002
1.00005
1.00015
1.00031
1.00088
1.0018
1.00512
1.0102
1.03067
1.05697
1.19627
1.37526
2.34065
4.32235
10.2292
10.7473
10.5877
10.4844
10.5287
10.6387
10.6942
10.6897
10.6488
10.6098
1
1.00002
1.00004
1.00013
1.00027
1.00077
1.00156
1.00448
1.00883
1.02727
1.04902
1.17753
1.32246
2.20834
3.91304
9.33468
10.6146
10.482
10.2976
10.3067
10.3461
10.3367
10.2601
10.0569
9.71979
1
1.00001
1.00004
1.00009
1.00025
1.0005
1.00154
1.00269
1.00972
1.01567
1.06108
1.09995
1.39954
1.82646
3.74258
8.24968
10.497
10.3704
10.1074
10.0534
10.0291
9.94206
9.69778
9.11175
7.60856
1
1.00001
1.00003
1.0001
1.00021
1.00058
1.00118
1.0034
1.00659
1.02088
1.03654
1.1345
1.2355
1.90267
3.08247
7.12155
10.4096
10.2568
9.9244
9.79633
9.71381
9.53129
9.13522
8.33023
6.76264
1
1.00001
1.00003
1.00009
1.00018
1.00051
1.00104
1.00296
1.00596
1.01732
1.03394
1.10721
1.20428
1.70802
2.65719
5.86723
10.2656
10.1204
9.7678
9.55106
9.40588
9.14574
8.65196
7.8195
6.54988
1
1.00001
1.00003
1.00007
1.00015
1.00043
1.00088
1.00247
1.00499
1.01433
1.02838
1.0863
1.17027
1.5543
2.29284
4.77209
9.86161
9.86552
9.64178
9.32887
9.1124
8.80486
8.29604
7.52863
6.50637
1
1.00001
1.00002
1.00006
1.00012
1.00035
1.00071
1.00199
1.00401
1.01158
1.02214
1.07181
1.12834
1.46007
2.01844
4.1208
8.90146
9.58053
9.43702
9.12705
8.85232
8.51794
8.03536
7.34966
6.49179
1
1.00001
1.00002
1.00005
1.0001
1.00027
1.00056
1.00157
1.0031
1.00931
1.01678
1.05895
1.09777
1.37733
1.76968
3.51666
7.4441
9.30889
9.22547
8.97764
8.64114
8.28498
7.82742
7.21772
6.4783
1
1.00001
1.00001
1.00004
1.00008
1.00022
1.00045
1.00126
1.00254
1.0073
1.01398
1.04527
1.07811
1.29008
1.58325
2.90048
5.89927
9.11326
9.08254
8.87976
8.47969
8.10266
7.66489
7.11334
6.46208
1
1
1.00001
1.00003
1.00006
1.00017
1.00035
1.00097
1.00197
1.00557
1.011
1.03326
1.0606
1.20862
1.40886
2.32689
4.29014
8.6959
8.95886
8.78287
8.38513
7.96125
7.52967
7.02599
6.44402
1
1
1.00001
1.00002
1.00005
1.00013
1.00026
1.00073
1.00148
1.00419
1.00824
1.02513
1.04515
1.16039
1.28786
2.05481
3.43507
7.59375
8.70935
8.59817
8.29394
7.84404
7.41382
6.94773
6.42591
1
1
1.00001
1.00001
1.00004
1.00008
1.00022
1.00045
1.00127
1.00245
1.0076
1.0132
1.04793
1.07851
1.30067
1.60333
2.93617
5.90396
8.44721
8.4135
8.20627
7.76935
7.32155
6.87835
6.40481
1
1
1
1.00001
1.00003
1.00006
1.00017
1.00035
1.00096
1.00195
1.0055
1.01091
1.03263
1.06049
1.20103
1.40486
2.25908
4.07622
7.97477
8.28679
8.1279
7.7457
7.26329
6.82852
6.38764
1
1
1
1.00001
1.00002
1.00005
1.0001
1.00029
1.00059
1.00166
1.00333
1.00963
1.01839
1.05882
1.10718
1.36383
1.80742
3.32979
6.77469
8.02951
7.9561
7.69985
7.23154
6.79464
6.3795
1
1
1
1.00001
1.00002
1.00003
1.00009
1.00018
1.00051
1.00103
1.00289
1.0058
1.01693
1.03199
1.10457
1.19303
1.66376
2.506
5.14902
7.68029
7.73673
7.59761
7.24211
6.79499
6.38078
1
1
1
1
1.00001
1.00003
1.00005
1.00015
1.0003
1.00082
1.00166
1.00468
1.00914
1.02788
1.04991
1.17342
1.32233
2.07321
3.46447
6.96642
7.60378
7.50798
7.24052
6.81048
6.38978
1
1
1
1
1.00001
1.00002
1.00004
1.00009
1.00024
1.00048
1.00134
1.00266
1.00784
1.01431
1.04825
1.08121
1.29826
1.58349
2.84806
5.4315
7.3429
7.34359
7.21257
6.87286
6.41716
1
1
1
1
1.00001
1.00001
1.00003
1.00006
1.00017
1.00034
1.00093
1.00188
1.00523
1.01047
1.03015
1.05859
1.17979
1.37384
2.09972
3.60126
6.81276
7.2491
7.15851
6.91188
6.47499
1
1
1
1
1
1.00001
1.00002
1.00005
1.0001
1.00026
1.00053
1.00147
1.00297
1.00836
1.01649
1.04945
1.09314
1.30001
1.65508
2.85166
5.51241
7.02134
7.02097
6.89609
6.58796
1
1
1
1
1
1
1.00001
1.00003
1.00007
1.00015
1.00041
1.00084
1.00231
1.00466
1.01317
1.02597
1.07729
1.15263
1.46837
2.05457
3.7476
6.50507
6.90808
6.83662
6.62071
1
1
1
1
1
1
1.00001
1.00002
1.00004
1.00011
1.00023
1.00063
1.00126
1.00351
1.00687
1.02062
1.03687
1.126
1.22372
1.77608
2.70021
5.34091
6.67193
6.69237
6.59379
1
1
1
1
1
1
1
1.00001
1.00003
1.00007
1.00015
1.00041
1.00084
1.00231
1.00466
1.01304
1.02584
1.07569
1.15102
1.45428
2.01384
3.59839
6.13432
6.57739
6.5259
1
1
1
1
1
1
1
1.00001
1.00002
1.00004
1.00011
1.00022
1.0006
1.00121
1.00336
1.00656
1.01959
1.03501
1.11905
1.21003
1.72619
2.56271
4.96468
6.33207
6.40084
1
1
1
1
1
1
1
1
1.00001
1.00003
1.00007
1.00014
1.00038
1.00078
1.00213
1.00431
1.01196
1.02382
1.0683
1.13864
1.40175
1.89297
3.22745
5.7665
6.28519
1
1
1
1
1
1
1
1
1.00001
1.00002
1.00004
1.0001
1.0002
1.00055
1.0011
1.00304
1.00597
1.01763
1.03176
1.10686
1.18781
1.64374
2.36669
4.52765
5.99424
1
1
1
1
1
1
1
1
1
1.00001
1.00003
1.00005
1.00014
1.00029
1.00079
1.00161
1.0044
1.00875
1.02511
1.04714
1.14753
1.28779
1.84754
2.89427
5.31907
1
1
1
1
1
1
1
1
1
1.00001
1.00002
1.00003
1.00009
1.00018
1.00049
1.00099
1.0027
1.00544
1.01507
1.02953
1.08826
1.16494
1.52509
2.1276
3.84878
1
1
1
1
1
1
1
1
1
1
1.00001
1.00002
1.00005
1.00011
1.00029
1.0006
1.00162
1.00326
1.00894
1.01803
1.05004
1.10348
1.28868
1.6384
2.63233
1
1
1
1
1
1
1
1
1
1
1
1.00001
1.00003
1.00007
1.00015
1.0004
1.00081
1.00217
1.00437
1.01201
1.0237
1.06832
1.13291
1.39128
1.84511
1
1
1
1
1
1
1
1
1
1
1
1.00001
1.00002
1.00004
1.00009
1.00023
1.00047
1.00127
1.00257
1.007
1.01396
1.03901
1.07823
1.22191
1.48339
1
1
1
1
1
1
1
1
1
1
1
1
1.00001
1.00002
1.00006
1.00012
1.00031
1.00063
1.00169
1.0034
1.0093
1.01874
1.05158
1.10731
1.29312
1
1
1
1
1
1
1
1
1
1
1
1
1.00001
1.00001
1.00003
1.00008
1.00015
1.00041
1.00083
1.00223
1.00448
1.01222
1.02407
1.06915
1.13274
1
1
1
1
1
1
1
1
1
1
1
1
1
1.00001
1.00002
1.00004
1.00009
1.00023
1.00047
1.00127
1.00256
1.00692
1.01388
1.03809
1.07775
1
1
1
1
1
1
1
1
1
1
1
1
1
1
1.00001
1.00002
1.00006
1.00012
1.00031
1.00063
1.00169
1.00339
1.0092
1.01853
1.05066
1
1
1
1
1
1
1
1
1
1
1
1
1
1
1.00001
1.00001
1.00003
1.00008
1.00016
1.00043
1.00088
1.00235
1.00474
1.0129
1.02553
1
1
1
1
1
1
1
1
1
1
1
1
1
1
1
1.00001
1.00002
1.00005
1.00013
1.00026
1.00071
1.00144
1.00392
1.00788
1.02201
1
1
1
1
1
1
1
1
1
1
1
1
1
1
1
1.00001
1.00002
1.00004
1.0001
1.00021
1.00058
1.00117
1.00325
1.00654
1.01873
1
1
1
1
1
1
1
1
1
1
1
1
1
1
1
1.00001
1.00001
1.00004
1.00008
1.00021
1.00043
1.0012
1.00238
1.00711
1.01291
1
1
1
1
1
1
1
1
1
1
1
1
1
1
1
1.00001
1.00001
1.00004
1.00007
1.00021
1.00042
1.00118
1.00238
1.00688
1.01321
1
1
1
1
1
1
1
1
1
1
1
1
1
1
1
1.00001
1.00001
1.00003
1.00007
1.00019
1.00039
1.0011
1.00215
1.00673
1.01173
1
1
1
1
1
1
1
1
1
1
1
1
1
1
1
1.00001
1.00001
1.00003
1.00008
1.00017
1.00047
1.00094
1.00277
1.00523
1.0173
1
1
1
1
1
1
1
1
1
1
1
1
1
1
1
1.00001
1.00001
1.00003
1.00007
1.00019
1.00038
1.00109
1.00212
1.00669
1.01164
3.2735
1.89514
1.96161
2.5246
3.35383
3.23448
3.13159
3.01653
2.96386
2.94397
2.93626
2.92769
2.912
2.89163
2.87012
2.84816
2.82385
2.79743
2.76895
2.73952
2.70987
2.67849
2.64696
2.6314
2.62548
2.62431
2.63743
2.67778
2.75242
2.86095
2.9934
3.13978
3.29213
3.44373
3.5889
3.72255
3.84277
3.94923
4.04517
4.12958
4.20111
4.26205
4.31094
4.35685
4.39173
4.41527
4.43076
4.43947
4.44109
4.4388
4.43096
4.41519
4.39475
4.37146
4.34443
4.31473
4.28186
4.24694
4.2096
4.17078
4.13021
4.08866
4.0459
4.00261
3.95861
3.91448
3.87011
3.82598
3.78208
3.73882
3.69627
3.65481
3.61459
3.57601
3.53934
3.50498
3.4733
3.4447
3.41963
3.39854
3.38192
3.37026
3.36547
3.36604
3.36818
3.37293
3.3816
3.39611
3.4132
3.4308
3.4473
3.4609
3.47046
3.47294
3.47166
3.46796
3.46041
3.44954
3.43705
3.43
3.97248
2.72167
2.65259
2.8538
3.30568
3.22506
3.09764
3.00039
2.96256
2.96201
2.95622
2.94153
2.91902
2.89311
2.86728
2.84403
2.81964
2.79415
2.76672
2.73716
2.7073
2.67807
2.65005
2.63154
2.62354
2.62155
2.63157
2.66728
2.73951
2.84799
2.98061
3.12709
3.27912
3.43014
3.57469
3.70757
3.82707
3.93171
4.03039
4.11684
4.18865
4.25002
4.30111
4.34691
4.38174
4.40632
4.4223
4.43134
4.43331
4.43158
4.42502
4.41024
4.38859
4.36504
4.33867
4.30939
4.27699
4.24226
4.20525
4.16661
4.12634
4.08495
4.04248
3.99935
3.95561
3.91165
3.86751
3.82356
3.77988
3.73679
3.69447
3.6532
3.61323
3.5749
3.53854
3.50448
3.47312
3.44488
3.42018
3.39946
3.38315
3.37164
3.36679
3.36737
3.36947
3.37421
3.38245
3.39572
3.41145
3.42783
3.44313
3.4556
3.46474
3.46665
3.46545
3.46176
3.45401
3.44302
3.43006
3.42358
4.77981
3.60112
3.0358
3.03869
3.14733
3.16347
3.12044
3.02633
2.9701
2.95308
2.94285
2.93125
2.91456
2.89368
2.87172
2.85097
2.82566
2.79777
2.76948
2.73848
2.70603
2.67457
2.64662
2.62613
2.61654
2.61424
2.62353
2.65435
2.72044
2.82581
2.95744
3.10271
3.25254
3.40313
3.55134
3.68654
3.80824
3.91657
4.01533
4.10161
4.1746
4.23691
4.28908
4.33357
4.36854
4.39405
4.41072
4.42012
4.42235
4.42104
4.41576
4.40303
4.38067
4.35653
4.33039
4.30156
4.26972
4.23538
4.19877
4.16043
4.12052
4.07943
4.03731
3.9945
3.95112
3.90748
3.86373
3.82012
3.77685
3.73417
3.69229
3.6515
3.61206
3.57434
3.53867
3.50539
3.47488
3.44756
3.42381
3.40401
3.38852
3.37758
3.37257
3.37311
3.37499
3.37915
3.38613
3.3972
3.40999
3.42313
3.43525
3.44503
3.45182
3.45236
3.45116
3.44753
3.43967
3.42821
3.41535
3.41004
5.20298
4.1285
3.42868
3.14104
3.14369
3.14291
3.1264
3.07888
3.00196
2.96916
2.95269
2.93639
2.91628
2.89319
2.86959
2.84646
2.82028
2.79344
2.76568
2.73492
2.7027
2.67242
2.64663
2.62787
2.61495
2.60882
2.61324
2.63868
2.69737
2.80551
2.93342
3.07571
3.2269
3.37851
3.5251
3.65995
3.78166
3.89075
3.98904
4.07591
4.15043
4.21395
4.26725
4.31189
4.34735
4.37376
4.39137
4.40141
4.40416
4.40321
4.39918
4.38894
4.36804
4.3431
4.31668
4.28831
4.25726
4.22367
4.18778
4.15005
4.11075
4.07023
4.0287
3.98646
3.94369
3.90065
3.85754
3.81458
3.77199
3.73003
3.68895
3.649
3.61056
3.57395
3.53947
3.50752
3.47847
3.45268
3.4305
3.41221
3.398
3.38804
3.38269
3.38307
3.38438
3.38706
3.39204
3.39952
3.4078
3.41584
3.42271
3.42802
3.43071
3.43002
3.42774
3.42293
3.41454
3.40355
3.39143
3.38783
5.44948
4.50021
3.78946
3.35521
3.18859
3.1559
3.14003
3.1081
3.05018
3.00257
2.97007
2.94624
2.92303
2.89929
2.8753
2.85062
2.82296
2.7949
2.76576
2.73458
2.70384
2.67469
2.64888
2.62981
2.6175
2.61393
2.62035
2.6487
2.7106
2.80508
2.92483
3.05858
3.1993
3.34554
3.48884
3.6228
3.74479
3.85503
3.95411
4.04207
4.11834
4.18354
4.23832
4.28378
4.32006
4.34746
4.36622
4.37722
4.38082
4.38016
4.37714
4.36913
4.35199
4.32682
4.3
4.27186
4.24158
4.20893
4.17398
4.1371
4.0986
4.05885
4.01809
3.97662
3.93466
3.89244
3.8502
3.80815
3.76655
3.72565
3.68573
3.64706
3.61015
3.57517
3.54251
3.51254
3.48563
3.46206
3.44209
3.42585
3.41334
3.40455
3.39905
3.39813
3.39842
3.39923
3.4009
3.40341
3.40569
3.40703
3.40684
3.40616
3.40456
3.40118
3.39524
3.388
3.37942
3.36971
3.35878
3.35713
5.61343
4.78175
4.09893
3.61349
3.31331
3.19849
3.16129
3.13459
3.09276
3.04484
3.00246
2.96806
2.9391
2.91263
2.88677
2.85935
2.83014
2.80071
2.77039
2.73958
2.71016
2.68336
2.66124
2.64698
2.64209
2.64533
2.66013
2.69905
2.76704
2.84711
2.94365
3.05514
3.17403
3.29972
3.43385
3.56642
3.69095
3.80478
3.90661
3.99664
4.07486
4.14205
4.19874
4.24584
4.28362
4.31257
4.3329
4.34536
4.35035
4.34996
4.34787
4.34203
4.32904
4.30557
4.27895
4.25095
4.22132
4.18968
4.15591
4.12018
4.0828
4.04411
4.00441
3.96399
3.92311
3.88202
3.84097
3.8002
3.75998
3.72059
3.68231
3.64562
3.61073
3.57804
3.54791
3.52066
3.49661
3.47593
3.45871
3.44491
3.4343
3.42659
3.42115
3.41795
3.41602
3.41403
3.41129
3.40779
3.40297
3.3969
3.38955
3.38151
3.37317
3.3646
3.35546
3.34588
3.33622
3.32698
3.31701
3.31685
5.72669
4.99595
4.35641
3.85596
3.50554
3.29491
3.20408
3.15983
3.1235
3.08255
3.03966
2.99993
2.96533
2.93417
2.9048
2.87542
2.84465
2.81373
2.782
2.75189
2.72442
2.70232
2.68738
2.68378
2.68719
2.70192
2.74014
2.81674
2.8873
2.94575
3.00833
3.08063
3.164
3.249
3.35182
3.47567
3.60591
3.73044
3.84182
3.93837
4.02067
4.09057
4.14954
4.19868
4.23847
4.26949
4.29197
4.30653
4.31373
4.31373
4.31259
4.30868
4.29934
4.28017
4.25456
4.22692
4.19787
4.16719
4.13466
4.10029
4.06428
4.02694
3.98858
3.94951
3.91001
3.87038
3.83087
3.79176
3.75337
3.71595
3.67991
3.64572
3.6136
3.58392
3.55704
3.53321
3.51261
3.49528
3.48109
3.46977
3.46085
3.45376
3.44776
3.44219
3.43653
3.4299
3.42169
3.41179
3.39938
3.38545
3.37058
3.35526
3.34011
3.32558
3.3119
3.29908
3.28722
3.27705
3.26779
3.26801
5.80367
5.15812
4.56706
4.07185
3.6933
3.43069
3.27601
3.19467
3.14736
3.11098
3.07306
3.03385
2.99612
2.96112
2.92803
2.89652
2.86389
2.83217
2.80008
2.77083
2.74608
2.73123
2.7294
2.73358
2.7503
2.7943
2.8898
3.00566
3.07473
3.10557
3.12907
3.15176
3.17667
3.22735
3.27756
3.3559
3.47898
3.6147
3.74375
3.85615
3.94969
4.02657
4.09003
4.14192
4.18399
4.21724
4.24214
4.2593
4.26916
4.27157
4.27088
4.2683
4.26186
4.24816
4.22536
4.19897
4.17075
4.14106
4.10981
4.07694
4.04255
4.00687
3.97019
3.93281
3.89507
3.85727
3.81973
3.78276
3.7467
3.71183
3.67888
3.64783
3.61919
3.59326
3.57032
3.55048
3.53377
3.51997
3.50874
3.49954
3.49169
3.48441
3.47684
3.46819
3.45791
3.44552
3.43109
3.4136
3.39403
3.37284
3.35092
3.32889
3.3074
3.28694
3.26799
3.25082
3.23558
3.2232
3.21283
3.2132
5.85907
5.28147
4.73748
4.26033
3.86968
3.57444
3.37202
3.24837
3.17551
3.13402
3.09902
3.06391
3.02741
2.99139
2.9556
2.9218
2.88762
2.85482
2.82276
2.79506
2.77561
2.77402
2.77823
2.79472
2.83849
2.93546
3.12556
3.27024
3.32002
3.31856
3.30759
3.27782
3.23162
3.23266
3.24775
3.28426
3.35268
3.46395
3.60034
3.73195
3.84604
3.93984
4.01503
4.07391
4.12043
4.15661
4.18408
4.20405
4.21697
4.22302
4.22291
4.22168
4.21788
4.20913
4.19136
4.16728
4.14049
4.11205
4.08217
4.0509
4.01832
3.98457
3.9499
3.91461
3.87903
3.84352
3.80844
3.77416
3.74097
3.70961
3.68017
3.65307
3.62865
3.60714
3.58866
3.57314
3.56034
3.54982
3.54098
3.53308
3.52528
3.51664
3.5063
3.49356
3.47799
3.45949
3.43802
3.41314
3.38674
3.3592
3.33124
3.30335
3.27621
3.25025
3.22604
3.20398
3.1844
3.16854
3.15501
3.15525
5.896
5.37703
4.87617
4.42197
4.03361
3.71939
3.48362
3.32213
3.21929
3.15862
3.11935
3.08732
3.05454
3.02209
2.98471
2.95006
2.91482
2.88127
2.84989
2.82494
2.81803
2.82153
2.83589
2.87533
2.96653
3.1588
3.44141
3.59657
3.60492
3.58834
3.53743
3.42986
3.32207
3.2597
3.254
3.26435
3.29339
3.35084
3.44256
3.56899
3.69647
3.81247
3.90922
3.98518
4.04277
4.08598
4.11778
4.14126
4.15735
4.16687
4.16975
4.16926
4.16726
4.16208
4.1509
4.13089
4.10659
4.07993
4.05169
4.0222
3.9916
3.96004
3.92772
3.89493
3.862
3.82933
3.79731
3.76632
3.73693
3.70962
3.68459
3.66219
3.64265
3.62605
3.61228
3.60099
3.59169
3.58371
3.57628
3.56846
3.5594
3.54805
3.53371
3.51594
3.4947
3.46962
3.44054
3.40984
3.37784
3.34495
3.31187
3.27899
3.24695
3.21613
3.18711
3.16034
3.13617
3.11624
3.09827
3.09677
5.92454
5.45198
4.99082
4.56141
4.18104
3.86015
3.60294
3.41145
3.2789
3.19384
3.14023
3.10621
3.07587
3.0467
3.01283
2.97989
2.94397
2.91107
2.88113
2.86502
2.8669
2.87727
2.90867
2.98533
3.15233
3.49462
3.83387
3.94641
3.93415
3.88544
3.77194
3.59415
3.44585
3.34346
3.28719
3.2755
3.28211
3.30399
3.34793
3.41673
3.52271
3.64327
3.75923
3.85857
3.93724
3.99644
4.03932
4.0698
4.09055
4.10384
4.11078
4.11177
4.11105
4.10852
4.10234
4.08938
4.06886
4.04475
4.01867
3.9913
3.96297
3.93389
3.90429
3.87444
3.84471
3.8155
3.78722
3.76028
3.73564
3.71313
3.69322
3.67612
3.66187
3.65029
3.64096
3.63328
3.62654
3.61995
3.6126
3.60346
3.59159
3.57625
3.55687
3.53359
3.50568
3.47364
3.43979
3.40425
3.36762
3.33033
3.29298
3.25593
3.21978
3.18486
3.15171
3.12078
3.09238
3.06831
3.04617
3.0406
5.95208
5.51435
5.08601
4.68168
4.31368
3.99247
3.72422
3.51076
3.35187
3.2419
3.16941
3.12491
3.09173
3.06474
3.0362
3.00603
2.97398
2.94355
2.9174
2.91626
2.9222
2.94498
3.00571
3.14478
3.43795
3.96175
4.26988
4.29273
4.26282
4.1727
3.98259
3.76895
3.59501
3.46575
3.37538
3.32052
3.29673
3.2993
3.31227
3.34053
3.39095
3.47171
3.5799
3.68987
3.79012
3.87313
3.93665
3.9823
4.01335
4.03336
4.04505
4.05047
4.05046
4.04964
4.04685
4.04017
4.02635
4.00613
3.98302
3.95836
3.93275
3.90656
3.88011
3.85372
3.82779
3.80275
3.7789
3.75738
3.7379
3.72097
3.70679
3.69533
3.68638
3.67941
3.67371
3.66851
3.66305
3.65642
3.6476
3.63552
3.61942
3.59904
3.57386
3.54358
3.50953
3.47349
3.43555
3.39609
3.35572
3.31483
3.27403
3.23364
3.19422
3.15604
3.1196
3.08528
3.05334
3.02554
2.99978
2.98944
5.97341
5.56859
5.16925
4.78652
4.43299
4.11599
3.84207
3.61492
3.43495
3.30153
3.2082
3.14749
3.10712
3.07828
3.05341
3.02778
3.00246
2.97666
2.96582
2.96944
2.98599
3.03362
3.1483
3.39862
3.91587
4.47548
4.65741
4.63972
4.57126
4.41394
4.16755
3.94385
3.75992
3.61335
3.49902
3.41332
3.35445
3.31736
3.30991
3.31443
3.32907
3.36191
3.42084
3.50841
3.60981
3.70916
3.79621
3.86527
3.91547
3.94931
3.97042
3.9822
3.98705
3.98703
3.9862
3.98344
3.97686
3.96333
3.94457
3.92344
3.90119
3.8785
3.85581
3.83351
3.81214
3.79192
3.77388
3.75803
3.74465
3.73391
3.72568
3.7198
3.71562
3.71219
3.70878
3.70463
3.69904
3.69075
3.67876
3.66219
3.64076
3.6137
3.5818
3.54648
3.50901
3.46931
3.4279
3.38522
3.34184
3.29817
3.25474
3.21186
3.17002
3.12943
3.09052
3.05361
3.01891
2.988
2.95929
2.9443
5.99663
5.61627
5.24244
4.88199
4.54198
4.23115
3.95521
3.71871
3.52365
3.37025
3.25651
3.17736
3.12519
3.09011
3.0659
3.0451
3.02749
3.01531
3.01741
3.02943
3.06697
3.16089
3.37184
3.81588
4.55202
4.95487
4.97848
4.94164
4.83188
4.60214
4.34306
4.11955
3.93208
3.77546
3.64435
3.53639
3.44898
3.38232
3.33656
3.31018
3.31038
3.31399
3.32922
3.36509
3.43507
3.52357
3.61974
3.70909
3.78362
3.83998
3.8787
3.9029
3.91618
3.92189
3.92253
3.92195
3.91973
3.91419
3.90266
3.88655
3.86852
3.85012
3.83195
3.81463
3.79858
3.78437
3.7729
3.76344
3.7568
3.75234
3.74968
3.74885
3.74801
3.7465
3.74399
3.73956
3.73235
3.72045
3.70347
3.68063
3.65207
3.619
3.58315
3.54454
3.50357
3.46065
3.41638
3.37116
3.32557
3.27991
3.2347
3.19014
3.14669
3.10446
3.06386
3.0251
2.98842
2.95513
2.92421
2.90515
6.02665
5.66443
5.31173
4.96904
4.64216
4.33807
4.06311
3.82069
3.61435
3.44519
3.3131
3.21594
3.14901
3.10459
3.07706
3.06074
3.05527
3.05734
3.06805
3.10047
3.18095
3.36238
3.74569
4.51922
5.1367
5.29796
5.27497
5.19453
5.01435
4.75149
4.50655
4.29291
4.10721
3.94453
3.80132
3.67595
3.56749
3.47628
3.40201
3.34555
3.30849
3.29531
3.29008
3.29448
3.31381
3.35746
3.43529
3.52288
3.61296
3.69309
3.75667
3.80205
3.83133
3.84809
3.85592
3.85892
3.85878
3.85773
3.85442
3.84703
3.83493
3.8222
3.80943
3.79801
3.78812
3.78149
3.77672
3.77412
3.77445
3.77556
3.77784
3.78059
3.78032
3.77928
3.77675
3.77131
3.76034
3.74239
3.71794
3.68832
3.65497
3.61846
3.57892
3.53686
3.49286
3.44736
3.40094
3.35397
3.30695
3.2601
3.21386
3.16835
3.12399
3.08082
3.03921
2.9993
2.96134
2.92636
2.89396
2.87157
6.08187
5.72164
5.37806
5.04768
4.73311
4.4365
4.1635
3.9191
3.70491
3.52421
3.37681
3.26307
3.18061
3.1256
3.09185
3.08371
3.08629
3.09726
3.12783
3.20086
3.36341
3.70835
4.4175
5.23058
5.56278
5.55769
5.51086
5.38708
5.13855
4.88888
4.66427
4.46264
4.28005
4.11334
3.96135
3.82318
3.69898
3.58861
3.4922
3.41181
3.34733
3.29957
3.27544
3.25778
3.25608
3.26338
3.28784
3.34106
3.42219
3.51021
3.5943
3.6654
3.71945
3.75606
3.77849
3.79074
3.79704
3.80061
3.80107
3.80064
3.79897
3.79511
3.78916
3.78465
3.78314
3.78367
3.78538
3.78909
3.79575
3.80313
3.80943
3.81166
3.81107
3.80909
3.80451
3.79496
3.77671
3.75187
3.72223
3.68879
3.65164
3.61129
3.56839
3.52345
3.47711
3.42979
3.38199
3.33401
3.28623
3.23883
3.19217
3.14631
3.1016
3.05807
3.01602
2.97558
2.93696
2.90097
2.86773
2.84283
6.15129
5.77923
5.4428
5.12035
4.81378
4.52556
4.25726
4.01261
3.79416
3.60527
3.44628
3.31821
3.22146
3.15534
3.11696
3.11785
3.12623
3.15249
3.21683
3.35975
3.66311
4.29155
5.24491
5.75655
5.81975
5.78814
5.69322
5.49398
5.24986
5.02335
4.81705
4.62551
4.44597
4.2769
4.11871
3.97126
3.83523
3.71079
3.59883
3.49907
3.41291
3.3411
3.2854
3.24855
3.22567
3.21032
3.21241
3.22522
3.2572
3.32237
3.40365
3.48972
3.5681
3.63135
3.6777
3.70865
3.72836
3.74019
3.74846
3.75498
3.76094
3.76585
3.77018
3.77514
3.78161
3.78994
3.79979
3.81067
3.82168
3.83191
3.83816
3.83779
3.83621
3.8323
3.82344
3.80569
3.78166
3.75271
3.71914
3.68155
3.6407
3.59714
3.55164
3.50469
3.45687
3.40852
3.36005
3.31167
3.2637
3.21626
3.16965
3.12392
3.07934
3.03594
2.99395
2.9535
2.91471
2.87833
2.84481
2.8185
6.21225
5.83413
5.49834
5.18702
4.88951
4.60716
4.34375
4.10122
3.88178
3.68685
3.51994
3.38065
3.27269
3.19528
3.16266
3.16707
3.18652
3.23907
3.35931
3.61586
4.14446
5.17524
5.88566
6.05393
6.03401
5.96393
5.80757
5.57984
5.36002
5.15623
4.96427
4.78027
4.60315
4.43313
4.2708
4.11685
3.97223
3.83705
3.71228
3.59816
3.4958
3.40538
3.32829
3.26548
3.2196
3.18978
3.16585
3.15789
3.16323
3.18246
3.22539
3.30011
3.38351
3.46662
3.54002
3.59838
3.64111
3.67083
3.69208
3.70896
3.72415
3.73897
3.75382
3.76893
3.7846
3.80082
3.81731
3.8337
3.84762
3.85747
3.85902
3.85786
3.85411
3.84565
3.82899
3.80626
3.77778
3.74434
3.70682
3.66581
3.62216
3.57646
3.5294
3.48138
3.43291
3.3842
3.33563
3.28733
3.23959
3.19251
3.14633
3.1011
3.05703
3.01415
2.97267
2.93267
2.89445
2.85833
2.82516
2.79805
6.33146
5.91359
5.56016
5.24967
4.96043
4.68718
4.42897
4.1886
3.96885
3.77014
3.59742
3.44996
3.33508
3.2495
3.23581
3.24601
3.28384
3.38055
3.59619
4.04998
4.97369
5.90149
6.24303
6.2374
6.19471
6.08745
5.88062
5.67036
5.47318
5.28595
5.10421
4.92624
4.75153
4.58106
4.41566
4.2569
4.10532
3.96231
3.82806
3.70349
3.5887
3.48444
3.39112
3.30979
3.24166
3.18767
3.15159
3.12225
3.10385
3.10531
3.11593
3.14357
3.20077
3.27976
3.36637
3.44964
3.5214
3.57894
3.62351
3.6586
3.68805
3.7148
3.74039
3.76544
3.79016
3.81383
3.83526
3.85484
3.86835
3.87219
3.87128
3.86823
3.86117
3.8468
3.82496
3.79693
3.7638
3.72638
3.68566
3.64227
3.59697
3.55021
3.50256
3.45427
3.4058
3.35727
3.30906
3.26121
3.21408
3.16768
3.12228
3.07792
3.03482
2.99298
2.95253
2.91346
2.87603
2.84054
2.80799
2.7807
6.35102
5.99232
5.62918
5.3148
5.03037
4.76321
4.5108
4.27343
4.05478
3.85516
3.67887
3.52722
3.40954
3.33503
3.33863
3.36305
3.43693
3.61321
3.99355
4.77832
5.80293
6.32559
6.3954
6.37178
6.30188
6.15428
5.95868
5.76905
5.58827
5.41225
5.23794
5.06428
4.89142
4.72053
4.55303
4.39049
4.23406
4.08494
3.94363
3.81085
3.68677
3.57196
3.46651
3.37146
3.28707
3.21498
3.1553
3.11242
3.07951
3.05636
3.04957
3.05465
3.07261
3.1126
3.18412
3.27226
3.36481
3.45265
3.52926
3.59299
3.64537
3.68949
3.72814
3.76324
3.79522
3.82441
3.84824
3.86781
3.8768
3.87641
3.87445
3.86949
3.85872
3.83727
3.80955
3.77668
3.73973
3.69952
3.65688
3.61231
3.5664
3.51944
3.47189
3.42394
3.37592
3.328
3.28051
3.23353
3.18741
3.14223
3.09818
3.05519
3.01338
2.9727
2.93331
2.89525
2.85879
2.82422
2.79265
2.76597
6.32471
6.11261
5.72833
5.39461
5.10477
4.83937
4.59138
4.35753
4.14062
3.9418
3.76502
3.61672
3.50125
3.46813
3.48238
3.53731
3.68031
3.9986
4.66036
5.67812
6.30988
6.48992
6.48157
6.44625
6.36342
6.2076
6.03924
5.87084
5.70356
5.53596
5.36686
5.19582
5.02373
4.85202
4.68258
4.51707
4.35688
4.20309
4.05645
3.91736
3.78632
3.6634
3.54924
3.44377
3.34785
3.2618
3.18679
3.12406
3.07473
3.04125
3.01424
3.00175
3.00436
3.01604
3.0446
3.10258
3.19051
3.29309
3.39789
3.49533
3.58001
3.65079
3.70907
3.7571
3.79643
3.82832
3.85252
3.87052
3.87427
3.87295
3.86872
3.85921
3.84021
3.81373
3.78194
3.74601
3.70695
3.66541
3.62209
3.57731
3.53155
3.48498
3.43798
3.39071
3.34354
3.29667
3.25047
3.2051
3.16061
3.117
3.07436
3.03267
2.99207
2.95256
2.91434
2.87751
2.84236
2.80927
2.77916
2.75407
6.25686
6.12558
5.83869
5.48708
5.18531
4.91789
4.67218
4.44159
4.2278
4.03157
3.85924
3.71972
3.64092
3.64819
3.6886
3.80621
4.0791
4.65115
5.60438
6.26312
6.51152
6.53715
6.52314
6.48167
6.39347
6.2624
6.12075
5.97218
5.81727
5.65655
5.49053
5.32032
5.14769
4.97479
4.80363
4.63602
4.47313
4.3161
4.16546
4.02172
3.88529
3.75628
3.63515
3.52199
3.41728
3.32145
3.23512
3.15905
3.09456
3.04197
3.00478
2.98077
2.96741
2.96972
2.97936
3.00344
3.05273
3.13251
3.24014
3.35722
3.47232
3.57587
3.66287
3.73196
3.78422
3.82158
3.84711
3.8591
3.85842
3.85525
3.84767
3.83177
3.80762
3.77802
3.74423
3.70706
3.66735
3.62561
3.58245
3.53809
3.49291
3.44706
3.40095
3.35487
3.30927
3.26423
3.2199
3.17623
3.13334
3.0912
3.04995
3.00961
2.97036
2.93227
2.89557
2.86042
2.82709
2.79615
2.76809
2.74568
6.15806
6.09714
5.92755
5.58729
5.27324
4.99979
4.75389
4.52662
4.31746
4.12907
3.97193
3.85655
3.85787
3.88736
3.98814
4.23353
4.75278
5.63116
6.26501
6.51025
6.56637
6.55891
6.53479
6.48348
6.40706
6.31218
6.19918
6.07014
5.92666
5.7712
5.60661
5.43604
5.26248
5.08854
4.91631
4.74739
4.58274
4.42341
4.26978
4.12251
3.98187
3.84818
3.72174
3.60282
3.49164
3.38874
3.29433
3.20923
3.13404
3.06967
3.01756
2.97887
2.95525
2.95155
2.95457
2.9646
2.98789
3.03573
3.10896
3.2101
3.33048
3.45318
3.5665
3.6622
3.73588
3.78699
3.81909
3.82969
3.82809
3.82305
3.81191
3.79082
3.76386
3.73264
3.69825
3.66117
3.62194
3.58092
3.53859
3.49508
3.45084
3.40622
3.36179
3.31766
3.27405
3.2309
3.18835
3.14635
3.10506
3.06447
3.0248
2.98605
2.94849
2.91219
2.87744
2.84449
2.81356
2.78556
2.76025
2.74178
6.00669
6.00503
5.92308
5.71744
5.38341
5.09131
4.83856
4.61507
4.41339
4.24189
4.113
4.09407
4.12021
4.21579
4.4536
4.95938
5.78651
6.35695
6.56716
6.59894
6.58838
6.55851
6.50526
6.46247
6.41656
6.35522
6.26971
6.16014
6.02711
5.87568
5.71197
5.54119
5.36737
5.19314
5.02071
4.85113
4.68555
4.52455
4.36881
4.21881
4.07501
3.93773
3.80738
3.68414
3.56845
3.46049
3.36074
3.26956
3.18758
3.11552
3.05421
3.00497
2.96891
2.94915
2.95002
2.95522
2.96892
2.99808
3.04503
3.11209
3.20296
3.31224
3.42757
3.53761
3.63183
3.70382
3.7514
3.77544
3.77482
3.77093
3.76115
3.74098
3.71234
3.68004
3.64554
3.60907
3.57097
3.53131
3.49037
3.44829
3.4059
3.36343
3.32119
3.27914
3.23749
3.19618
3.15542
3.11515
3.07563
3.03681
2.99898
2.96216
2.92666
2.89261
2.86034
2.83025
2.80248
2.77843
2.7569
2.74334
5.60642
5.90698
5.87847
5.75911
5.50049
5.19439
4.93509
4.71311
4.52666
4.3866
4.35791
4.38374
4.48145
4.72703
5.24901
6.05622
6.57061
6.72547
6.71606
6.67646
6.59047
6.51045
6.46473
6.44275
6.42235
6.38684
6.32807
6.2367
6.11363
5.96711
5.80575
5.63631
5.46333
5.28961
5.11737
4.94753
4.78129
4.61913
4.46181
4.30987
4.16377
4.02402
3.89092
3.76487
3.64617
3.53508
3.43204
3.33735
3.25153
3.17523
3.10893
3.05368
3.01067
2.98022
2.96853
2.97006
2.97623
2.99144
3.0237
3.06713
3.12049
3.19581
3.28536
3.38284
3.47903
3.56429
3.63049
3.67521
3.69402
3.69309
3.68834
3.67665
3.65288
3.62228
3.58814
3.55211
3.51507
3.47694
3.43795
3.39849
3.35881
3.31884
3.27891
3.23896
3.19933
3.15995
3.12114
3.08281
3.04529
3.00852
2.97286
2.93835
2.90536
2.87412
2.84503
2.81866
2.79514
2.7764
2.75922
2.75111
4.68224
5.68025
5.7879
5.73849
5.59828
5.31371
5.04528
4.83232
4.67711
4.64248
4.67037
4.77677
5.04384
5.6097
6.41886
6.89136
6.96941
6.94231
6.85851
6.68742
6.55011
6.47255
6.43984
6.42893
6.41929
6.39951
6.35946
6.28464
6.17809
6.04294
5.88874
5.72343
5.55234
5.37938
5.20699
5.03674
4.86972
4.70668
4.54829
4.39514
4.2477
4.10653
3.97193
3.84439
3.72417
3.61168
3.50722
3.41119
3.32405
3.24636
3.17884
3.12177
3.07578
3.04121
3.01847
3.01116
3.01232
3.01686
3.02805
3.05229
3.08026
3.11829
3.17077
3.23613
3.31057
3.38789
3.46081
3.52266
3.56626
3.58957
3.58948
3.58648
3.57741
3.55789
3.5271
3.4923
3.45609
3.41949
3.38304
3.34633
3.3094
3.27205
3.23455
3.19689
3.15945
3.12221
3.08554
3.04942
3.01416
2.9798
2.9467
2.91501
2.88517
2.85752
2.83262
2.81108
2.79368
2.78008
2.76885
2.76789
3.05211
5.15203
5.66901
5.67257
5.61151
5.45642
5.19474
4.99334
4.94255
4.97427
5.0956
5.39827
6.03627
6.85975
7.306
7.30981
7.26285
7.13372
6.87491
6.66932
6.54026
6.47084
6.43898
6.42486
6.41262
6.3933
6.35952
6.30066
6.21134
6.09605
5.95732
5.80095
5.63434
5.46284
5.29036
5.11935
4.95139
4.78749
4.62838
4.47466
4.32683
4.18532
4.05055
3.92288
3.80274
3.69046
3.58665
3.49161
3.40576
3.32926
3.26254
3.20591
3.15927
3.12266
3.09544
3.07762
3.06751
3.0612
3.06087
3.06189
3.06573
3.0739
3.09095
3.12121