/*--------------------------------*- C++ -*----------------------------------*\
| =========                 |                                                 |
| \\      /  F ield         | OpenFOAM: The Open Source CFD Toolbox           |
|  \\    /   O peration     | Version:  2412                                  |
|   \\  /    A nd           | Website:  www.openfoam.com                      |
|    \\/     M anipulation  |                                                 |
\*---------------------------------------------------------------------------*/
FoamFile
{
    version     2.0;
    format      ascii;
    arch        "LSB;label=32;scalar=64";
    class       surfaceScalarField;
    location    "5";
    object      phi;
}
// * * * * * * * * * * * * * * * * * * * * * * * * * * * * * * * * * * * * * //

dimensions      [1 0 -1 0 0 0 0];

oriented        oriented;

internalField   nonuniform List<scalar> 
10325
(
0.00840003
7.41802e-11
0.00840003
5.75401e-10
0.00840003
1.76677e-09
0.00840002
5.35577e-09
0.00840001
1.25714e-08
0.00839997
3.47924e-08
0.0083999
7.32632e-08
0.00839964
2.26274e-07
0.00839923
4.31512e-07
0.0083975
1.56878e-06
0.00839437
3.2032e-06
0.0083817
1.20987e-05
0.0083487
3.2791e-05
0.0082091
0.00013873
0.00754739
0.000656231
0.00681771
0.000733707
0.0061553
0.000663284
0.00548636
0.000668826
0.00479699
0.000689644
0.00407207
0.000725203
0.00330847
0.000764237
0.00251089
0.000797864
0.00168824
0.000823176
0.000846846
0.000842595
0.000847123
0.00840003
1.46029e-10
0.00840003
1.13271e-09
0.00840003
3.47635e-09
0.00840002
1.05328e-08
0.00840001
2.46396e-08
0.00839997
6.87681e-08
0.0083999
1.41391e-07
0.00839965
4.57494e-07
0.00839927
8.23648e-07
0.00839745
3.23918e-06
0.00839435
6.37429e-06
0.00838122
2.47008e-05
0.00834718
6.65779e-05
0.00820865
0.000276424
0.0075701
0.00128922
0.00682347
0.00148441
0.00617287
0.00131476
0.0055155
0.00132609
0.00483241
0.001373
0.00410183
0.00145608
0.00333237
0.00153435
0.00252898
0.00160158
0.00169641
0.00165637
0.000844767
0.00169542
0.00169221
0.00840003
2.14502e-10
0.00840003
1.66391e-09
0.00840003
5.10144e-09
0.00840002
1.54673e-08
0.00840001
3.62007e-08
0.00839997
1.01032e-07
0.00839991
2.08163e-07
0.00839967
6.72816e-07
0.0083993
1.2021e-06
0.00839763
4.7669e-06
0.00839476
9.30683e-06
0.00838282
3.61152e-05
0.00835193
9.7196e-05
0.00823011
0.0003975
0.00768531
0.0018283
0.00692762
0.00224623
0.00627315
0.0019702
0.00562069
0.00197849
0.00494228
0.00205166
0.00420875
0.00218993
0.00343131
0.00231244
0.00261378
0.00241952
0.00175953
0.00251131
0.000879526
0.00257671
0.00257212
0.00840003
2.73165e-10
0.00840003
2.1187e-09
0.00840003
6.48248e-09
0.00840002
1.96686e-08
0.00840001
4.61019e-08
0.00839998
1.28123e-07
0.00839992
2.67252e-07
0.00839973
8.45265e-07
0.00839941
1.5276e-06
0.00839812
5.92202e-06
0.00839589
1.159e-05
0.00838703
4.44534e-05
0.00836442
0.000119525
0.0082799
0.000481278
0.00792471
0.00217762
0.0071664
0.00300872
0.00648758
0.00264996
0.00582632
0.00263966
0.00514838
0.00272986
0.00441295
0.00292569
0.00361753
0.00310896
0.0027758
0.00326157
0.00188398
0.00340377
0.000945808
0.0035162
0.00351856
0.00840003
3.06965e-10
0.00840003
2.37889e-09
0.00840003
7.28002e-09
0.00840002
2.20688e-08
0.00840002
5.18244e-08
0.0084
1.4309e-07
0.00839997
3.01373e-07
0.00839985
9.38285e-07
0.00839973
1.65879e-06
0.00839899
6.54448e-06
0.00839811
1.25106e-05
0.00839398
4.80846e-05
0.00838464
0.000128619
0.00835583
0.000508994
0.00832309
0.00220471
0.00757525
0.0037608
0.00682986
0.00339665
0.00614399
0.00332546
0.00545693
0.00341697
0.00471189
0.00367084
0.00390098
0.00392043
0.00301961
0.0041444
0.00207406
0.00435033
0.00106046
0.00453122
0.00457985
0.00840003
3.10481e-10
0.00840003
2.40516e-09
0.00840003
7.37848e-09
0.00840003
2.2272e-08
0.00840003
5.25776e-08
0.00840003
1.41177e-07
0.00840001
3.13012e-07
0.00840007
8.64964e-07
0.00839995
1.77457e-06
0.00840058
5.81618e-06
0.00840154
1.15547e-05
0.00840721
4.20252e-05
0.00841898
0.000115941
0.00850306
0.000429531
0.00905
0.00164926
0.00830185
0.00451362
0.00736768
0.00433412
0.00663368
0.00406132
0.00591922
0.00413319
0.00514499
0.00444608
0.00430049
0.00476539
0.0033727
0.00507221
0.00234884
0.005375
0.00121969
0.0056624
0.00580048
0.00840003
2.96737e-10
0.00840003
2.29539e-09
0.00840003
7.1126e-09
0.00840003
2.13076e-08
0.00840003
5.03679e-08
0.00840004
1.3306e-07
0.00840006
2.95102e-07
0.00840012
7.97102e-07
0.00840028
1.61308e-06
0.00840075
5.26775e-06
0.0084027
9.67813e-06
0.00840808
3.63263e-05
0.00842447
9.92355e-05
0.00853654
0.000317166
0.0088371
0.00134306
0.00850021
0.00484983
0.0076575
0.00517652
0.0070222
0.00469711
0.00633625
0.00482014
0.00559489
0.00518837
0.00474189
0.00561948
0.00378988
0.00602422
0.00271036
0.00645451
0.00146228
0.00691186
0.00726357
0.00840003
3.28213e-10
0.00840003
2.53816e-09
0.00840003
7.8615e-09
0.00840003
2.35205e-08
0.00840002
5.56007e-08
0.00840001
1.46161e-07
0.00839998
3.26038e-07
0.00839991
8.54311e-07
0.00839972
1.80393e-06
0.00839962
5.31022e-06
0.00839899
1.03709e-05
0.00839934
3.56985e-05
0.00840864
8.98252e-05
0.00841105
0.000314385
0.00860787
0.00114316
0.00834084
0.00511445
0.00801377
0.00550248
0.00734528
0.00536544
0.00664568
0.00551991
0.00597982
0.00585426
0.00519332
0.00640601
0.00425854
0.00695887
0.00315382
0.00755944
0.00180029
0.00826645
0.00906439
0.00840003
3.43649e-10
0.00840003
3.22465e-09
0.00840003
9.73833e-09
0.00840002
2.96296e-08
0.00840001
6.96263e-08
0.00839996
1.86551e-07
0.00839988
4.08801e-07
0.00839964
1.08993e-06
0.00839919
2.25852e-06
0.00839821
6.23853e-06
0.0083966
1.20263e-05
0.00839294
3.91091e-05
0.00839798
8.48541e-05
0.00838292
0.000328875
0.00849255
0.00103246
0.00836127
0.0052431
0.00799852
0.00586462
0.00750508
0.00585841
0.00694114
0.00608285
0.00632675
0.00646833
0.00563521
0.00709768
0.00479152
0.00780255
0.00377391
0.00857651
0.00236081
0.00967921
0.011425
0.00840003
1.54346e-10
0.00840003
4.74813e-09
0.00840003
7.27957e-09
0.00840002
4.10794e-08
0.00840004
5.23019e-08
0.00839996
2.64314e-07
0.00840009
2.79827e-07
0.00839953
1.64205e-06
0.00840053
1.26095e-06
0.00839673
9.99789e-06
0.00840351
5.27684e-06
0.00837675
6.56395e-05
0.00842268
3.90325e-05
0.00829468
0.000456364
0.00847471
0.000851855
0.00843521
0.00528046
0.00806599
0.00623377
0.00765705
0.00626696
0.00723291
0.00650607
0.00670813
0.00699206
0.00614706
0.00765812
0.00550251
0.0084467
0.00458589
0.00949259
0.00323609
0.0110283
0.0146595
0.00840003
5.36308e-10
0.00840003
8.24961e-10
0.00840003
7.97838e-09
0.00840006
9.0332e-09
0.00840006
5.69101e-08
0.00840027
5.39556e-08
0.00840016
3.81476e-07
0.00840154
2.73798e-07
0.00840005
2.71899e-06
0.00840854
1.47891e-06
0.00839435
1.9255e-05
0.00844854
1.07208e-05
0.00834232
0.000144401
0.00862749
0.000171356
0.00832478
0.0011541
0.00854267
0.00506048
0.00820605
0.00657073
0.00782677
0.00664584
0.00748424
0.006848
0.00712265
0.00735282
0.00674182
0.00803802
0.00630072
0.00888663
0.00588493
0.00990652
0.00586495
0.0110453
0.0117594
0.00876072
0.00840003
2.91409e-10
0.00840003
1.56814e-09
0.00840003
5.38621e-09
0.00840003
1.49237e-08
0.00840004
3.79334e-08
0.0084
9.27199e-08
0.00840016
2.31992e-07
0.00839987
5.5277e-07
0.00840121
1.39999e-06
0.00839882
3.92967e-06
0.00840931
8.94186e-06
0.00839061
3.01844e-05
0.00846215
7.33223e-05
0.00832515
0.000307689
0.00863432
0.00084477
0.0090144
0.00467852
0.00857038
0.00701517
0.00810174
0.00711421
0.00777373
0.00717494
0.00750579
0.0076197
0.00724937
0.00829361
0.00702949
0.00910492
0.00696364
0.00997051
0.00738098
0.0106249
0.0106853
0.00844423
0.00840003
2.70825e-10
0.00840003
2.10657e-09
0.00840003
6.43866e-09
0.00840002
1.95367e-08
0.00840002
4.62136e-08
0.00839998
1.2431e-07
0.00839994
2.79899e-07
0.00839974
7.43271e-07
0.0083995
1.644e-06
0.00839888
4.52325e-06
0.00839802
9.82035e-06
0.00839703
3.10435e-05
0.00840409
6.6337e-05
0.00844464
0.000266749
0.00856102
0.000728345
0.00970799
0.00352948
0.00914622
0.0075776
0.00853125
0.00772912
0.00816341
0.00754177
0.00792455
0.00785703
0.00777357
0.00844254
0.00773553
0.00914168
0.00790076
0.00980065
0.00839187
0.0101283
0.00998337
0.00908273
0.00840003
2.75946e-10
0.00840003
2.14609e-09
0.00840003
6.56247e-09
0.00840003
1.98785e-08
0.00840003
4.70386e-08
0.00840003
1.26119e-07
0.00840002
2.84326e-07
0.00840002
7.46528e-07
0.00839999
1.67358e-06
0.00840016
4.33176e-06
0.00839974
1.02512e-05
0.00840575
2.49405e-05
0.00840427
6.78518e-05
0.00848153
0.000189128
0.00864554
0.000564657
0.00987513
0.00229842
0.00963221
0.00781972
0.00925451
0.00810646
0.0086803
0.00811535
0.00838896
0.00814722
0.00828963
0.00854012
0.0083671
0.00906045
0.00860144
0.00956416
0.009007
0.00971695
0.00945053
0.00952994
0.00840003
2.46999e-10
0.00840003
1.91686e-09
0.00840003
5.87598e-09
0.00840003
1.77374e-08
0.00840004
4.20842e-08
0.00840005
1.11922e-07
0.00840008
2.5314e-07
0.00840018
6.5087e-07
0.00840035
1.49625e-06
0.00840102
3.65469e-06
0.00840246
8.81207e-06
0.00840576
2.15492e-05
0.00842058
5.30779e-05
0.00845404
0.00015533
0.00854279
0.000475757
0.00905269
0.00178794
0.0097152
0.00715502
0.00945749
0.00836324
0.00908179
0.00849013
0.00883444
0.00839342
0.00875769
0.00861504
0.00886239
0.00895257
0.00912835
0.00929278
0.00946729
0.00937235
0.0090519
0.00985861
0.00840003
1.9379e-10
0.00840003
1.49929e-09
0.00840003
4.65467e-09
0.00840004
1.39336e-08
0.00840004
3.30538e-08
0.00840007
8.68711e-08
0.00840013
1.94801e-07
0.00840027
5.07286e-07
0.00840069
1.07967e-06
0.00840123
3.09887e-06
0.00840413
5.92457e-06
0.00840545
2.01402e-05
0.0084194
3.92335e-05
0.00843183
0.000142544
0.00853469
0.000372899
0.00879889
0.00152338
0.00971922
0.00623269
0.00962217
0.00845968
0.00942632
0.00868517
0.00922148
0.00859701
0.00915858
0.008676
0.00923375
0.00887492
0.00948383
0.00903545
0.00980442
0.00904837
0.00874053
0.0101068
0.00840003
1.70833e-10
0.00840003
1.32274e-09
0.00840003
4.07129e-09
0.00840003
1.22402e-08
0.00840004
2.89716e-08
0.00840005
7.66633e-08
0.00840007
1.71903e-07
0.00840013
4.46672e-07
0.00840023
9.80284e-07
0.00840066
2.65347e-06
0.00840115
5.45179e-06
0.00840388
1.73337e-05
0.00840939
3.38137e-05
0.00842748
0.000124128
0.0084818
0.000318626
0.00873776
0.00126674
0.0103048
0.00466358
0.0100718
0.00869203
0.00986344
0.00889279
0.00961502
0.00884421
0.00957436
0.00871441
0.00963415
0.00881227
0.00979051
0.00887317
0.0100429
0.00879189
0.00849034
0.0102861
0.00840003
1.39937e-10
0.00840003
1.13284e-09
0.00840003
3.51337e-09
0.00840003
1.04632e-08
0.00840004
2.50477e-08
0.00840005
6.55009e-08
0.00840007
1.49158e-07
0.00840014
3.80406e-07
0.00840026
8.54532e-07
0.00840072
2.19457e-06
0.00840134
4.83909e-06
0.00840545
1.31866e-05
0.00841148
2.80638e-05
0.00844909
8.60361e-05
0.00854599
0.000223106
0.00905363
0.000756504
0.0111527
0.00256541
0.0109465
0.00889597
0.0105957
0.00924263
0.0102065
0.00923221
0.00999192
0.00892683
0.0100033
0.00879885
0.010108
0.00876188
0.0102697
0.00862577
0.0083117
0.0104403
0.00840003
5.61592e-11
0.00840003
1.15881e-09
0.00840003
2.22699e-09
0.00840003
1.01527e-08
0.00840004
1.63791e-08
0.00840004
6.31061e-08
0.00840009
9.81745e-08
0.0084001
3.68159e-07
0.00840041
5.52914e-07
0.00840041
2.18638e-06
0.00840241
2.83898e-06
0.00840168
1.38866e-05
0.00841617
1.36063e-05
0.00840899
9.29804e-05
0.00852879
0.000103457
0.0085941
0.000690524
0.00947001
0.00168877
0.0110239
0.007339
0.0109422
0.0093229
0.0106879
0.00948519
0.0104013
0.00921213
0.0103227
0.00887502
0.0103827
0.00869711
0.0104933
0.00850858
0.00819298
0.0106045
0.00840003
9.88293e-11
0.00840003
5.78257e-10
0.00840003
2.11042e-09
0.00840004
5.51097e-09
0.00840004
1.48699e-08
0.00840007
3.43482e-08
0.00840008
8.73523e-08
0.00840025
1.95986e-07
0.00840029
5.08328e-07
0.0084014
1.07707e-06
0.00840105
3.17509e-06
0.00840891
6.04863e-06
0.00840178
2.06114e-05
0.00845448
4.04165e-05
0.00841095
0.000146534
0.00873385
0.000367534
0.00889845
0.00152348
0.0109502
0.00528407
0.0111728
0.00909903
0.011086
0.0095708
0.0108389
0.00945699
0.0106667
0.00904544
0.0106298
0.00873128
0.010676
0.00845567
0.00811476
0.0107472
0.00840003
1.21115e-10
0.00840003
3.57078e-10
0.00840003
2.06653e-09
0.00840003
3.63922e-09
0.00840003
1.42661e-08
0.00840004
2.30812e-08
0.00840005
8.40221e-08
0.00840011
1.32752e-07
0.00840014
4.81533e-07
0.00840048
7.39486e-07
0.00840084
2.81308e-06
0.0084029
3.98828e-06
0.00840566
1.7754e-05
0.00842445
2.2165e-05
0.00845139
0.000118955
0.00862179
0.000198843
0.00927619
0.000865298
0.0116502
0.0029079
0.0118035
0.00894492
0.0117045
0.00966892
0.0113916
0.00976838
0.011115
0.00932012
0.0109772
0.00886745
0.0109236
0.00850242
0.00811736
0.0109139
0.00840003
4.12234e-11
0.00840003
4.55576e-10
0.00840003
1.03708e-09
0.00840003
4.10705e-09
0.00840004
7.4839e-09
0.00840003
2.5582e-08
0.00840007
4.46119e-08
0.00840006
1.47998e-07
0.00840028
2.54937e-07
0.00840017
8.47178e-07
0.00840155
1.44113e-06
0.00840055
4.9698e-06
0.00841023
8.05225e-06
0.00840095
3.13493e-05
0.00847072
4.90587e-05
0.00844992
0.000219085
0.00884666
0.000468899
0.00985907
0.00189421
0.0116785
0.00712289
0.0118071
0.00953909
0.0117276
0.00984649
0.0114096
0.00963628
0.01129
0.00898546
0.0112124
0.00857509
0.00817118
0.0111525
0.00840003
6.02507e-11
0.00840003
2.32942e-10
0.00840003
1.15574e-09
0.00840003
2.29735e-09
0.00840003
8.08778e-09
0.00840004
1.46153e-08
0.00840004
4.8089e-08
0.0084001
8.5306e-08
0.00840008
2.77054e-07
0.00840044
4.8893e-07
0.00840028
1.5957e-06
0.00840246
2.78901e-06
0.00840099
9.49059e-06
0.00841662
1.57534e-05
0.00840356
6.19005e-05
0.00852064
0.000102114
0.00851455
0.000474389
0.00923577
0.00117261
0.0118107
0.00454414
0.0120212
0.00932638
0.0120292
0.00983709
0.0118741
0.0097898
0.0115445
0.00931304
0.0114414
0.00867468
0.00823265
0.0113731
0.00840003
2.18949e-11
0.00840003
2.5319e-10
0.00840003
5.79299e-10
0.00840003
2.27863e-09
0.00840003
4.20446e-09
0.00840004
1.41959e-08
0.00840006
2.51781e-08
0.00840006
8.21786e-08
0.00840019
1.44463e-07
0.00840021
4.69756e-07
0.00840099
8.17773e-07
0.00840103
2.73454e-06
0.00840601
4.52367e-06
0.00840481
1.68874e-05
0.00844151
2.52494e-05
0.0084309
0.000112395
0.00871741
0.000187892
0.00901026
0.000879029
0.0110999
0.00245315
0.0124532
0.00796934
0.0124581
0.00982972
0.012249
0.00999672
0.0118572
0.00970253
0.0116865
0.00884232
0.00834945
0.0115644
0.00840003
2.39344e-11
0.00840003
1.3721e-10
0.00840003
5.09482e-10
0.00840003
1.30754e-09
0.00840003
3.59077e-09
0.00840004
8.1896e-09
0.00840004
2.1169e-08
0.00840008
4.70231e-08
0.0084001
1.20053e-07
0.00840031
2.6448e-07
0.00840044
6.81802e-07
0.00840171
1.46929e-06
0.00840217
4.03553e-06
0.0084109
8.1756e-06
0.00841058
2.54593e-05
0.00847262
5.04034e-05
0.00848051
0.000179567
0.00893308
0.000426407
0.00955181
0.00183311
0.0120333
0.00548568
0.0124741
0.00938633
0.012604
0.0098642
0.012497
0.00980639
0.0120429
0.00929352
0.00859521
0.0117932
0.00840003
2.43835e-11
0.00840003
8.14726e-11
0.00840003
4.27985e-10
0.00840003
8.20392e-10
0.00840003
2.95913e-09
0.00840003
5.19366e-09
0.00840004
1.73604e-08
0.00840006
2.99031e-08
0.00840008
9.83543e-08
0.00840017
1.6813e-07
0.0084003
5.54578e-07
0.00840083
9.35559e-07
0.00840169
3.16542e-06
0.00840471
5.14935e-06
0.00841128
1.88981e-05
0.00843195
2.91344e-05
0.00849014
0.000121903
0.00868307
0.000230612
0.00960677
0.000914782
0.0121858
0.00289896
0.0129799
0.0085901
0.0129836
0.00985815
0.0127849
0.0100025
0.0124442
0.00962995
0.00886741
0.0121702
0.00840003
8.5813e-12
0.00840003
8.71925e-11
0.00840003
2.11167e-10
0.00840003
7.88435e-10
0.00840003
1.51724e-09
0.00840003
4.89237e-09
0.00840004
9.00551e-09
0.00840004
2.80975e-08
0.00840009
5.12094e-08
0.0084001
1.58776e-07
0.00840036
2.88174e-07
0.0084004
8.96587e-07
0.00840195
1.6185e-06
0.00840195
5.12832e-06
0.00841172
9.13749e-06
0.00840987
3.08494e-05
0.00847747
5.43832e-05
0.00850104
0.000206501
0.00893982
0.000476055
0.0100637
0.00177273
0.0126035
0.00604648
0.0129622
0.00949717
0.0131666
0.00979573
0.0129514
0.009842
0.00924099
0.0125736
0.00840003
1.04492e-11
0.00840003
4.05967e-11
0.00840003
1.96819e-10
0.00840003
4.01729e-10
0.00840003
1.37126e-09
0.00840003
2.54238e-09
0.00840003
8.07376e-09
0.00840005
1.4695e-08
0.00840005
4.58723e-08
0.00840013
8.31865e-08
0.00840016
2.59047e-07
0.00840058
4.68737e-07
0.00840073
1.46858e-06
0.00840323
2.63248e-06
0.00840379
8.53783e-06
0.00841986
1.47866e-05
0.00842143
5.26369e-05
0.00853668
9.12024e-05
0.00863941
0.000372606
0.00953551
0.000875718
0.0124672
0.00311045
0.0132991
0.00866289
0.0133435
0.00974911
0.013236
0.00994721
0.00963006
0.0128444
0.00840003
4.86266e-12
0.00840003
3.44728e-11
0.00840003
1.07499e-10
0.00840003
3.21299e-10
0.00840003
7.63229e-10
0.00840003
1.99901e-09
0.00840004
4.49854e-09
0.00840004
1.14229e-08
0.00840006
2.54113e-08
0.00840008
6.39743e-08
0.00840019
1.41933e-07
0.00840031
3.56764e-07
0.00840098
7.90534e-07
0.00840159
2.01921e-06
0.00840576
4.36376e-06
0.00840839
1.20966e-05
0.00843654
2.45146e-05
0.00844932
7.81164e-05
0.00865894
0.000162951
0.00890605
0.000627716
0.0103147
0.00170011
0.012937
0.00603658
0.0133151
0.0093689
0.0135066
0.0097539
0.00976585
0.0133687
0.00840003
2.04058e-12
0.00840003
2.81004e-11
0.00840003
6.41881e-11
0.00840003
2.49374e-10
0.00840003
4.65052e-10
0.00840003
1.536e-09
0.00840003
2.75995e-09
0.00840004
8.77488e-09
0.00840005
1.56642e-08
0.00840006
4.93165e-08
0.00840011
8.79096e-08
0.00840019
2.7657e-07
0.00840049
4.91209e-07
0.00840095
1.55958e-06
0.00840259
2.71699e-06
0.0084056
9.05943e-06
0.00841536
1.47324e-05
0.00843764
5.56751e-05
0.00850983
9.06675e-05
0.00875856
0.000378281
0.00955966
0.000898065
0.0125277
0.00306371
0.013534
0.00835983
0.0136322
0.00965395
0.00978805
0.0136081
0.00840003
2.40617e-12
0.00840003
1.38982e-11
0.00840003
5.12417e-11
0.00840003
1.32469e-10
0.00840003
3.60501e-10
0.00840003
8.26251e-10
0.00840003
2.11148e-09
0.00840004
4.7183e-09
0.00840004
1.18646e-08
0.00840006
2.63798e-08
0.00840008
6.59808e-08
0.00840021
1.46554e-07
0.00840034
3.66167e-07
0.00840108
8.12434e-07
0.00840173
2.06239e-06
0.00840633
4.4637e-06
0.00840873
1.22691e-05
0.00843953
2.48894e-05
0.00845127
7.8617e-05
0.00866655
0.000162935
0.00894249
0.000621252
0.01035
0.00165439
0.0130872
0.00561859
0.0136266
0.00911182
0.00961711
0.0137955
0.00840003
2.1323e-12
0.00840003
7.82569e-12
0.00840003
3.82402e-11
0.00840003
7.79588e-11
0.00840003
2.64012e-10
0.00840003
4.90743e-10
0.00840003
1.53911e-09
0.00840003
2.80891e-09
0.00840004
8.64192e-09
0.00840005
1.57165e-08
0.00840006
4.8111e-08
0.00840012
8.73518e-08
0.00840022
2.67571e-07
0.00840055
4.83792e-07
0.00840111
1.49529e-06
0.00840292
2.6566e-06
0.00840659
8.5693e-06
0.00841702
1.44451e-05
0.00844394
5.15766e-05
0.00851851
8.82816e-05
0.00880108
0.000338191
0.00963134
0.000823441
0.0125867
0.0026613
0.0137963
0.00789866
0.0095481
0.0138624
0.00840003
7.03988e-13
0.00840003
7.06865e-12
0.00840003
1.76625e-11
0.00840003
6.38804e-11
0.00840003
1.26583e-10
0.00840003
3.93508e-10
0.00840003
7.4536e-10
0.00840003
2.23418e-09
0.00840004
4.19378e-09
0.00840004
1.24449e-08
0.00840006
2.33261e-08
0.00840008
6.90076e-08
0.00840022
1.29212e-07
0.00840032
3.82652e-07
0.0084011
7.1446e-07
0.00840161
2.14416e-06
0.00840626
3.91463e-06
0.0084081
1.25557e-05
0.00843826
2.14398e-05
0.00844663
7.96444e-05
0.00864628
0.000138544
0.0088894
0.000579433
0.0100107
0.00153869
0.0131665
0.00473813
0.00878351
0.0139283
0.00840003
5.99597e-13
0.00840003
3.56494e-12
0.00840003
1.30749e-11
0.00840003
3.38012e-11
0.00840003
9.18657e-11
0.00840003
2.10097e-10
0.00840003
5.36628e-10
0.00840003
1.19422e-09
0.00840003
3.00442e-09
0.00840004
6.64164e-09
0.00840005
1.66428e-08
0.00840008
3.67109e-08
0.00840011
9.19175e-08
0.00840029
2.02432e-07
0.0084005
5.07565e-07
0.00840153
1.11872e-06
0.00840261
2.82194e-06
0.00840893
6.23656e-06
0.00841405
1.62431e-05
0.00845789
3.58218e-05
0.00849534
0.000100749
0.00882709
0.000247435
0.00957072
0.000794111
0.0120324
0.00227368
0.00688603
0.0139256
0.00840003
4.18316e-13
0.00840003
2.27379e-12
0.00840003
8.38354e-12
0.00840003
2.16635e-11
0.00840003
5.86083e-11
0.00840003
1.34677e-10
0.00840003
3.41635e-10
0.00840003
7.64594e-10
0.00840003
1.90995e-09
0.00840003
4.24779e-09
0.00840004
1.05683e-08
0.00840005
2.3467e-08
0.00840009
5.83081e-08
0.00840016
1.29368e-07
0.00840035
3.21424e-07
0.00840075
7.12015e-07
0.00840179
1.77625e-06
0.00840411
3.91732e-06
0.00841029
1.00221e-05
0.00842455
2.1539e-05
0.00846398
6.10803e-05
0.00858231
0.000129043
0.00893107
0.000444394
0.0100133
0.00119028
0.00393961
0.0129533
0.00840003
3.28233e-13
0.00840003
1.22703e-12
0.00840003
5.86141e-12
0.00840003
1.22383e-11
0.00840003
4.04086e-11
0.00840003
7.68078e-11
0.00840003
2.34468e-10
0.00840003
4.37348e-10
0.00840003
1.30852e-09
0.00840003
2.4332e-09
0.00840004
7.23607e-09
0.00840005
1.34582e-08
0.00840006
3.99361e-08
0.00840012
7.42799e-08
0.00840022
2.20497e-07
0.00840052
4.09363e-07
0.00840107
1.22105e-06
0.00840273
2.25551e-06
0.0084059
6.83048e-06
0.00841487
1.25451e-05
0.00843648
3.93641e-05
0.00849031
7.50295e-05
0.00868591
0.000248243
0.00926033
0.000615248
0.0019912
0.011207
0.00840003
1.327e-13
0.00840003
9.39332e-13
0.00840003
2.94086e-12
0.00840003
8.73883e-12
0.00840003
2.07604e-11
0.00840003
5.39485e-11
0.00840003
1.21072e-10
0.00840003
3.04817e-10
0.00840003
6.75163e-10
0.00840003
1.68554e-09
0.00840004
3.72272e-09
0.00840004
9.26662e-09
0.00840006
2.04575e-08
0.00840008
5.08435e-08
0.00840019
1.1225e-07
0.00840032
2.78756e-07
0.00840092
6.15582e-07
0.00840164
1.53149e-06
0.00840509
3.37954e-06
0.00840906
8.52963e-06
0.00842964
1.87661e-05
0.00845456
4.98672e-05
0.00859042
0.00011226
0.00887142
0.000333225
0.000925354
0.00993628
0.00840003
5.71887e-14
0.00840003
6.51857e-13
0.00840003
1.61288e-12
0.00840003
5.8168e-12
0.00840003
1.15469e-11
0.00840003
3.54997e-11
0.00840003
6.74928e-11
0.00840003
1.99577e-10
0.00840003
3.76009e-10
0.00840003
1.09982e-09
0.00840003
2.06898e-09
0.00840004
6.02851e-09
0.00840005
1.13403e-08
0.00840006
3.29878e-08
0.00840011
6.20118e-08
0.00840021
1.80428e-07
0.00840049
3.38223e-07
0.00840103
9.87873e-07
0.00840256
1.84066e-06
0.00840561
5.45641e-06
0.00841432
1.0037e-05
0.00843327
3.07954e-05
0.00848672
5.86626e-05
0.00863417
0.000185125
0.000453273
0.0091061
0.00840003
6.28521e-14
0.00840003
2.7512e-13
0.00840003
1.21815e-12
0.00840003
2.68301e-12
0.00840003
8.4319e-12
0.00840003
1.67026e-11
0.00840003
4.87491e-11
0.00840003
9.44162e-11
0.00840003
2.70292e-10
0.00840003
5.21053e-10
0.00840003
1.48295e-09
0.00840003
2.85714e-09
0.00840004
8.11279e-09
0.00840006
1.56329e-08
0.00840007
4.43476e-08
0.00840017
8.54319e-08
0.00840026
2.42516e-07
0.00840078
4.66715e-07
0.00840129
1.33061e-06
0.00840418
2.55561e-06
0.00840682
7.36897e-06
0.00842335
1.42407e-05
0.00843972
4.21339e-05
0.0085397
8.49673e-05
0.000268187
0.00872409
0.00840003
2.7403e-14
0.00840003
1.92665e-13
0.00840003
6.02966e-13
0.00840003
1.79054e-12
0.00840003
4.24658e-12
0.00840003
1.10136e-11
0.00840003
2.46511e-11
0.00840003
6.18772e-11
0.00840003
1.36587e-10
0.00840003
3.39845e-10
0.00840003
7.47656e-10
0.00840003
1.8549e-09
0.00840004
4.07785e-09
0.00840004
1.01024e-08
0.00840006
2.22085e-08
0.00840009
5.49621e-08
0.00840022
1.20836e-07
0.00840038
2.98884e-07
0.00840105
6.57387e-07
0.00840197
1.62871e-06
0.00840575
3.581e-06
0.00841093
9.00805e-06
0.00843337
1.96679e-05
0.0084654
5.26388e-05
0.000115801
0.00861764
0.00840003
1.12498e-14
0.00840003
1.27065e-13
0.00840003
3.17659e-13
0.00840003
1.13407e-12
0.00840003
2.26923e-12
0.00840003
6.89465e-12
0.00840003
1.31953e-11
0.00840003
3.85254e-11
0.00840003
7.29968e-11
0.00840003
2.10768e-10
0.00840003
3.98513e-10
0.00840003
1.14635e-09
0.00840003
2.16691e-09
0.00840004
6.22258e-09
0.00840005
1.1761e-08
0.00840007
3.37481e-08
0.00840013
6.37217e-08
0.00840024
1.83007e-07
0.00840055
3.44517e-07
0.00840118
9.93739e-07
0.0084029
1.85942e-06
0.00840644
5.43644e-06
0.00841598
1.01004e-05
0.00843824
3.02228e-05
5.87741e-05
0.00849508
0.00840003
1.13865e-14
0.00840003
5.15468e-14
0.00840003
2.25913e-13
0.00840003
4.99209e-13
0.00840003
1.55987e-12
0.00840003
3.08731e-12
0.00840003
8.95911e-12
0.00840003
1.73e-11
0.00840003
4.92502e-11
0.00840003
9.44987e-11
0.00840003
2.67611e-10
0.00840003
5.12461e-10
0.00840003
1.44898e-09
0.00840004
2.772e-09
0.00840004
7.83446e-09
0.00840006
1.49729e-08
0.00840008
4.23312e-08
0.00840018
8.07749e-08
0.0084003
2.28755e-07
0.00840085
4.35553e-07
0.00840146
1.23972e-06
0.00840454
2.35287e-06
0.00840781
6.78312e-06
0.00842506
1.29303e-05
3.82852e-05
0.00844531
0.00840003
3.50935e-15
0.00840003
3.71532e-14
0.00840003
9.18693e-14
0.00840003
3.32358e-13
0.00840003
6.52311e-13
0.00840003
2.01478e-12
0.00840003
3.75855e-12
0.00840003
1.117e-11
0.00840003
2.05315e-11
0.00840003
6.04718e-11
0.00840003
1.10414e-10
0.00840003
3.24904e-10
0.00840003
5.90336e-10
0.00840003
1.7396e-09
0.00840004
3.14566e-09
0.00840004
9.2908e-09
0.00840007
1.67113e-08
0.0084001
4.95107e-08
0.00840024
8.84837e-08
0.00840041
2.63473e-07
0.00840118
4.67154e-07
0.00840211
1.40471e-06
0.00840641
2.46011e-06
0.00841162
7.62448e-06
1.2965e-05
0.00843684
0.00840003
2.83088e-15
0.00840003
1.53302e-14
0.00840003
5.65553e-14
0.00840003
1.46194e-13
0.00840003
3.89698e-13
0.00840003
8.91659e-13
0.00840003
2.21417e-12
0.00840003
4.91792e-12
0.00840003
1.19593e-11
0.00840003
2.63526e-11
0.00840003
6.35455e-11
0.00840003
1.39753e-10
0.00840003
3.35169e-10
0.00840003
7.36995e-10
0.00840003
1.75843e-09
0.00840004
3.86829e-09
0.00840005
9.17605e-09
0.00840007
2.02012e-08
0.00840011
4.75923e-08
0.00840027
1.04872e-07
0.00840049
2.45107e-07
0.00840134
5.40158e-07
0.0084025
1.25436e-06
0.00840733
2.75094e-06
6.43154e-06
0.00841359
0.00840003
2.31455e-15
0.00840003
5.07333e-15
0.00840003
3.61072e-14
0.00840003
5.50886e-14
0.00840003
2.44283e-13
0.00840003
3.4132e-13
0.00840003
1.38519e-12
0.00840003
1.8584e-12
0.00840003
7.50868e-12
0.00840003
9.72715e-12
0.00840003
4.01789e-11
0.00840003
5.01444e-11
0.00840003
2.14049e-10
0.00840003
2.56267e-10
0.00840003
1.13828e-09
0.00840003
1.3001e-09
0.00840004
6.05143e-09
0.00840005
6.53976e-09
0.00840006
3.2238e-08
0.00840014
3.24633e-08
0.0084002
1.72634e-07
0.00840058
1.54653e-07
0.00840083
9.50493e-07
0.00840293
6.09298e-07
5.67459e-06
0.00840338
0.00840003
6.64806e-16
0.00840003
3.68103e-15
0.00840003
1.325e-14
0.00840003
3.53104e-14
0.00840003
9.08335e-14
0.00840003
2.12542e-13
0.00840003
5.11207e-13
0.00840003
1.1437e-12
0.00840003
2.72271e-12
0.00840003
5.93439e-12
0.00840003
1.42321e-11
0.00840003
3.02863e-11
0.00840003
7.37822e-11
0.00840003
1.52692e-10
0.00840003
3.80475e-10
0.00840003
7.59852e-10
0.00840004
1.95309e-09
0.00840004
3.72046e-09
0.00840006
9.98704e-09
0.00840007
1.78797e-08
0.00840019
5.10148e-08
0.00840024
8.89344e-08
0.00840091
2.59316e-07
0.00840093
4.60659e-07
1.37753e-06
0.00840518
0.00840003
1.76725e-16
0.00840003
2.6695e-15
0.00840003
6.93743e-15
0.00840003
2.28868e-14
0.00840003
4.87423e-14
0.00840003
1.36262e-13
0.00840003
2.74493e-13
0.00840003
7.47381e-13
0.00840003
1.45937e-12
0.00840003
4.01012e-12
0.00840003
7.61339e-12
0.00840003
2.14197e-11
0.00840003
3.94316e-11
0.00840003
1.14626e-10
0.00840003
2.03562e-10
0.00840003
6.16509e-10
0.00840003
1.04961e-09
0.00840003
3.33659e-09
0.00840004
5.39674e-09
0.00840003
1.80683e-08
0.00840005
2.70121e-08
0.00840003
9.05604e-08
0.00840014
1.25549e-07
0.00840005
4.13435e-07
2.16099e-07
0.00840111
0.00840003
-4.0438e-16
0.00840003
2.75723e-15
0.00840003
2.79697e-16
0.00840003
2.07862e-14
0.00840003
3.45617e-15
0.00840003
1.21541e-13
0.00840003
1.4031e-14
0.00840003
6.70543e-13
0.00840003
1.68061e-14
0.00840003
3.64194e-12
0.00840003
-3.01737e-13
0.00840003
1.9691e-11
0.00840003
-3.96585e-12
0.00840003
1.06304e-10
0.00840003
-3.50397e-11
0.00840003
5.74115e-10
0.00840003
-2.70726e-10
0.00840003
3.11373e-09
0.00840004
-1.98947e-09
0.00840004
1.70933e-08
0.00840008
-1.55497e-08
0.00840005
9.96479e-08
0.00840031
-1.5746e-07
0.00839985
7.40874e-07
-1.84721e-06
0.00840184
0.00840003
7.819e-16
0.00840003
-1.28451e-15
0.00840003
5.45915e-15
0.00840003
-5.56722e-15
0.00840003
3.3595e-14
0.00840003
-2.90146e-14
0.00840003
1.92631e-13
0.00840003
-1.70015e-13
0.00840003
1.09428e-12
0.00840003
-1.00419e-12
0.00840003
6.22447e-12
0.00840003
-5.87502e-12
0.00840003
3.55503e-11
0.00840003
-3.38836e-11
0.00840003
2.04309e-10
0.00840003
-1.92912e-10
0.00840003
1.18667e-09
0.00840003
-1.0956e-09
0.00840002
7.01617e-09
0.00840005
-6.38783e-09
0.00839998
4.27305e-08
0.00840012
-4.58454e-08
0.0083996
3.06997e-07
0.00840089
-5.22732e-07
2.59403e-06
0.00839599
0.00840003
0.00840003
0.00840003
0.00840003
0.00840003
0.00840003
0.00840003
0.00840003
0.00840003
0.00840003
0.00840003
0.00840003
0.00840003
0.00840003
0.00840003
0.00840003
0.00840003
0.00840003
0.00840004
0.00840003
0.00840007
0.0084
0.00840028
0.0083996
0.00840206
0.00456456
0.00418622
0.00275587
0.00176187
0.00169515
0.00102961
0.000837455
0.000705377
-0.000438323
0.00123401
-0.00118456
0.000674731
-0.00173963
0.000544027
-0.00208727
0.000351285
-0.00231963
0.000222888
-0.00244855
0.000122706
-0.00249776
4.59137e-05
-0.00252777
2.75818e-05
-0.00256515
3.81451e-05
-0.00261527
5.49381e-05
-0.00267443
6.39019e-05
-0.00273409
6.42175e-05
-0.00279112
6.27314e-05
-0.00284836
6.1634e-05
-0.0029043
5.95044e-05
-0.00295701
5.77331e-05
-0.00300613
5.35646e-05
-0.00304577
4.50317e-05
-0.00307827
3.75094e-05
-0.00311488
3.96608e-05
-0.00314636
3.50127e-05
-0.0031682
2.52133e-05
-0.00318129
1.48137e-05
-0.00317959
-1.3855e-06
-0.00315175
-2.92653e-05
-0.00308266
-7.16677e-05
-0.00297132
-0.00011484
-0.00282003
-0.000155255
-0.00263288
-0.000191119
-0.00241424
-0.000222685
-0.00217124
-0.000246393
-0.00191512
-0.000259695
-0.00164948
-0.000268527
-0.00138318
-0.000269213
-0.0011082
-0.000278235
-0.00083182
-0.000279274
-0.000558367
-0.000276256
-0.000283572
-0.000277502
6.09361e-06
-0.000292071
0.000273434
-0.00026962
0.000523456
-0.00025204
0.000763875
-0.000242304
0.000995344
-0.000233169
0.00121656
-0.000222828
0.0014274
-0.000212298
0.00162799
-0.000202015
0.00182266
-0.000196027
0.00201398
-0.000192726
0.0021971
-0.000184508
0.00236989
-0.000174234
0.00253388