/*--------------------------------*- C++ -*----------------------------------*\
| =========                 |                                                 |
| \\      /  F ield         | OpenFOAM: The Open Source CFD Toolbox           |
|  \\    /   O peration     | Version:  2412                                  |
|   \\  /    A nd           | Website:  www.openfoam.com                      |
|    \\/     M anipulation  |                                                 |
\*---------------------------------------------------------------------------*/
FoamFile
{
    version     2.0;
    format      ascii;
    arch        "LSB;label=32;scalar=64";
    class       volVectorField;
    location    "5";
    object      U;
}
// * * * * * * * * * * * * * * * * * * * * * * * * * * * * * * * * * * * * * //

dimensions      [0 1 -1 0 0 0 0];

internalField   nonuniform List<vector> 
5250
(
(3 1.1041e-08 0)
(2.99999 8.57215e-08 0)
(2.99996 2.63549e-07 0)
(2.99991 7.99041e-07 0)
(2.99976 1.87697e-06 0)
(2.99948 5.19143e-06 0)
(2.99859 1.09303e-05 0)
(2.99708 3.36678e-05 0)
(2.99116 6.37738e-05 0)
(2.98193 0.000228141 0)
(2.94386 0.000451516 0)
(2.86 0.00157077 0)
(2.60956 0.00371729 0)
(1.80624 0.0121253 0)
(0.867696 0.030577 0)
(0.429355 0.0271575 0)
(0.52062 0.0262159 0)
(0.542499 0.0275674 0)
(0.484001 0.0290359 0)
(0.391793 0.0306724 0)
(0.309468 0.0325482 0)
(0.243338 0.0345358 0)
(0.176642 0.0363855 0)
(0.102836 0.0381088 0)
(0.0426896 0.0395774 0)
(3 3.27743e-08 0)
(2.99999 2.54423e-07 0)
(2.99996 7.81815e-07 0)
(2.99991 2.36919e-06 0)
(2.99977 5.55105e-06 0)
(2.99949 1.54346e-05 0)
(2.99861 3.19983e-05 0)
(2.99713 0.000101533 0)
(2.99132 0.000185932 0)
(2.98225 0.00070035 0)
(2.94492 0.00136433 0)
(2.86291 0.0048532 0)
(2.61749 0.0115455 0)
(1.82912 0.0376629 0)
(0.880703 0.0929908 0)
(0.425885 0.0776887 0)
(0.521227 0.0711127 0)
(0.544809 0.0724231 0)
(0.486347 0.0742706 0)
(0.39448 0.0767817 0)
(0.312186 0.0793457 0)
(0.245527 0.0817413 0)
(0.177994 0.0835236 0)
(0.102979 0.0844869 0)
(0.0417532 0.0837044 0)
(3 5.36678e-08 0)
(2.99999 4.16748e-07 0)
(2.99996 1.28018e-06 0)
(2.99991 3.88026e-06 0)
(2.99977 9.08487e-06 0)
(2.99951 2.53252e-05 0)
(2.99866 5.21749e-05 0)
(2.99721 0.000167907 0)
(2.99166 0.000301188 0)
(2.98292 0.00116914 0)
(2.94716 0.00225456 0)
(2.8691 0.00812722 0)
(2.63461 0.0194524 0)
(1.88046 0.0636692 0)
(0.912226 0.159439 0)
(0.424496 0.132127 0)
(0.527375 0.119475 0)
(0.55449 0.121944 0)
(0.496336 0.125815 0)
(0.404976 0.131436 0)
(0.322223 0.136442 0)
(0.254317 0.140956 0)
(0.185031 0.144747 0)
(0.107473 0.146992 0)
(0.0431785 0.145541 0)
(3 7.26581e-08 0)
(2.99999 5.64764e-07 0)
(2.99996 1.73478e-06 0)
(2.99992 5.2625e-06 0)
(2.99978 1.23445e-05 0)
(2.99953 3.43203e-05 0)
(2.99873 7.13257e-05 0)
(2.99733 0.000226481 0)
(2.99215 0.000408188 0)
(2.9839 0.00156825 0)
(2.95048 0.00302329 0)
(2.87827 0.0108602 0)
(2.66015 0.0260987 0)
(1.95935 0.0853441 0)
(0.963778 0.218494 0)
(0.429537 0.184689 0)
(0.541367 0.166594 0)
(0.573577 0.169966 0)
(0.51587 0.176065 0)
(0.424839 0.185679 0)
(0.340582 0.194018 0)
(0.270449 0.201525 0)
(0.198306 0.208253 0)
(0.116297 0.212817 0)
(0.0465211 0.211471 0)
(3 8.64991e-08 0)
(2.99999 6.72486e-07 0)
(2.99997 2.06613e-06 0)
(2.99992 6.26739e-06 0)
(2.9998 1.47347e-05 0)
(2.99956 4.07519e-05 0)
(2.99882 8.56615e-05 0)
(2.99749 0.000267284 0)
(2.99277 0.000480258 0)
(2.98512 0.00183776 0)
(2.9546 0.00353006 0)
(2.88965 0.0126367 0)
(2.69199 0.0306026 0)
(2.06046 0.0998066 0)
(1.03581 0.264586 0)
(0.448496 0.240267 0)
(0.565084 0.22002 0)
(0.602519 0.221384 0)
(0.545829 0.227646 0)
(0.455241 0.240648 0)
(0.368344 0.252526 0)
(0.294869 0.263689 0)
(0.218596 0.274336 0)
(0.130261 0.282485 0)
(0.0525209 0.28232 0)
(3 9.2013e-08 0)
(2.99999 7.14644e-07 0)
(2.99997 2.19741e-06 0)
(2.99993 6.64893e-06 0)
(2.99981 1.56856e-05 0)
(2.99959 4.26703e-05 0)
(2.99892 9.24225e-05 0)
(2.99766 0.000270422 0)
(2.99345 0.000516158 0)
(2.98646 0.00182584 0)
(2.95916 0.00351969 0)
(2.90229 0.0123677 0)
(2.72754 0.0305311 0)
(2.17867 0.0960725 0)
(1.14258 0.258711 0)
(0.507145 0.27941 0)
(0.607965 0.272951 0)
(0.644463 0.273681 0)
(0.588947 0.28062 0)
(0.498928 0.297697 0)
(0.407963 0.314187 0)
(0.329506 0.330008 0)
(0.247701 0.346053 0)
(0.15074 0.360108 0)
(0.0616872 0.363679 0)
(3 9.01818e-08 0)
(2.99999 6.97204e-07 0)
(2.99997 2.14572e-06 0)
(2.99993 6.4507e-06 0)
(2.99983 1.5224e-05 0)
(2.99962 4.05452e-05 0)
(2.99901 8.97979e-05 0)
(2.99785 0.000245243 0)
(2.99406 0.000497003 0)
(2.98764 0.00161442 0)
(2.96311 0.00303204 0)
(2.91346 0.0106045 0)
(2.75653 0.0267058 0)
(2.26766 0.0745012 0)
(1.25525 0.214831 0)
(0.547695 0.31038 0)
(0.631275 0.330623 0)
(0.670989 0.325911 0)
(0.626187 0.334027 0)
(0.543595 0.355573 0)
(0.452567 0.378912 0)
(0.371343 0.401421 0)
(0.285307 0.425151 0)
(0.179661 0.448586 0)
(0.0762725 0.461357 0)
(3 9.25793e-08 0)
(2.99999 7.13187e-07 0)
(2.99997 2.19677e-06 0)
(2.99994 6.5718e-06 0)
(2.99984 1.54855e-05 0)
(2.99965 4.0804e-05 0)
(2.99909 9.04571e-05 0)
(2.998 0.000240412 0)
(2.99459 0.00049384 0)
(2.98859 0.00152015 0)
(2.96643 0.00283793 0)
(2.92298 0.00969615 0)
(2.77642 0.0237423 0)
(2.34142 0.0636551 0)
(1.39033 0.191445 0)
(0.610082 0.355613 0)
(0.641333 0.384991 0)
(0.674388 0.377787 0)
(0.651399 0.388789 0)
(0.583408 0.412456 0)
(0.497971 0.444053 0)
(0.418045 0.476214 0)
(0.331498 0.511621 0)
(0.219685 0.550463 0)
(0.0993667 0.58452 0)
(3 1.09163e-07 0)
(2.99999 8.36846e-07 0)
(2.99998 2.58152e-06 0)
(2.99994 7.70535e-06 0)
(2.99986 1.82661e-05 0)
(2.99968 4.7886e-05 0)
(2.99917 0.000107606 0)
(2.99818 0.000275755 0)
(2.99512 0.000608527 0)
(2.98961 0.00159862 0)
(2.96975 0.00344136 0)
(2.93162 0.00953595 0)
(2.79782 0.0235077 0)
(2.41504 0.0653172 0)
(1.54313 0.179184 0)
(0.695813 0.397404 0)
(0.648492 0.419872 0)
(0.678123 0.420601 0)
(0.671075 0.439174 0)
(0.618753 0.466159 0)
(0.544957 0.50654 0)
(0.470844 0.551524 0)
(0.38937 0.602057 0)
(0.279667 0.666653 0)
(0.140183 0.747747 0)
(3 5.15647e-08 0)
(2.99999 1.33693e-06 0)
(2.99998 2.7183e-06 0)
(2.99995 1.18784e-05 0)
(2.99988 1.97265e-05 0)
(2.99972 7.63559e-05 0)
(2.99928 0.00010909 0)
(2.99842 0.000466715 0)
(2.99569 0.000503854 0)
(2.99096 0.00273619 0)
(2.97291 0.0019157 0)
(2.94029 0.0165679 0)
(2.81906 0.0116166 0)
(2.48143 0.0943044 0)
(1.68928 0.166052 0)
(0.791791 0.439204 0)
(0.652954 0.451823 0)
(0.685902 0.457235 0)
(0.691867 0.482031 0)
(0.653633 0.516097 0)
(0.595492 0.564178 0)
(0.531916 0.621938 0)
(0.465029 0.694665 0)
(0.377269 0.805413 0)
(0.215627 1.00678 0)
(3 9.44741e-08 0)
(2.99999 7.37558e-07 0)
(2.99998 2.26909e-06 0)
(2.99996 6.85977e-06 0)
(2.99991 1.62678e-05 0)
(2.99976 4.33042e-05 0)
(2.9995 9.78599e-05 0)
(2.99851 0.000253475 0)
(2.997 0.000570234 0)
(2.9908 0.00148762 0)
(2.98091 0.0032662 0)
(2.94035 0.00944285 0)
(2.85099 0.022165 0)
(2.57936 0.0651463 0)
(1.75628 0.189198 0)
(0.913288 0.472571 0)
(0.659164 0.480379 0)
(0.697568 0.488904 0)
(0.716946 0.516914 0)
(0.691626 0.558764 0)
(0.649246 0.612891 0)
(0.605785 0.681661 0)
(0.573837 0.775205 0)
(0.569389 0.917819 0)
(0.601354 1.15476 0)
(3 1.37891e-07 0)
(2.99999 1.31948e-07 0)
(2.99998 1.80418e-06 0)
(2.99996 1.74325e-06 0)
(2.99991 1.25446e-05 0)
(2.99979 9.32494e-06 0)
(2.99945 8.35351e-05 0)
(2.99881 3.67913e-05 0)
(2.99671 0.000599346 0)
(2.9932 0.00029435 0)
(2.97953 0.00434303 0)
(2.95593 0.00284178 0)
(2.86493 0.0313162 0)
(2.62875 0.0472725 0)
(2.0213 0.194066 0)
(1.04038 0.514691 0)
(0.678901 0.518409 0)
(0.718678 0.5252 0)
(0.748612 0.548598 0)
(0.734752 0.59334 0)
(0.707526 0.651564 0)
(0.687361 0.727451 0)
(0.691999 0.829718 0)
(0.748862 0.97023 0)
(0.886361 1.1505 0)
(3 7.48908e-08 0)
(3 5.84963e-07 0)
(2.99999 1.79681e-06 0)
(2.99997 5.45471e-06 0)
(2.99992 1.28661e-05 0)
(2.99982 3.46745e-05 0)
(2.99952 7.7201e-05 0)
(2.99894 0.000211225 0)
(2.99722 0.000435989 0)
(2.99392 0.00138715 0)
(2.98314 0.00250504 0)
(2.96291 0.00960975 0)
(2.89158 0.0184734 0)
(2.7071 0.071338 0)
(2.22952 0.175226 0)
(1.20505 0.519091 0)
(0.730193 0.558211 0)
(0.755616 0.572588 0)
(0.788664 0.583209 0)
(0.785564 0.623613 0)
(0.770658 0.682412 0)
(0.770468 0.758437 0)
(0.801377 0.855649 0)
(0.885125 0.973623 0)
(1.0458 1.08923 0)
(3 8.16298e-08 0)
(3 6.37135e-07 0)
(2.99999 1.95785e-06 0)
(2.99997 5.93718e-06 0)
(2.99993 1.40835e-05 0)
(2.99984 3.7782e-05 0)
(2.9996 8.53242e-05 0)
(2.99911 0.000224719 0)
(2.99769 0.000501633 0)
(2.99493 0.00132908 0)
(2.98631 0.00299558 0)
(2.96945 0.00813092 0)
(2.91384 0.0187425 0)
(2.77349 0.0562869 0)
(2.40234 0.143389 0)
(1.40313 0.433406 0)
(0.825909 0.579981 0)
(0.807074 0.613951 0)
(0.830793 0.62379 0)
(0.84134 0.654471 0)
(0.83709 0.707966 0)
(0.849126 0.777724 0)
(0.893884 0.860645 0)
(0.985166 0.952104 0)
(1.14027 1.02816 0)
(3 7.80295e-08 0)
(3 6.08283e-07 0)
(2.99999 1.87132e-06 0)
(2.99998 5.66174e-06 0)
(2.99994 1.34475e-05 0)
(2.99987 3.58864e-05 0)
(2.99968 8.11886e-05 0)
(2.99929 0.000210656 0)
(2.99814 0.000478676 0)
(2.996 0.00119977 0)
(2.98877 0.00284824 0)
(2.97623 0.00678401 0)
(2.92984 0.017051 0)
(2.81916 0.0436332 0)
(2.51387 0.115705 0)
(1.60248 0.331249 0)
(0.929418 0.614756 0)
(0.843483 0.65182 0)
(0.863464 0.667321 0)
(0.88697 0.685719 0)
(0.897608 0.729223 0)
(0.918998 0.788944 0)
(0.969688 0.856805 0)
(1.06007 0.925913 0)
(1.20136 0.97896 0)
(3 6.55175e-08 0)
(3 5.07425e-07 0)
(2.99999 1.56321e-06 0)
(2.99998 4.69988e-06 0)
(2.99996 1.11424e-05 0)
(2.9999 2.94652e-05 0)
(2.99975 6.63162e-05 0)
(2.99945 0.000171361 0)
(2.99852 0.000379742 0)
(2.99691 0.000995084 0)
(2.99093 0.00214822 0)
(2.98143 0.00600388 0)
(2.94324 0.0130247 0)
(2.86013 0.038719 0)
(2.61202 0.0981712 0)
(1.83557 0.293881 0)
(1.08691 0.653897 0)
(0.875511 0.683867 0)
(0.888258 0.699611 0)
(0.920484 0.70973 0)
(0.948378 0.744233 0)
(0.979013 0.793882 0)
(1.0323 0.849517 0)
(1.11817 0.902614 0)
(1.24395 0.941243 0)
(3 5.41026e-08 0)
(3 4.17546e-07 0)
(2.99999 1.28677e-06 0)
(2.99999 3.85676e-06 0)
(2.99996 9.11995e-06 0)
(2.99992 2.40366e-05 0)
(2.9998 5.37675e-05 0)
(2.99955 0.000139945 0)
(2.99882 0.000300315 0)
(2.99748 0.00084086 0)
(2.99291 0.00164791 0)
(2.98538 0.00540302 0)
(2.95597 0.0104997 0)
(2.89414 0.0359195 0)
(2.70534 0.085038 0)
(2.10453 0.272453 0)
(1.28964 0.671805 0)
(0.933213 0.716203 0)
(0.924999 0.725713 0)
(0.95562 0.730954 0)
(0.994803 0.754064 0)
(1.03161 0.794298 0)
(1.0853 0.840179 0)
(1.16543 0.882391 0)
(1.27653 0.911953 0)
(3 4.73936e-08 0)
(3 3.66202e-07 0)
(3 1.1287e-06 0)
(2.99999 3.38906e-06 0)
(2.99997 8.03749e-06 0)
(2.99994 2.12318e-05 0)
(2.99984 4.77915e-05 0)
(2.99965 0.000123489 0)
(2.9991 0.000273226 0)
(2.99803 0.000721207 0)
(2.99471 0.00153086 0)
(2.98886 0.00445136 0)
(2.9678 0.00903972 0)
(2.92558 0.0283662 0)
(2.79276 0.069251 0)
(2.38806 0.207056 0)
(1.58286 0.566153 0)
(1.05501 0.725515 0)
(0.992615 0.748414 0)
(1.00528 0.757899 0)
(1.04401 0.767931 0)
(1.08393 0.796801 0)
(1.13446 0.833141 0)
(1.2068 0.866548 0)
(1.3042 0.88934 0)
(3 2.61357e-08 0)
(3 3.46618e-07 0)
(3 8.54564e-07 0)
(2.99999 3.1136e-06 0)
(2.99998 6.19841e-06 0)
(2.99995 1.94362e-05 0)
(2.99988 3.70863e-05 0)
(2.99974 0.000113309 0)
(2.99932 0.000210724 0)
(2.99853 0.000664249 0)
(2.99601 0.00112733 0)
(2.99167 0.00406495 0)
(2.9754 0.00568056 0)
(2.94636 0.0252011 0)
(2.84012 0.0396057 0)
(2.55237 0.158008 0)
(1.87708 0.379702 0)
(1.17236 0.741088 0)
(1.04123 0.774524 0)
(1.0453 0.78891 0)
(1.08327 0.790322 0)
(1.12963 0.805283 0)
(1.17914 0.831134 0)
(1.24411 0.856488 0)
(1.32919 0.873409 0)
(3 1.91328e-08 0)
(3 2.58075e-07 0)
(3 6.31857e-07 0)
(2.99999 2.31477e-06 0)
(2.99999 4.57021e-06 0)
(2.99996 1.43759e-05 0)
(2.99992 2.71543e-05 0)
(2.9998 8.314e-05 0)
(2.99956 0.000154544 0)
(2.9988 0.000480305 0)
(2.99754 0.000855816 0)
(2.99267 0.00292695 0)
(2.98502 0.00460482 0)
(2.9546 0.0191844 0)
(2.89025 0.0311134 0)
(2.69224 0.124649 0)
(2.10756 0.311677 0)
(1.36819 0.754858 0)
(1.09372 0.806776 0)
(1.08334 0.816765 0)
(1.11516 0.814599 0)
(1.16675 0.816382 0)
(1.21863 0.832298 0)
(1.27828 0.850466 0)
(1.35302 0.862754 0)
(3 3.57583e-08 0)
(3 1.31528e-07 0)
(3 6.19366e-07 0)
(3 1.30842e-06 0)
(2.99999 4.28873e-06 0)
(2.99997 8.21213e-06 0)
(2.99994 2.51678e-05 0)
(2.99984 4.67377e-05 0)
(2.99965 0.000144871 0)
(2.99911 0.000253657 0)
(2.99805 0.00087759 0)
(2.9948 0.00135014 0)
(2.98894 0.00570355 0)
(2.96871 0.00821925 0)
(2.92683 0.0372132 0)
(2.79961 0.0705925 0)
(2.415 0.25241 0)
(1.66789 0.631337 0)
(1.20787 0.807703 0)
(1.14523 0.833268 0)
(1.1574 0.839119 0)
(1.20402 0.833132 0)
(1.25694 0.838164 0)
(1.31167 0.848606 0)
(1.37729 0.856106 0)
(3 2.22141e-08 0)
(3 1.21136e-07 0)
(3 4.50072e-07 0)
(3 1.15516e-06 0)
(2.99999 3.17006e-06 0)
(2.99998 7.26424e-06 0)
(2.99995 1.87877e-05 0)
(2.9999 4.19918e-05 0)
(2.99973 0.000107419 0)
(2.99941 0.000238174 0)
(2.99845 0.00061346 0)
(2.99668 0.00133954 0)
(2.99077 0.0035992 0)
(2.98029 0.00764946 0)
(2.94364 0.0216272 0)
(2.85716 0.0530393 0)
(2.61554 0.143935 0)
(1.93319 0.436133 0)
(1.34621 0.788292 0)
(1.19974 0.842781 0)
(1.19603 0.862881 0)
(1.23414 0.85815 0)
(1.28898 0.85063 0)
(1.34212 0.851723 0)
(1.40094 0.853872 0)
(3 1.30726e-08 0)
(3 1.01565e-07 0)
(3 3.12831e-07 0)
(3 9.41957e-07 0)
(2.99999 2.23379e-06 0)
(2.99999 5.90898e-06 0)
(2.99997 1.3312e-05 0)
(2.99992 3.43175e-05 0)
(2.99982 7.63634e-05 0)
(2.99953 0.000196802 0)
(2.99897 0.000434201 0)
(2.99729 0.00114684 0)
(2.9942 0.00245371 0)
(2.98366 0.00691451 0)
(2.9645 0.0150735 0)
(2.8973 0.0423926 0)
(2.72848 0.116033 0)
(2.27465 0.307729 0)
(1.53338 0.773062 0)
(1.26354 0.863533 0)
(1.23691 0.882771 0)
(1.25864 0.882469 0)
(1.31039 0.868224 0)
(1.36702 0.8602 0)
(1.42345 0.856848 0)
(3 1.29836e-08 0)
(3 6.9665e-08 0)
(3 2.60365e-07 0)
(3 6.67519e-07 0)
(3 1.84217e-06 0)
(2.99999 4.22303e-06 0)
(2.99998 1.09958e-05 0)
(2.99995 2.46154e-05 0)
(2.99987 6.34057e-05 0)
(2.99971 0.000141088 0)
(2.99924 0.00036389 0)
(2.99836 0.00080821 0)
(2.99558 0.00211527 0)
(2.99077 0.00462689 0)
(2.97324 0.0127258 0)
(2.9403 0.0289186 0)
(2.82984 0.0818467 0)
(2.52754 0.230193 0)
(1.86469 0.59808 0)
(1.37589 0.858299 0)
(1.29067 0.890159 0)
(1.29287 0.900469 0)
(1.33296 0.888185 0)
(1.38905 0.871766 0)
(1.44448 0.863334 0)
(3 5.05459e-09 0)
(3 5.84385e-08 0)
(3 1.51783e-07 0)
(3 5.28419e-07 0)
(3 1.09601e-06 0)
(2.99999 3.28317e-06 0)
(2.99998 6.51903e-06 0)
(2.99996 1.89074e-05 0)
(2.99991 3.71126e-05 0)
(2.99978 0.000107265 0)
(2.99952 0.000208864 0)
(2.99875 0.000614609 0)
(2.99738 0.00115779 0)
(2.99251 0.00368845 0)
(2.98464 0.0064117 0)
(2.9545 0.0231468 0)
(2.89238 0.044012 0)
(2.69902 0.148981 0)
(2.14415 0.405288 0)
(1.55823 0.829098 0)
(1.35025 0.899266 0)
(1.33082 0.913713 0)
(1.35302 0.907028 0)
(1.40544 0.886675 0)
(1.46324 0.872024 0)
(3 7.69659e-09 0)
(3 3.15384e-08 0)
(3 1.38359e-07 0)
(3 3.10142e-07 0)
(3 9.61797e-07 0)
(3 1.95284e-06 0)
(2.99999 5.64813e-06 0)
(2.99997 1.12086e-05 0)
(2.99994 3.19716e-05 0)
(2.99985 6.28478e-05 0)
(2.99967 0.000180754 0)
(2.99915 0.000346471 0)
(2.99814 0.00105427 0)
(2.99515 0.00187123 0)
(2.98946 0.00651758 0)
(2.97147 0.010822 0)
(2.93299 0.0413803 0)
(2.82042 0.0821004 0)
(2.47993 0.284664 0)
(1.85041 0.673913 0)
(1.45989 0.876614 0)
(1.38934 0.909499 0)
(1.38856 0.91851 0)
(1.42682 0.903828 0)
(1.48141 0.881013 0)
(3 4.56479e-09 0)
(3 2.48892e-08 0)
(3 9.23437e-08 0)
(3 2.36985e-07 0)
(3 6.48397e-07 0)
(3 1.48474e-06 0)
(2.99999 3.82201e-06 0)
(2.99998 8.53948e-06 0)
(2.99996 2.1689e-05 0)
(2.99991 4.8152e-05 0)
(2.99976 0.000122092 0)
(2.99947 0.000270122 0)
(2.99865 0.000688742 0)
(2.99705 0.00151265 0)
(2.99212 0.00395815 0)
(2.98304 0.00858521 0)
(2.95287 0.0234783 0)
(2.88345 0.0562134 0)
(2.68626 0.155248 0)
(2.13643 0.449682 0)
(1.60935 0.837709 0)
(1.44561 0.908907 0)
(1.42645 0.926161 0)
(1.44577 0.920673 0)
(1.49461 0.896482 0)
(3 2.42103e-09 0)
(3 1.87866e-08 0)
(3 5.78964e-08 0)
(3 1.73921e-07 0)
(3 4.12219e-07 0)
(3 1.08527e-06 0)
(3 2.44204e-06 0)
(2.99999 6.25041e-06 0)
(2.99997 1.38966e-05 0)
(2.99993 3.53876e-05 0)
(2.99985 7.83853e-05 0)
(2.99962 0.000200044 0)
(2.99917 0.000441733 0)
(2.99787 0.00113896 0)
(2.99535 0.00250478 0)
(2.98766 0.00665159 0)
(2.97255 0.0146967 0)
(2.92528 0.039828 0)
(2.80929 0.105239 0)
(2.4888 0.280406 0)
(1.8472 0.72373 0)
(1.53007 0.895175 0)
(1.47184 0.926597 0)
(1.47333 0.934608 0)
(1.51004 0.918577 0)
(3 2.48065e-09 0)
(3 1.04586e-08 0)
(3 4.50271e-08 0)
(3 1.02758e-07 0)
(3 3.13797e-07 0)
(3 6.48161e-07 0)
(3 1.84568e-06 0)
(2.99999 3.73237e-06 0)
(2.99998 1.04594e-05 0)
(2.99996 2.10351e-05 0)
(2.9999 5.88212e-05 0)
(2.99978 0.000117889 0)
(2.99943 0.000331396 0)
(2.99877 0.000659567 0)
(2.99671 0.00189267 0)
(2.99318 0.00370196 0)
(2.98048 0.0111607 0)
(2.95804 0.022155 0)
(2.87869 0.0686239 0)
(2.67639 0.168798 0)
(2.18616 0.473573 0)
(1.66361 0.859267 0)
(1.52206 0.929342 0)
(1.5046 0.944923 0)
(1.52262 0.938825 0)
(3 8.86169e-10 0)
(3 9.18732e-09 0)
(3 2.49143e-08 0)
(3 8.31779e-08 0)
(3 1.78482e-07 0)
(3 5.13893e-07 0)
(3 1.05385e-06 0)
(3 2.93318e-06 0)
(2.99999 5.95536e-06 0)
(2.99997 1.64402e-05 0)
(2.99993 3.32501e-05 0)
(2.99985 9.18248e-05 0)
(2.99962 0.000184712 0)
(2.99917 0.000518001 0)
(2.99789 0.00100813 0)
(2.99538 0.00305218 0)
(2.98787 0.00543496 0)
(2.97291 0.0188213 0)
(2.92723 0.0334627 0)
(2.81323 0.121351 0)
(2.51485 0.282435 0)
(1.90963 0.730566 0)
(1.6079 0.908295 0)
(1.54788 0.942298 0)
(1.54718 0.950703 0)
(3 6.07469e-10 0)
(3 6.16185e-09 0)
(3 1.68264e-08 0)
(3 5.58149e-08 0)
(3 1.20396e-07 0)
(3 3.44944e-07 0)
(3 7.10968e-07 0)
(3 1.97067e-06 0)
(2.99999 4.0231e-06 0)
(2.99998 1.10628e-05 0)
(2.99996 2.25298e-05 0)
(2.9999 6.1894e-05 0)
(2.99978 0.000125747 0)
(2.99945 0.000346859 0)
(2.99882 0.000700984 0)
(2.99688 0.00196505 0)
(2.99352 0.00391214 0)
(2.98152 0.0114404 0)
(2.96051 0.0232236 0)
(2.88593 0.0699087 0)
(2.69944 0.172127 0)
(2.246 0.473825 0)
(1.74565 0.864425 0)
(1.59896 0.940454 0)
(1.57763 0.957003 0)
(3 7.06268e-10 0)
(3 3.10608e-09 0)
(3 1.30141e-08 0)
(3 3.02602e-08 0)
(3 9.03197e-08 0)
(3 1.89483e-07 0)
(3 5.27132e-07 0)
(3 1.08179e-06 0)
(3 2.95776e-06 0)
(2.99999 6.03828e-06 0)
(2.99997 1.64364e-05 0)
(2.99994 3.34538e-05 0)
(2.99986 9.11593e-05 0)
(2.99965 0.000184562 0)
(2.99924 0.000510445 0)
(2.99806 0.00100158 0)
(2.99575 0.00297879 0)
(2.98899 0.00538563 0)
(2.97525 0.0182185 0)
(2.93491 0.0327586 0)
(2.83479 0.116466 0)
(2.57292 0.271843 0)
(2.00449 0.704394 0)
(1.69343 0.902325 0)
(1.62499 0.945732 0)
(3 3.99192e-10 0)
(3 2.17361e-09 0)
(3 8.05346e-09 0)
(3 2.0663e-08 0)
(3 5.63186e-08 0)
(3 1.2875e-07 0)
(3 3.29559e-07 0)
(3 7.34496e-07 0)
(3 1.85277e-06 0)
(2.99999 4.10452e-06 0)
(2.99998 1.03194e-05 0)
(2.99996 2.28149e-05 0)
(2.99991 5.73632e-05 0)
(2.9998 0.000126591 0)
(2.99951 0.000319244 0)
(2.99893 0.000702379 0)
(2.99718 0.00178873 0)
(2.99414 0.00392764 0)
(2.98337 0.0101616 0)
(2.96468 0.0233587 0)
(2.89887 0.0610407 0)
(2.73811 0.161818 0)
(2.33468 0.419689 0)
(1.83507 0.837231 0)
(1.6754 0.933647 0)
(3 1.55741e-10 0)
(3 1.55098e-09 0)
(3 4.27189e-09 0)
(3 1.40604e-08 0)
(3 3.05128e-08 0)
(3 8.65738e-08 0)
(3 1.79222e-07 0)
(3 4.91115e-07 0)
(3 1.00607e-06 0)
(3 2.73161e-06 0)
(2.99999 5.58116e-06 0)
(2.99998 1.51155e-05 0)
(2.99995 3.0821e-05 0)
(2.99987 8.35645e-05 0)
(2.99972 0.000169747 0)
(2.99928 0.000466011 0)
(2.99844 0.000924605 0)
(2.99595 0.00269098 0)
(2.99141 0.00502002 0)
(2.97665 0.0162891 0)
(2.94729 0.0305975 0)
(2.85811 0.102174 0)
(2.61444 0.25173 0)
(2.12806 0.63751 0)
(1.78189 0.889366 0)
(3 1.55898e-10 0)
(3 8.41891e-10 0)
(3 3.12182e-09 0)
(3 8.00404e-09 0)
(3 2.17852e-08 0)
(3 4.97434e-08 0)
(3 1.26994e-07 0)
(3 2.82521e-07 0)
(3 7.10185e-07 0)
(3 1.56992e-06 0)
(2.99999 3.93058e-06 0)
(2.99999 8.67075e-06 0)
(2.99997 2.16911e-05 0)
(2.99992 4.77647e-05 0)
(2.99982 0.000119634 0)
(2.99956 0.000262842 0)
(2.99903 0.000663193 0)
(2.99755 0.00144146 0)
(2.9947 0.00377295 0)
(2.98591 0.00789755 0)
(2.96966 0.0221837 0)
(2.91644 0.0490737 0)
(2.78414 0.14213 0)
(2.45293 0.369672 0)
(1.96218 0.782168 0)
(3 1.11159e-10 0)
(3 5.08931e-10 0)
(3 2.08414e-09 0)
(3 4.92409e-09 0)
(3 1.44358e-08 0)
(3 3.06953e-08 0)
(3 8.39097e-08 0)
(3 1.74426e-07 0)
(3 4.68654e-07 0)
(3 9.69675e-07 0)
(3 2.59264e-06 0)
(2.99999 5.36086e-06 0)
(2.99998 1.43086e-05 0)
(2.99995 2.95761e-05 0)
(2.99989 7.894e-05 0)
(2.99974 0.000162885 0)
(2.99942 0.000436306 0)
(2.99854 0.000895399 0)
(2.9968 0.00244259 0)
(2.99187 0.00490153 0)
(2.98167 0.0143214 0)
(2.95286 0.0279576 0)
(2.88396 0.088051 0)
(2.69948 0.2074 0)
(2.24011 0.569701 0)
(3 6.77851e-11 0)
(3 3.11207e-10 0)
(3 1.27102e-09 0)
(3 3.01125e-09 0)
(3 8.80391e-09 0)
(3 1.87637e-08 0)
(3 5.11364e-08 0)
(3 1.06513e-07 0)
(3 2.85252e-07 0)
(3 5.91246e-07 0)
(3 1.5757e-06 0)
(3 3.26308e-06 0)
(2.99999 8.68295e-06 0)
(2.99997 1.79721e-05 0)
(2.99993 4.78354e-05 0)
(2.99986 9.88647e-05 0)
(2.99964 0.000263963 0)
(2.99922 0.000543985 0)
(2.99804 0.00146425 0)
(2.99576 0.00301822 0)
(2.98899 0.00824311 0)
(2.9759 0.0174331 0)
(2.93625 0.0484069 0)
(2.84086 0.114717 0)
(2.58457 0.320338 0)
(3 2.44072e-11 0)
(3 2.31151e-10 0)
(3 6.50817e-10 0)
(3 2.09323e-09 0)
(3 4.61952e-09 0)
(3 1.28219e-08 0)
(3 2.69433e-08 0)
(3 7.22169e-08 0)
(3 1.50063e-07 0)
(3 3.98457e-07 0)
(3 8.25877e-07 0)
(3 2.18608e-06 0)
(2.99999 4.52777e-06 0)
(2.99998 1.19693e-05 0)
(2.99996 2.47661e-05 0)
(2.99992 6.54743e-05 0)
(2.99979 0.000135163 0)
(2.99954 0.000358466 0)
(2.99886 0.000735731 0)
(2.99751 0.00198038 0)
(2.99367 0.00400577 0)
(2.98602 0.011226 0)
(2.96394 0.0228268 0)
(2.91295 0.0661201 0)
(2.77447 0.157197 0)
(3 1.72124e-11 0)
(3 1.32038e-10 0)
(3 4.07778e-10 0)
(3 1.21218e-09 0)
(3 2.86934e-09 0)
(3 7.44209e-09 0)
(3 1.66791e-08 0)
(3 4.19061e-08 0)
(3 9.27012e-08 0)
(3 2.31027e-07 0)
(3 5.09376e-07 0)
(3 1.26649e-06 0)
(3 2.78951e-06 0)
(2.99999 6.93044e-06 0)
(2.99998 1.52512e-05 0)
(2.99995 3.78977e-05 0)
(2.99989 8.32634e-05 0)
(2.99972 0.000207299 0)
(2.9994 0.000454397 0)
(2.99848 0.00113966 0)
(2.99667 0.00248394 0)
(2.9916 0.00634566 0)
(2.981 0.0140874 0)
(2.95162 0.0364046 0)
(2.88173 0.0899691 0)
(3 1.40089e-11 0)
(3 6.42745e-11 0)
(3 2.61292e-10 0)
(3 6.22415e-10 0)
(3 1.80661e-09 0)
(3 3.86664e-09 0)
(3 1.04444e-08 0)
(3 2.18226e-08 0)
(3 5.78692e-08 0)
(3 1.20239e-07 0)
(3 3.1716e-07 0)
(3 6.58215e-07 0)
(3 1.73295e-06 0)
(2.99999 3.5952e-06 0)
(2.99999 9.46023e-06 0)
(2.99997 1.96119e-05 0)
(2.99993 5.16518e-05 0)
(2.99985 0.000106922 0)
(2.99964 0.000282713 0)
(2.9992 0.000583247 0)
(2.99801 0.00155651 0)
(2.99569 0.00322362 0)
(2.98885 0.00867932 0)
(2.97579 0.0186224 0)
(2.93613 0.0503716 0)
(3 4.98811e-12 0)
(3 4.63749e-11 0)
(3 1.31512e-10 0)
(3 4.20052e-10 0)
(3 9.30888e-10 0)
(3 2.56358e-09 0)
(3 5.40269e-09 0)
(3 1.43559e-08 0)
(3 2.98955e-08 0)
(3 7.86716e-08 0)
(3 1.63355e-07 0)
(3 4.28532e-07 0)
(3 8.89178e-07 0)
(3 2.32929e-06 0)
(2.99999 4.83137e-06 0)
(2.99998 1.2647e-05 0)
(2.99996 2.6209e-05 0)
(2.99992 6.86249e-05 0)
(2.99979 0.00014191 0)
(2.99955 0.000372707 0)
(2.99887 0.000766507 0)
(2.99753 0.00204245 0)
(2.9938 0.00413686 0)
(2.98618 0.0115084 0)
(2.96494 0.0232432 0)
(3 3.26901e-12 0)
(3 2.52058e-11 0)
(3 7.78423e-11 0)
(3 2.30811e-10 0)
(3 5.46116e-10 0)
(3 1.41008e-09 0)
(3 3.15561e-09 0)
(3 7.8838e-09 0)
(3 1.74031e-08 0)
(3 4.31012e-08 0)
(3 9.48014e-08 0)
(3 2.34172e-07 0)
(3 5.14508e-07 0)
(3 1.26961e-06 0)
(3 2.78793e-06 0)
(2.99999 6.87667e-06 0)
(2.99998 1.50878e-05 0)
(2.99995 3.72277e-05 0)
(2.99989 8.15508e-05 0)
(2.99972 0.000201646 0)
(2.9994 0.000440701 0)
(2.9985 0.00109672 0)
(2.99671 0.00239485 0)
(2.99174 0.00602564 0)
(2.98138 0.013508 0)
(3 2.20182e-12 0)
(3 1.21084e-11 0)
(3 4.46103e-11 0)
(3 1.14448e-10 0)
(3 3.08933e-10 0)
(3 7.03242e-10 0)
(3 1.77338e-09 0)
(3 3.9239e-09 0)
(3 9.71971e-09 0)
(3 2.13455e-08 0)
(3 5.25923e-08 0)
(3 1.1524e-07 0)
(3 2.83357e-07 0)
(3 6.20298e-07 0)
(3 1.5236e-06 0)
(2.99999 3.3324e-06 0)
(2.99999 8.18141e-06 0)
(2.99997 1.78702e-05 0)
(2.99993 4.3898e-05 0)
(2.99984 9.57159e-05 0)
(2.99962 0.000235849 0)
(2.99916 0.00051278 0)
(2.9979 0.00127259 0)
(2.99544 0.00278805 0)
(2.98833 0.00692583 0)
(3 7.10734e-13 0)
(3 7.57906e-12 0)
(3 2.01368e-11 0)
(3 6.77862e-11 0)
(3 1.42036e-10 0)
(3 4.09156e-10 0)
(3 8.13359e-10 0)
(3 2.25821e-09 0)
(3 4.41215e-09 0)
(3 1.21566e-08 0)
(3 2.35306e-08 0)
(3 6.48756e-08 0)
(3 1.24574e-07 0)
(3 3.44634e-07 0)
(3 6.56117e-07 0)
(3 1.82387e-06 0)
(2.99999 3.43729e-06 0)
(2.99998 9.61549e-06 0)
(2.99995 1.78883e-05 0)
(2.99988 5.05005e-05 0)
(2.99975 9.23012e-05 0)
(2.99936 0.00026465 0)
(2.9986 0.000470068 0)
(2.99644 0.00139761 0)
(2.9923 0.00233484 0)
(3 7.90435e-13 0)
(3 2.75714e-12 0)
(3 1.32158e-11 0)
(3 2.75349e-11 0)
(3 8.96813e-11 0)
(3 1.68813e-10 0)
(3 5.08234e-10 0)
(3 9.2569e-10 0)
(3 2.74739e-09 0)
(3 4.91174e-09 0)
(3 1.46371e-08 0)
(3 2.57465e-08 0)
(3 7.75255e-08 0)
(3 1.34064e-07 0)
(3 4.09187e-07 0)
(3 6.94241e-07 0)
(2.99999 2.15406e-06 0)
(2.99998 3.57308e-06 0)
(2.99996 1.13212e-05 0)
(2.99991 1.82309e-05 0)
(2.99979 5.94734e-05 0)
(2.99947 9.08471e-05 0)
(2.99884 0.000316372 0)
(2.997 0.000412108 0)
(2.99347 0.00175425 0)
(3 4.36843e-13 0)
(3 1.10586e-12 0)
(3 6.77483e-12 0)
(3 1.16366e-11 0)
(3 4.55832e-11 0)
(3 7.12679e-11 0)
(3 2.56944e-10 0)
(3 3.83378e-10 0)
(3 1.3809e-09 0)
(3 1.97701e-09 0)
(3 7.31141e-09 0)
(3 1.00061e-08 0)
(3 3.84869e-08 0)
(3 4.99986e-08 0)
(3 2.01978e-07 0)
(3 2.46733e-07 0)
(2.99999 1.05817e-06 0)
(2.99999 1.19926e-06 0)
(2.99997 5.54637e-06 0)
(2.99992 5.70295e-06 0)
(2.99981 2.92209e-05 0)
(2.99958 2.60358e-05 0)
(2.99887 0.000156738 0)
(2.99764 9.64761e-05 0)
(2.99314 0.00092111 0)
(3 1.08999e-13 0)
(3 9.04884e-13 0)
(3 2.76902e-12 0)
(3 8.1438e-12 0)
(3 1.91198e-11 0)
(3 4.85486e-11 0)
(3 1.07588e-10 0)
(3 2.62902e-10 0)
(3 5.73124e-10 0)
(3 1.3832e-09 0)
(3 2.99822e-09 0)
(3 7.20214e-09 0)
(3 1.55754e-08 0)
(3 3.73213e-08 0)
(3 8.06409e-08 0)
(3 1.92789e-07 0)
(2.99999 4.1688e-07 0)
(2.99999 9.926e-07 0)
(2.99997 2.15379e-06 0)
(2.99993 5.07857e-06 0)
(2.99981 1.10762e-05 0)
(2.99958 2.51219e-05 0)
(2.9989 5.7822e-05 0)
(2.99763 0.000112121 0)
(2.99333 0.000282092 0)
(3 -8.01399e-14 0)
(3 8.85327e-13 0)
(3 5.00999e-13 0)
(3 7.04959e-12 0)
(3 4.15885e-12 0)
(3 4.15284e-11 0)
(3 2.20786e-11 0)
(3 2.29428e-10 0)
(3 1.01522e-10 0)
(3 1.24675e-09 0)
(3 4.23095e-10 0)
(3 6.74968e-09 0)
(3 1.54335e-09 0)
(3 3.65482e-08 0)
(3 4.11571e-09 0)
(3 1.98332e-07 0)
(2.99999 -2.0932e-09 0)
(2.99999 1.0814e-06 0)
(2.99997 -1.6374e-07 0)
(2.99993 5.94474e-06 0)
(2.99982 -2.09109e-06 0)
(2.99962 3.33983e-05 0)
(2.99894 -2.78348e-05 0)
(2.99783 0.000217797 0)
(2.99343 -0.000405051 0)
(3 5.86692e-14 0)
(3 1.47748e-13 0)
(3 5.29761e-13 0)
(3 1.43979e-12 0)
(3 3.42855e-12 0)
(3 8.46515e-12 0)
(3 1.8658e-11 0)
(3 4.45482e-11 0)
(3 9.65001e-11 0)
(3 2.27615e-10 0)
(3 4.8986e-10 0)
(3 1.14735e-09 0)
(3 2.46157e-09 0)
(3 5.73544e-09 0)
(3 1.22813e-08 0)
(3 2.84763e-08 0)
(2.99999 6.09184e-08 0)
(2.99999 1.40282e-07 0)
(2.99997 2.99888e-07 0)
(2.99992 6.7986e-07 0)
(2.99983 1.45932e-06 0)
(2.99956 3.09074e-06 0)
(2.99905 7.11872e-06 0)
(2.99732 1.20043e-05 0)
(2.99447 2.932e-05 0)
(3 1.69798e-13 0)
(3 -3.39682e-13 0)
(3 1.19806e-12 0)
(3 -2.07922e-12 0)
(3 7.53522e-12 0)
(3 -1.17493e-11 0)
(3 4.40499e-11 0)
(3 -6.62873e-11 0)
(3 2.55861e-10 0)
(3 -3.70115e-10 0)
(3 1.49048e-09 0)
(3 -2.04759e-09 0)
(3 8.72086e-09 0)
(3 -1.12075e-08 0)
(3 5.1336e-08 0)
(3 -6.06796e-08 0)
(2.99999 3.05377e-07 0)
(2.99999 -3.27139e-07 0)
(2.99997 1.84942e-06 0)
(2.99993 -1.79837e-06 0)
(2.99982 1.15288e-05 0)
(2.99962 -1.21757e-05 0)
(2.99895 8.45889e-05 0)
(2.99785 -0.000137086 0)
(2.99345 0.000715781 0)
(1.2553 1.05984 0)
(1.54996 0.843307 0)
(1.36193 0.54995 0)
(0.626158 0.293767 0)
(-0.0787466 0.303674 0)
(-0.304079 0.0798615 0)
(-0.51377 0.0121779 0)
(-0.678784 -0.0139439 0)
(-0.789129 -0.0276005 0)
(-0.841675 -0.0306409 0)
(-0.864358 -0.0208656 0)
(-0.876918 -0.0077089 0)
(-0.890646 0.00258399 0)
(-0.910268 0.00897432 0)
(-0.934309 0.0115324 0)
(-0.959741 0.0108922 0)
(-0.985451 0.00880505 0)
(-1.01177 0.00656 0)
(-1.03845 0.00474286 0)
(-1.0649 0.00338277 0)
(-1.09083 0.00203814 0)
(-1.11669 0.000701786 0)
(-1.14267 0.00038785 0)
(-1.16268 0.00177616 0)
(-1.17323 0.00199403 0)
(-1.17843 0.00138943 0)
(-1.17736 0.000480432 0)
(-1.16288 -0.00155971 0)
(-1.12841 -0.00542351 0)
(-1.07386 -0.0103043 0)
(-1.00306 -0.0150009 0)
(-0.92139 -0.0190873 0)
(-0.83325 -0.0223771 0)
(-0.741968 -0.0249213 0)
(-0.650563 -0.0267322 0)
(-0.561592 -0.0279247 0)
(-0.476362 -0.0291316 0)
(-0.395724 -0.0306062 0)
(-0.316295 -0.033669 0)
(-0.241172 -0.0349332 0)
(-0.16917 -0.0351902 0)
(-0.0995794 -0.0367315 0)
(-0.0354876 -0.0416913 0)
(0.0393595 -0.0350968 0)
(0.0977686 -0.0311813 0)
(0.156412 -0.0297397 0)
(0.210986 -0.028464 0)
(0.262827 -0.0270496 0)
(0.311113 -0.0255855 0)
(0.356342 -0.024295 0)
(0.4027 -0.0237787 0)
(0.449928 -0.0237809 0)
(0.494898 -0.0228183 0)
(0.53758 -0.0215387 0)
(0.578629 -0.0204722 0)
(0.618228 -0.0194858 0)
(0.656592 -0.0186153 0)
(0.693716 -0.017737 0)
(0.729727 -0.0169268 0)
(0.764619 -0.0161176 0)
(0.798491 -0.0153688 0)
(0.831342 -0.0146284 0)
(0.863247 -0.013941 0)
(0.894208 -0.013268 0)
(0.924282 -0.0126437 0)
(0.953467 -0.0120391 0)
(0.981807 -0.0114807 0)
(1.0093 -0.0109463 0)
(1.03596 -0.0104571 0)
(1.06178 -0.00999715 0)
(1.08678 -0.00958502 0)
(1.11091 -0.00920999 0)
(1.13417 -0.00888588 0)
(1.15651 -0.00860971 0)
(1.17788 -0.00839527 0)
(1.19822 -0.00824072 0)
(1.21748 -0.00815172 0)
(1.23559 -0.0081338 0)
(1.25245 -0.00819146 0)
(1.268 -0.00832712 0)
(1.28213 -0.00853553 0)
(1.29466 -0.00880197 0)
(1.30529 -0.00908096 0)
(1.31478 -0.00939597 0)
(1.3238 -0.00974186 0)
(1.33192 -0.0101125 0)
(1.33857 -0.0104668 0)
(1.34399 -0.0106596 0)
(1.34889 -0.0106771 0)
(1.35362 -0.0105151 0)
(1.35853 -0.0101628 0)
(1.36398 -0.00962503 0)
(1.37037 -0.0089599 0)
(1.37785 -0.00819031 0)
(1.38587 -0.00737209 0)
(1.3941 -0.00648182 0)
(1.40276 -0.00552293 0)
(1.41165 -0.0045346 0)
(1.41913 -0.0034099 0)
(1.42863 -0.00241478 0)
(1.3302 0.978165 0)
(1.54635 0.69626 0)
(1.50496 0.448156 0)