/*--------------------------------*- C++ -*----------------------------------*\
| =========                 |                                                 |
| \\      /  F ield         | OpenFOAM: The Open Source CFD Toolbox           |
|  \\    /   O peration     | Version:  2412                                  |
|   \\  /    A nd           | Website:  www.openfoam.com                      |
|    \\/     M anipulation  |                                                 |
\*---------------------------------------------------------------------------*/
FoamFile
{
    version     2.0;
    format      ascii;
    arch        "LSB;label=32;scalar=64";
    class       surfaceScalarField;
    location    "0.0999";
    object      phi;
}
// * * * * * * * * * * * * * * * * * * * * * * * * * * * * * * * * * * * * * //

dimensions      [1 0 -1 0 0 0 0];

oriented        oriented;

internalField   nonuniform List<scalar> 
29750
(
13.8651
1.33227e-15
13.8651
4.55191e-15
13.8651
1.13243e-14
13.8651
2.33147e-14
13.8651
4.54081e-14
13.8651
8.67084e-14
13.8651
1.61093e-13
13.8651
2.96208e-13
13.8651
5.42233e-13
13.8651
9.90541e-13
13.8651
1.80889e-12
13.8651
3.30236e-12
13.8651
6.03007e-12
13.8651
1.10194e-11
13.8651
2.01565e-11
13.8651
3.69108e-11
13.8651
6.7672e-11
13.8651
1.24224e-10
13.8651
2.28341e-10
13.8651
4.20319e-10
13.8651
7.74865e-10
13.8651
1.43077e-09
13.8651
2.64642e-09
13.8651
4.90385e-09
13.8651
9.10412e-09
13.8651
1.69358e-08
13.8651
3.15709e-08
13.8651
5.89907e-08
13.8651
1.10496e-07
13.8651
2.07489e-07
13.8651
3.90603e-07
13.8651
7.37358e-07
13.8651
1.3963e-06
13.8651
2.65292e-06
13.8651
5.05697e-06
13.8651
9.66648e-06
13.8651
1.85401e-05
13.865
3.57006e-05
13.865
6.91096e-05
13.8648
0.000134163
13.8646
0.000261478
13.8641
0.000510252
13.8631
0.00100457
13.8611
0.0019831
13.8572
0.00396494
13.8494
0.00785654
13.8342
0.0158642
13.8028
0.031733
13.733
0.0672507
0.137724
13.5955
13.8651
2.77556e-15
13.8651
8.65974e-15
13.8651
2.07612e-14
13.8651
4.30767e-14
13.8651
8.31557e-14
13.8651
1.56541e-13
13.8651
2.911e-13
13.8651
5.36238e-13
13.8651
9.80771e-13
13.8651
1.78735e-12
13.8651
3.2524e-12
13.8651
5.91605e-12
13.8651
1.07631e-11
13.8651
1.9588e-11
13.8651
3.56692e-11
13.8651
6.49931e-11
13.8651
1.18519e-10
13.8651
2.16295e-10
13.8651
3.95096e-10
13.8651
7.22319e-10
13.8651
1.32184e-09
13.8651
2.42115e-09
13.8651
4.43935e-09
13.8651
8.14775e-09
13.8651
1.49703e-08
13.8651
2.75333e-08
13.8651
5.06961e-08
13.8651
9.34427e-08
13.8651
1.7244e-07
13.8651
3.18562e-07
13.8651
5.8919e-07
13.8651
1.09081e-06
13.8651
2.02195e-06
13.8651
3.75204e-06
13.8651
6.97114e-06
13.8651
1.29623e-05
13.8651
2.41239e-05
13.8651
4.49313e-05
13.8651
8.37987e-05
13.8651
0.000156407
13.865
0.000292085
13.865
0.000545111
13.865
0.00101777
13.8651
0.00190215
13.8655
0.00356163
13.8667
0.00665833
13.8703
0.0124193
13.8789
0.0231346
13.9028
0.0433012
0.0814118
13.9577
13.8651
2.66454e-15
13.8651
1.02141e-14
13.8651
2.57572e-14
13.8651
5.42899e-14
13.8651
1.07025e-13
13.8651
2.02172e-13
13.8651
3.75477e-13
13.8651
6.88893e-13
13.8651
1.25511e-12
13.8651
2.27918e-12
13.8651
4.13092e-12
13.8651
7.47913e-12
13.8651
1.35366e-11
13.8651
2.44978e-11
13.8651
4.43436e-11
13.8651
8.0293e-11
13.8651
1.45446e-10
13.8651
2.63572e-10
13.8651
4.77854e-10
13.8651
8.66713e-10
13.8651
1.57275e-09
13.8651
2.85509e-09
13.8651
5.18535e-09
13.8651
9.42118e-09
13.8651
1.71245e-08
13.8651
3.11373e-08
13.8651
5.66373e-08
13.8651
1.03049e-07
13.8651
1.87548e-07
13.8651
3.41404e-07
13.8651
6.21597e-07
13.8651
1.13179e-06
13.8651
2.06071e-06
13.8651
3.75159e-06
13.8651
6.82893e-06
13.8651
1.24262e-05
13.8651
2.25989e-05
13.8651
4.10646e-05
13.8651
7.45491e-05
13.8652
0.000135195
13.8652
0.00024485
13.8653
0.000442552
13.8655
0.000797722
13.866
0.00143368
13.867
0.0025688
13.869
0.00458703
13.8733
0.00814671
13.8821
0.0143662
13.9003
0.0251098
0.0435262
13.9382
13.8651
4.55191e-15
13.8651
1.28786e-14
13.8651
2.90878e-14
13.8651
6.01741e-14
13.8651
1.18017e-13
13.8651
2.23377e-13
13.8651
4.12115e-13
13.8651
7.51288e-13
13.8651
1.36136e-12
13.8651
2.45781e-12
13.8651
4.42901e-12
13.8651
7.97151e-12
13.8651
1.43384e-11
13.8651
2.57824e-11
13.8651
4.6357e-11
13.8651
8.33426e-11
13.8651
1.49848e-10
13.8651
2.69426e-10
13.8651
4.84471e-10
13.8651
8.7114e-10
13.8651
1.56649e-09
13.8651
2.81668e-09
13.8651
5.06453e-09
13.8651
9.10486e-09
13.8651
1.63667e-08
13.8651
2.94128e-08
13.8651
5.28464e-08
13.8651
9.49123e-08
13.8651
1.70398e-07
13.8651
3.05748e-07
13.8651
5.483e-07
13.8651
9.82509e-07
13.8651
1.75912e-06
13.8651
3.14622e-06
13.8651
5.6207e-06
13.8651
1.00275e-05
13.8651
1.78621e-05
13.8651
3.17573e-05
13.8652
5.63409e-05
13.8652
9.9708e-05
13.8653
0.000175983
13.8654
0.000309624
13.8656
0.000542685
13.8661
0.00094686
13.8671
0.0016436
13.8688
0.00283739
13.8721
0.00486707
13.8781
0.00828346
13.8892
0.0139541
0.0232227
13.9095
13.8651
3.88578e-15
13.8651
1.26565e-14
13.8651
2.93099e-14
13.8651
6.00631e-14
13.8651
1.16573e-13
13.8651
2.19824e-13
13.8651
4.04565e-13
13.8651
7.33524e-13
13.8651
1.32194e-12
13.8651
2.37477e-12
13.8651
4.25493e-12
13.8651
7.60991e-12
13.8651
1.35982e-11
13.8651
2.4284e-11
13.8651
4.33513e-11
13.8651
7.73631e-11
13.8651
1.38024e-10
13.8651
2.46173e-10
13.8651
4.3894e-10
13.8651
7.8238e-10
13.8651
1.39405e-09
13.8651
2.48286e-09
13.8651
4.42007e-09
13.8651
7.86442e-09
13.8651
1.39847e-08
13.8651
2.48508e-08
13.8651
4.41272e-08
13.8651
7.82882e-08
13.8651
1.38766e-07
13.8651
2.45695e-07
13.8651
4.34514e-07
13.8651
7.67412e-07
13.8651
1.35338e-06
13.8651
2.38277e-06
13.8651
4.18742e-06
13.8651
7.34363e-06
13.8651
1.28496e-05
13.8651
2.24258e-05
13.8652
3.9026e-05
13.8652
6.76926e-05
13.8652
0.000116993
13.8654
0.00020139
13.8656
0.000345103
13.8659
0.000588303
13.8666
0.000996914
13.8677
0.00167818
13.8698
0.00280407
13.8734
0.00464631
13.8797
0.0076209
0.0123534
13.8906
13.8651
3.77476e-15
13.8651
1.12133e-14
13.8651
2.69784e-14
13.8651
5.61773e-14
13.8651
1.07914e-13
13.8651
2.00506e-13
13.8651
3.66374e-13
13.8651
6.61915e-13
13.8651
1.18805e-12
13.8651
2.1213e-12
13.8651
3.77631e-12
13.8651
6.71019e-12
13.8651
1.19106e-11
13.8651
2.11233e-11
13.8651
3.74392e-11
13.8651
6.63154e-11
13.8651
1.17399e-10
13.8651
2.07704e-10
13.8651
3.67269e-10
13.8651
6.48984e-10
13.8651
1.14605e-09
13.8651
2.02225e-09
13.8651
3.56562e-09
13.8651
6.28113e-09
13.8651
1.10545e-08
13.8651
1.94346e-08
13.8651
3.41294e-08
13.8651
5.9859e-08
13.8651
1.04846e-07
13.8651
1.83366e-07
13.8651
3.20179e-07
13.8651
5.58066e-07
13.8651
9.70844e-07
13.8651
1.68532e-06
13.8651
2.91887e-06
13.8651
5.04233e-06
13.8651
8.68651e-06
13.8651
1.49185e-05
13.8651
2.55356e-05
13.8652
4.3546e-05
13.8652
7.39557e-05
13.8653
0.000125036
13.8654
0.000210347
13.8657
0.000351918
13.8661
0.000585132
13.8668
0.000966253
13.868
0.00158343
13.8701
0.00257302
13.8735
0.00414022
0.00659061
13.8793
13.8651
1.9984e-15
13.8651
9.4369e-15
13.8651
2.30926e-14
13.8651
4.66294e-14
13.8651
9.18154e-14
13.8651
1.71418e-13
13.8651
3.11973e-13
13.8651
5.61551e-13
13.8651
1.0022e-12
13.8651
1.77902e-12
13.8651
3.14904e-12
13.8651
5.56322e-12
13.8651
9.81215e-12
13.8651
1.7284e-11
13.8651
3.04159e-11
13.8651
5.34779e-11
13.8651
9.39517e-11
13.8651
1.64921e-10
13.8651
2.89261e-10
13.8651
5.06886e-10
13.8651
8.87423e-10
13.8651
1.55206e-09
13.8651
2.7116e-09
13.8651
4.73189e-09
13.8651
8.24727e-09
13.8651
1.43548e-08
13.8651
2.49499e-08
13.8651
4.32971e-08
13.8651
7.5012e-08
13.8651
1.29722e-07
13.8651
2.23902e-07
13.8651
3.85643e-07
13.8651
6.62725e-07
13.8651
1.13609e-06
13.8651
1.94242e-06
13.8651
3.31148e-06
13.8651
5.62796e-06
13.8651
9.53252e-06
13.8651
1.60869e-05
13.8652
2.70394e-05
13.8652
4.52514e-05
13.8652
7.53708e-05
13.8653
0.000124888
13.8655
0.000205765
13.8657
0.000336905
13.8661
0.000547885
13.8668
0.000884302
13.868
0.00141564
13.8699
0.00224502
0.00352487
13.8729
13.8651
2.9976e-15
13.8651
8.21565e-15
13.8651
1.88738e-14
13.8651
3.9746e-14
13.8651
7.56062e-14
13.8651
1.39444e-13
13.8651
2.53464e-13
13.8651
4.53859e-13
13.8651
8.05356e-13
13.8651
1.42275e-12
13.8651
2.504e-12
13.8651
4.39548e-12
13.8651
7.7014e-12
13.8651
1.34747e-11
13.8651
2.35485e-11
13.8651
4.1109e-11
13.8651
7.16925e-11
13.8651
1.24898e-10
13.8651
2.17365e-10
13.8651
3.77863e-10
13.8651
6.56135e-10
13.8651
1.13791e-09
13.8651
1.97094e-09
13.8651
3.409e-09
13.8651
5.8878e-09
13.8651
1.01528e-08
13.8651
1.74786e-08
13.8651
3.00357e-08
13.8651
5.15171e-08
13.8651
8.81797e-08
13.8651
1.50607e-07
13.8651
2.56626e-07
13.8651
4.3619e-07
13.8651
7.39396e-07
13.8651
1.24978e-06
13.8651
2.10592e-06
13.8651
3.5368e-06
13.8651
5.91862e-06
13.8651
9.86645e-06
13.8651
1.63792e-05
13.8652
2.70697e-05
13.8652
4.45215e-05
13.8652
7.2842e-05
13.8653
0.000118502
13.8655
0.000191597
13.8657
0.000307725
13.8661
0.000490663
13.8667
0.000776274
13.8678
0.00121731
0.00189127
13.8694
13.8651
2.10942e-15
13.8651
6.99441e-15
13.8651
1.62093e-14
13.8651
3.23075e-14
13.8651
6.05072e-14
13.8651
1.10134e-13
13.8651
1.98064e-13
13.8651
3.51941e-13
13.8651
6.21725e-13
13.8651
1.09213e-12
13.8651
1.91125e-12
13.8651
3.33467e-12
13.8651
5.80669e-12
13.8651
1.00944e-11
13.8651
1.75249e-11
13.8651
3.03851e-11
13.8651
5.26197e-11
13.8651
9.10112e-11
13.8651
1.57223e-10
13.8651
2.71254e-10
13.8651
4.67373e-10
13.8651
8.04152e-10
13.8651
1.38158e-09
13.8651
2.36992e-09
13.8651
4.05863e-09
13.8651
6.93841e-09
13.8651
1.18397e-08
13.8651
2.01633e-08
13.8651
3.42674e-08
13.8651
5.81076e-08
13.8651
9.83025e-08
13.8651
1.65883e-07
13.8651
2.7918e-07
13.8651
4.6852e-07
13.8651
7.83895e-07
13.8651
1.30732e-06
13.8651
2.17274e-06
13.8651
3.59774e-06
13.8651
5.9339e-06
13.8651
9.74577e-06
13.8651
1.59342e-05
13.8652
2.59262e-05
13.8652
4.19653e-05
13.8652
6.7548e-05
13.8653
0.000108071
13.8655
0.000171796
13.8657
0.000271198
13.866
0.000424954
13.8666
0.000660354
0.00101733
13.8675
13.8651
2.22045e-15
13.8651
5.44009e-15
13.8651
1.14353e-14
13.8651
2.33147e-14
13.8651
4.51861e-14
13.8651
8.31557e-14
13.8651
1.48992e-13
13.8651
2.64677e-13
13.8651
4.65183e-13
13.8651
8.12128e-13
13.8651
1.41165e-12
13.8651
2.4486e-12
13.8651
4.23794e-12
13.8651
7.32159e-12
13.8651
1.26292e-11
13.8651
2.1753e-11
13.8651
3.74175e-11
13.8651
6.42757e-11
13.8651
1.10262e-10
13.8651
1.88876e-10
13.8651
3.23068e-10
13.8651
5.51738e-10
13.8651
9.40755e-10
13.8651
1.6013e-09
13.8651
2.72081e-09
13.8651
4.61419e-09
13.8651
7.80972e-09
13.8651
1.31903e-08
13.8651
2.22288e-08
13.8651
3.73724e-08
13.8651
6.26777e-08
13.8651
1.0484e-07
13.8651
1.7488e-07
13.8651
2.90847e-07
13.8651
4.82212e-07
13.8651
7.96831e-07
13.8651
1.31211e-06
13.8651
2.15251e-06
13.8651
3.5172e-06
13.8651
5.72279e-06
13.8651
9.26968e-06
13.8651
1.4943e-05
13.8652
2.39657e-05
13.8652
3.82271e-05
13.8652
6.06185e-05
13.8653
9.55306e-05
13.8654
0.000149548
13.8656
0.000232468
13.8659
0.000358532
0.000548519
13.8664
13.8651
8.88178e-16
13.8651
3.88578e-15
13.8651
9.32587e-15
13.8651
1.84297e-14
13.8651
3.35287e-14
13.8651
6.12843e-14
13.8651
1.10134e-13
13.8651
1.94178e-13
13.8651
3.38507e-13
13.8651
5.86642e-13
13.8651
1.01341e-12
13.8651
1.74627e-12
13.8651
3.00537e-12
13.8651
5.16309e-12
13.8651
8.85259e-12
13.8651
1.51542e-11
13.8651
2.59042e-11
13.8651
4.42122e-11
13.8651
7.5345e-11
13.8651
1.28197e-10
13.8651
2.17777e-10
13.8651
3.69338e-10
13.8651
6.25297e-10
13.8651
1.05671e-09
13.8651
1.7824e-09
13.8651
3.00042e-09
13.8651
5.04026e-09
13.8651
8.44817e-09
13.8651
1.41276e-08
13.8651
2.35673e-08
13.8651
3.92138e-08
13.8651
6.50711e-08
13.8651
1.07671e-07
13.8651
1.77624e-07
13.8651
2.92094e-07
13.8651
4.78724e-07
13.8651
7.81822e-07
13.8651
1.27204e-06
13.8651
2.06144e-06
13.8651
3.3267e-06
13.8651
5.34472e-06
13.8651
8.5465e-06
13.8651
1.35981e-05
13.8652
2.15209e-05
13.8652
3.38672e-05
13.8652
5.2979e-05
13.8653
8.23478e-05
13.8654
0.000127143
13.8656
0.000194848
0.000296353
13.8658
13.8651
4.44089e-16
13.8651
1.88738e-15
13.8651
5.55112e-15
13.8651
1.19904e-14
13.8651
2.34257e-14
13.8651
4.34097e-14
13.8651
7.78266e-14
13.8651
1.36224e-13
13.8651
2.3781e-13
13.8651
4.11893e-13
13.8651
7.09655e-13
13.8651
1.21836e-12
13.8651
2.08444e-12
13.8651
3.55849e-12
13.8651
6.06659e-12
13.8651
1.03245e-11
13.8651
1.75405e-11
13.8651
2.97515e-11
13.8651
5.03847e-11
13.8651
8.51872e-11
13.8651
1.43787e-10
13.8651
2.42265e-10
13.8651
4.07453e-10
13.8651
6.83962e-10
13.8651
1.14586e-09
13.8651
1.91567e-09
13.8651
3.19574e-09
13.8651
5.31896e-09
13.8651
8.83182e-09
13.8651
1.46279e-08
13.8651
2.41644e-08
13.8651
3.98076e-08
13.8651
6.53887e-08
13.8651
1.07081e-07
13.8651
1.74797e-07
13.8651
2.84374e-07
13.8651
4.61007e-07
13.8651
7.44564e-07
13.8651
1.19781e-06
13.8651
1.91898e-06
13.8651
3.06094e-06
13.8651
4.85995e-06
13.8651
7.67877e-06
13.8651
1.20701e-05
13.8652
1.8869e-05
13.8652
2.93285e-05
13.8652
4.53076e-05
13.8653
6.95473e-05
13.8654
0.000106002
0.000160412
13.8655
13.8651
5.55112e-16
13.8651
1.77636e-15
13.8651
4.10783e-15
13.8651
8.32667e-15
13.8651
1.62093e-14
13.8651
2.95319e-14
13.8651
5.26246e-14
13.8651
9.31477e-14
13.8651
1.62981e-13
13.8651
2.81553e-13
13.8651
4.84279e-13
13.8651
8.29559e-13
13.8651
1.41409e-12
13.8651
2.40297e-12
13.8651
4.07441e-12
13.8651
6.89526e-12
13.8651
1.16487e-11
13.8651
1.96451e-11
13.8651
3.30742e-11
13.8651
5.55871e-11
13.8651
9.32587e-11
13.8651
1.56174e-10
13.8651
2.61041e-10
13.8651
4.35462e-10
13.8651
7.24946e-10
13.8651
1.20428e-09
13.8651
1.99612e-09
13.8651
3.30087e-09
13.8651
5.44523e-09
13.8651
8.95973e-09
13.8651
1.47035e-08
13.8651
2.4062e-08
13.8651
3.92624e-08
13.8651
6.38695e-08
13.8651
1.03567e-07
13.8651
1.67373e-07
13.8651
2.69539e-07
13.8651
4.32465e-07
13.8651
6.91184e-07
13.8651
1.10018e-06
13.8651
1.74369e-06
13.8651
2.75116e-06
13.8651
4.32018e-06
13.8651
6.75018e-06
13.8651
1.04913e-05
13.8652
1.62157e-05
13.8652
2.49168e-05
13.8652
3.80537e-05
13.8653
5.77256e-05
8.69736e-05
13.8653
13.8651
9.99201e-16
13.8651
1.77636e-15
13.8651
3.55271e-15
13.8651
7.10543e-15
13.8651
1.21014e-14
13.8651
2.08722e-14
13.8651
3.74145e-14
13.8651
6.4615e-14
13.8651
1.11133e-13
13.8651
1.90958e-13
13.8651
3.26517e-13
13.8651
5.55112e-13
13.8651
9.42024e-13
13.8651
1.59373e-12
13.8651
2.68874e-12
13.8651
4.52738e-12
13.8651
7.60914e-12
13.8651
1.2764e-11
13.8651
2.13713e-11
13.8651
3.57183e-11
13.8651
5.95876e-11
13.8651
9.92182e-11
13.8651
1.64886e-10
13.8651
2.73461e-10
13.8651
4.52582e-10
13.8651
7.47391e-10
13.8651
1.23145e-09
13.8651
2.02421e-09
13.8651
3.31916e-09
13.8651
5.4285e-09
13.8651
8.85464e-09
13.8651
1.44027e-08
13.8651
2.33587e-08
13.8651
3.77682e-08
13.8651
6.08726e-08
13.8651
9.77834e-08
13.8651
1.5653e-07
13.8651
2.49655e-07
13.8651
3.96666e-07
13.8651
6.27723e-07
13.8651
9.89213e-07
13.8651
1.55203e-06
13.8651
2.42386e-06
13.8651
3.76709e-06
13.8651
5.82481e-06
13.8651
8.95856e-06
13.8652
1.37007e-05
13.8652
2.08307e-05
13.8652
3.14673e-05
4.72283e-05
13.8652
13.8651
3.33067e-16
13.8651
8.88178e-16
13.8651
1.22125e-15
13.8651
2.44249e-15
13.8651
5.9952e-15
13.8651
1.27676e-14
13.8651
2.34257e-14
13.8651
4.24105e-14
13.8651
7.4607e-14
13.8651
1.27454e-13
13.8651
2.15938e-13
13.8651
3.66041e-13
13.8651
6.18283e-13
13.8651
1.04117e-12
13.8651
1.74927e-12
13.8651
2.93121e-12
13.8651
4.90019e-12
13.8651
8.17679e-12
13.8651
1.36202e-11
13.8651
2.26441e-11
13.8651
3.75764e-11
13.8651
6.2235e-11
13.8651
1.0287e-10
13.8651
1.69684e-10
13.8651
2.793e-10
13.8651
4.58707e-10
13.8651
7.51629e-10
13.8651
1.22867e-09
13.8651
2.0035e-09
13.8651
3.25852e-09
13.8651
5.28552e-09
13.8651
8.54947e-09
13.8651
1.37888e-08
13.8651
2.21715e-08
13.8651
3.55377e-08
13.8651
5.6774e-08
13.8651
9.03889e-08
13.8651
1.4339e-07
13.8651
2.26617e-07
13.8651
3.56747e-07
13.8651
5.59305e-07
13.8651
8.7312e-07
13.8651
1.35691e-06
13.8651
2.09885e-06
13.8651
3.23044e-06
13.8651
4.94657e-06
13.8651
7.53326e-06
13.8651
1.14083e-05
13.8652
1.71698e-05
2.56814e-05
13.8652
13.8651
2.22045e-16
13.8651
6.66134e-16
13.8651
1.9984e-15
13.8651
3.33067e-15
13.8651
6.10623e-15
13.8651
9.88098e-15
13.8651
1.64313e-14
13.8651
2.84217e-14
13.8651
4.86278e-14
13.8651
8.31557e-14
13.8651
1.41664e-13
13.8651
2.38587e-13
13.8651
4.00902e-13
13.8651
6.72351e-13
13.8651
1.12299e-12
13.8651
1.8725e-12
13.8651
3.11617e-12
13.8651
5.17519e-12
13.8651
8.57814e-12
13.8651
1.41922e-11
13.8651
2.34349e-11
13.8651
3.86188e-11
13.8651
6.35116e-11
13.8651
1.04232e-10
13.8651
1.70692e-10
13.8651
2.78902e-10
13.8651
4.54664e-10
13.8651
7.39406e-10
13.8651
1.1995e-09
13.8651
1.94084e-09
13.8651
3.132e-09
13.8651
5.04011e-09
13.8651
8.08732e-09
13.8651
1.29378e-08
13.8651
2.06327e-08
13.8651
3.27971e-08
13.8651
5.1957e-08
13.8651
8.20193e-08
13.8651
1.29e-07
13.8651
2.02113e-07
13.8651
3.15398e-07
13.8651
4.90128e-07
13.8651
7.58339e-07
13.8651
1.16797e-06
13.8651
1.79027e-06
13.8651
2.7305e-06
13.8651
4.14271e-06
13.8651
6.25138e-06
13.8651
9.37725e-06
1.39828e-05
13.8652
13.8651
-4.44089e-16
13.8651
3.33067e-16
13.8651
5.55112e-16
13.8651
1.55431e-15
13.8651
2.66454e-15
13.8651
5.77316e-15
13.8651
1.11022e-14
13.8651
1.90958e-14
13.8651
3.24185e-14
13.8651
5.4512e-14
13.8651
9.17044e-14
13.8651
1.53988e-13
13.8651
2.57017e-13
13.8651
4.28324e-13
13.8651
7.12319e-13
13.8651
1.18183e-12
13.8651
1.95866e-12
13.8651
3.2393e-12
13.8651
5.34606e-12
13.8651
8.80418e-12
13.8651
1.44696e-11
13.8651
2.37347e-11
13.8651
3.88514e-11
13.8651
6.34574e-11
13.8651
1.03424e-10
13.8651
1.68186e-10
13.8651
2.72866e-10
13.8651
4.41635e-10
13.8651
7.13022e-10
13.8651
1.14821e-09
13.8651
1.8441e-09
13.8651
2.95354e-09
13.8651
4.71691e-09
13.8651
7.51065e-09
13.8651
1.19222e-08
13.8651
1.88642e-08
13.8651
2.97489e-08
13.8651
4.67516e-08
13.8651
7.32074e-08
13.8651
1.14204e-07
13.8651
1.77463e-07
13.8651
2.74642e-07
13.8651
4.23233e-07
13.8651
6.49331e-07
13.8651
9.91588e-07
13.8651
1.50696e-06
13.8651
2.2786e-06
13.8651
3.42742e-06
13.8651
5.12585e-06
7.62221e-06
13.8651
13.8651
6.66134e-16
13.8651
5.55112e-16
13.8651
1.11022e-15
13.8651
2.44249e-15
13.8651
3.9968e-15
13.8651
6.55032e-15
13.8651
9.76996e-15
13.8651
1.4766e-14
13.8651
2.33147e-14
13.8651
3.73035e-14
13.8651
6.07292e-14
13.8651
1.00253e-13
13.8651
1.662e-13
13.8651
2.7367e-13
13.8651
4.51084e-13
13.8651
7.42739e-13
13.8651
1.22269e-12
13.8651
2.01172e-12
13.8651
3.30358e-12
13.8651
5.41578e-12
13.8651
8.86125e-12
13.8651
1.44689e-11
13.8651
2.35774e-11
13.8651
3.83408e-11
13.8651
6.22112e-11
13.8651
1.00714e-10
13.8651
1.6267e-10
13.8651
2.6211e-10
13.8651
4.21297e-10
13.8651
6.75426e-10
13.8651
1.07999e-09
13.8651
1.72215e-09
13.8651
2.73835e-09
13.8651
4.34139e-09
13.8651
6.86192e-09
13.8651
1.08115e-08
13.8651
1.69787e-08
13.8651
2.65732e-08
13.8651
4.14425e-08
13.8651
6.4395e-08
13.8651
9.9678e-08
13.8651
1.53681e-07
13.8651
2.35965e-07
13.8651
3.60744e-07
13.8651
5.49022e-07
13.8651
8.31668e-07
13.8651
1.25365e-06
13.8651
1.88022e-06
13.8651
2.80431e-06
4.15957e-06
13.8651
13.8651
-3.33067e-16
13.8651
-3.33067e-16
13.8651
-1.11022e-16
13.8651
6.66134e-16
13.8651
2.10942e-15
13.8651
2.88658e-15
13.8651
4.44089e-15
13.8651
7.32747e-15
13.8651
1.28786e-14
13.8651
2.25375e-14
13.8651
3.70814e-14
13.8651
6.19504e-14
13.8651
1.02696e-13
13.8651
1.68976e-13
13.8651
2.78111e-13
13.8651
4.59299e-13
13.8651
7.55063e-13
13.8651
1.2369e-12
13.8651
2.02371e-12
13.8651
3.30436e-12
13.8651
5.38514e-12
13.8651
8.75666e-12
13.8651
1.42095e-11
13.8651
2.30084e-11
13.8651
3.71763e-11
13.8651
5.99338e-11
13.8651
9.63999e-11
13.8651
1.54683e-10
13.8651
2.47596e-10
13.8651
3.95313e-10
13.8651
6.29505e-10
13.8651
9.99718e-10
13.8651
1.58321e-09
13.8651
2.49999e-09
13.8651
3.93581e-09
13.8651
6.17701e-09
13.8651
9.66325e-09
13.8651
1.50666e-08
13.8651
2.34102e-08
13.8651
3.62437e-08
13.8651
5.59036e-08
13.8651
8.58942e-08
13.8651
1.31443e-07
13.8651
2.00304e-07
13.8651
3.03902e-07
13.8651
4.58994e-07
13.8651
6.8994e-07
13.8651
1.03203e-06
13.8651
1.53544e-06
2.27227e-06
13.8651
13.8651
3.33067e-16
13.8651
1.11022e-16
13.8651
-2.22045e-16
13.8651
-3.33067e-16
13.8651
1.11022e-16
13.8651
7.77156e-16
13.8651
1.55431e-15
13.8651
3.77476e-15
13.8651
6.99441e-15
13.8651
1.22125e-14
13.8651
2.17604e-14
13.8651
3.64153e-14
13.8651
6.07292e-14
13.8651
1.02585e-13
13.8651
1.70752e-13
13.8651
2.80997e-13
13.8651
4.6152e-13
13.8651
7.55396e-13
13.8651
1.2309e-12
13.8651
2.00184e-12
13.8651
3.24984e-12
13.8651
5.26512e-12
13.8651
8.51008e-12
13.8651
1.37257e-11
13.8651
2.20907e-11
13.8651
3.54752e-11
13.8651
5.68369e-11
13.8651
9.08458e-11
13.8651
1.44852e-10
13.8651
2.30378e-10
13.8651
3.65457e-10
13.8651
5.78183e-10
13.8651
9.12206e-10
13.8651
1.43508e-09
13.8651
2.251e-09
13.8651
3.52001e-09
13.8651
5.48707e-09
13.8651
8.52535e-09
13.8651
1.32011e-08
13.8651
2.03696e-08
13.8651
3.13163e-08
13.8651
4.79639e-08
13.8651
7.31733e-08
13.8651
1.11177e-07
13.8651
1.682e-07
13.8651
2.53348e-07
13.8651
3.7984e-07
13.8651
5.66792e-07
13.8651
8.41353e-07
1.24249e-06
13.8651
13.8651
-2.22045e-16
13.8651
-2.22045e-16
13.8651
-3.33067e-16
13.8651
0
13.8651
-4.44089e-16
13.8651
-9.99201e-16
13.8651
7.77156e-16
13.8651
2.88658e-15
13.8651
4.88498e-15
13.8651
8.32667e-15
13.8651
1.46549e-14
13.8651
2.43139e-14
13.8651
3.9746e-14
13.8651
6.43929e-14
13.8651
1.05138e-13
13.8651
1.71974e-13
13.8651
2.80886e-13
13.8651
4.58078e-13
13.8651
7.44627e-13
13.8651
1.20681e-12
13.8651
1.95033e-12
13.8651
3.14626e-12
13.8651
5.06761e-12
13.8651
8.14437e-12
13.8651
1.30601e-11
13.8651
2.08951e-11
13.8651
3.33553e-11
13.8651
5.31206e-11
13.8651
8.43928e-11
13.8651
1.33741e-10
13.8651
2.11402e-10
13.8651
3.33272e-10
13.8651
5.23967e-10
13.8651
8.21452e-10
13.8651
1.2841e-09
13.8651
2.00127e-09
13.8651
3.10933e-09
13.8651
4.81537e-09
13.8651
7.43276e-09
13.8651
1.14334e-08
13.8651
1.75247e-08
13.8651
2.67623e-08
13.8651
4.07128e-08
13.8651
6.16892e-08
13.8651
9.3085e-08
13.8651
1.39858e-07
13.8651
2.09189e-07
13.8651
3.11453e-07
13.8651
4.6136e-07
6.80011e-07
13.8651
13.8651
3.00532e-32
13.8651
0
13.8651
1.11022e-16
13.8651
0
13.8651
-1.11022e-16
13.8651
8.88178e-16
13.8651
1.9984e-15
13.8651
2.66454e-15
13.8651
3.44169e-15
13.8651
5.66214e-15
13.8651
8.65974e-15
13.8651
1.37668e-14
13.8651
2.30926e-14
13.8651
3.88578e-14
13.8651
6.33937e-14
13.8651
1.0425e-13
13.8651
1.69642e-13
13.8651
2.75002e-13
13.8651
4.4631e-13
13.8651
7.21645e-13
13.8651
1.16307e-12
13.8651
1.87117e-12
13.8651
3.00349e-12
13.8651
4.81004e-12
13.8651
7.68707e-12
13.8651
1.22571e-11
13.8651
1.9499e-11
13.8651
3.09464e-11
13.8651
4.89973e-11
13.8651
7.73857e-11
13.8651
1.21912e-10
13.8651
1.91557e-10
13.8651
3.0018e-10
13.8651
4.69091e-10
13.8651
7.30953e-10
13.8651
1.13563e-09
13.8651
1.75897e-09
13.8651
2.71589e-09
13.8651
4.17976e-09
13.8651
6.411e-09
13.8651
9.7991e-09
13.8651
1.49238e-08
13.8651
2.26436e-08
13.8651
3.42236e-08
13.8651
5.15162e-08
13.8651
7.7223e-08
13.8651
1.15252e-07
13.8651
1.71238e-07
13.8651
2.5317e-07
3.72488e-07
13.8651
13.8651
-3.33067e-16
13.8651
-7.77156e-16
13.8651
-1.11022e-16
13.8651
3.43465e-31
13.8651
5.55112e-16
13.8651
4.44089e-16
13.8651
-4.44089e-16
13.8651
-4.44089e-16
13.8651
7.77156e-16
13.8651
2.22045e-15
13.8651
4.10783e-15
13.8651
7.99361e-15
13.8651
1.44329e-14
13.8651
2.37588e-14
13.8651
3.88578e-14
13.8651
6.27276e-14
13.8651
1.01918e-13
13.8651
1.6509e-13
13.8651
2.6612e-13
13.8651
4.28546e-13
13.8651
6.8956e-13
13.8651
1.10678e-12
13.8651
1.77103e-12
13.8651
2.82829e-12
13.8651
4.50484e-12
13.8651
7.15961e-12
13.8651
1.13545e-11
13.8651
1.79649e-11
13.8651
2.83537e-11
13.8651
4.46412e-11
13.8651
7.0108e-11
13.8651
1.09819e-10
13.8651
1.71566e-10
13.8651
2.67298e-10
13.8651
4.15273e-10
13.8651
6.43295e-10
13.8651
9.93542e-10
13.8651
1.52974e-09
13.8651
2.34782e-09
13.8651
3.59151e-09
13.8651
5.4753e-09
13.8651
8.31775e-09
13.8651
1.25897e-08
13.8651
1.89835e-08
13.8651
2.85115e-08
13.8651
4.26475e-08
13.8651
6.35203e-08
13.8651
9.41969e-08
13.8651
1.39019e-07
2.04201e-07
13.8651
13.8651
-3.33067e-16
13.8651
-1.11022e-16
13.8651
-1.11022e-16
13.8651
-3.33067e-16
13.8651
-5.55112e-16
13.8651
-7.77156e-16
13.8651
-4.44089e-16
13.8651
5.49545e-31
13.8651
4.44089e-16
13.8651
1.44329e-15
13.8651
3.21965e-15
13.8651
5.77316e-15
13.8651
8.21565e-15
13.8651
1.32117e-14
13.8651
2.26485e-14
13.8651
3.71925e-14
13.8651
5.9508e-14
13.8651
9.62563e-14
13.8651
1.56319e-13
13.8651
2.52798e-13
13.8651
4.0612e-13
13.8651
6.50369e-13
13.8651
1.03895e-12
13.8651
1.65457e-12
13.8651
2.62967e-12
13.8651
4.168e-12
13.8651
6.59017e-12
13.8651
1.0396e-11
13.8651
1.63615e-11
13.8651
2.56856e-11
13.8651
4.02215e-11
13.8651
6.28204e-11
13.8651
9.78602e-11
13.8651
1.52032e-10
13.8651
2.35542e-10
13.8651
3.63879e-10
13.8651
5.60491e-10
13.8651
8.60715e-10
13.8651
1.31762e-09
13.8651
2.01057e-09
13.8651
3.0577e-09
13.8651
4.63417e-09
13.8651
6.99835e-09
13.8651
1.05295e-08
13.8651
1.57814e-08
13.8651
2.35588e-08
13.8651
3.50229e-08
13.8651
5.18446e-08
13.8651
7.63872e-08
1.12031e-07
13.8651
13.8651
3.33067e-16
13.8651
-8.58663e-33
13.8651
-3.33067e-16
13.8651
-2.22045e-16
13.8651
2.22045e-16
13.8651
8.88178e-16
13.8651
1.44329e-15
13.8651
1.44329e-15
13.8651
1.77636e-15
13.8651
2.22045e-15
13.8651
2.33147e-15
13.8651
3.21965e-15
13.8651
5.77316e-15
13.8651
9.4369e-15
13.8651
1.40998e-14
13.8651
2.19824e-14
13.8651
3.57492e-14
13.8651
5.77316e-14
13.8651
9.23706e-14
13.8651
1.48104e-13
13.8651
2.37588e-13
13.8651
3.80029e-13
13.8651
6.06737e-13
13.8651
9.64895e-13
13.8651
1.52944e-12
13.8651
2.41851e-12
13.8651
3.81439e-12
13.8651
6.00076e-12
13.8651
9.41713e-12
13.8651
1.47427e-11
13.8651
2.30223e-11
13.8651
3.58613e-11
13.8651
5.57145e-11
13.8651
8.63278e-11
13.8651
1.33397e-10
13.8651
2.05551e-10
13.8651
3.1582e-10
13.8651
4.838e-10
13.8651
7.38851e-10
13.8651
1.12479e-09
13.8651
1.70673e-09
13.8651
2.581e-09
13.8651
3.88949e-09
13.8651
5.84013e-09
13.8651
8.736e-09
13.8651
1.30171e-08
13.8651
1.93175e-08
13.8651
2.85487e-08
13.8651
4.19986e-08
6.15083e-08
13.8651
13.8651
1.11022e-16
13.8651
8.88178e-16
13.8651
7.77156e-16
13.8651
5.55112e-16
13.8651
5.55112e-16
13.8651
2.22045e-16
13.8651
-2.22045e-16
13.8651
3.33067e-16
13.8651
5.55112e-16
13.8651
6.66134e-16
13.8651
7.77156e-16
13.8651
1.33227e-15
13.8651
1.66533e-15
13.8651
3.55271e-15
13.8651
6.88338e-15
13.8651
1.22125e-14
13.8651
1.9984e-14
13.8651
3.27516e-14
13.8651
5.25135e-14
13.8651
8.51541e-14
13.8651
1.37668e-13
13.8651
2.21267e-13
13.8651
3.52718e-13
13.8651
5.60441e-13
13.8651
8.87845e-13
13.8651
1.40066e-12
13.8651
2.20368e-12
13.8651
3.45757e-12
13.8651
5.41056e-12
13.8651
8.44658e-12
13.8651
1.3155e-11
13.8651
2.04375e-11
13.8651
3.16708e-11
13.8651
4.89507e-11
13.8651
7.54548e-11
13.8651
1.15988e-10
13.8651
1.7779e-10
13.8651
2.71724e-10
13.8651
4.1404e-10
13.8651
6.28934e-10
13.8651
9.52302e-10
13.8651
1.43716e-09
13.8651
2.16147e-09
13.8651
3.23932e-09
13.8651
4.83674e-09
13.8651
7.19452e-09
13.8651
1.06592e-08
13.8651
1.57285e-08
13.8651
2.31053e-08
3.37935e-08
13.8651
13.8651
3.00532e-32
13.8651
-5.55112e-16
13.8651
-2.22045e-16
13.8651
2.22045e-16
13.8651
0
13.8651
1.11022e-16
13.8651
-4.44089e-16
13.8651
-8.88178e-16
13.8651
-8.88178e-16
13.8651
-8.88178e-16
13.8651
-1.11022e-15
13.8651
-1.44329e-15
13.8651
-4.44089e-16
13.8651
7.77156e-16
13.8651
2.77556e-15
13.8651
5.55112e-15
13.8651
1.04361e-14
13.8651
1.85407e-14
13.8651
3.11973e-14
13.8651
5.05151e-14
13.8651
8.17124e-14
13.8651
1.30118e-13
13.8651
2.0639e-13
13.8651
3.2685e-13
13.8651
5.15032e-13
13.8651
8.09131e-13
13.8651
1.26898e-12
13.8651
1.98608e-12
13.8651
3.10052e-12
13.8651
4.82836e-12
13.8651
7.50167e-12
13.8651
1.16274e-11
13.8651
1.79764e-11
13.8651
2.77193e-11
13.8651
4.263e-11
13.8651
6.53813e-11
13.8651
9.99959e-11
13.8651
1.52498e-10
13.8651
2.31879e-10
13.8651
3.51504e-10
13.8651
5.31171e-10
13.8651
8.00074e-10
13.8651
1.20107e-09
13.8651
1.79679e-09
13.8651
2.67828e-09
13.8651
3.97742e-09
13.8651
5.88381e-09
13.8651
8.66952e-09
13.8651
1.27185e-08
1.85789e-08
13.8651
13.8651
-4.44089e-16
13.8651
-1.11022e-16
13.8651
-3.33067e-16
13.8651
-1.22125e-15
13.8651
-1.88738e-15
13.8651
-1.9984e-15
13.8651
-5.55112e-16
13.8651
-3.33067e-16
13.8651
-1.11022e-15
13.8651
-1.44329e-15
13.8651
-7.77156e-16
13.8651
1.11022e-16
13.8651
4.44089e-16
13.8651
8.88178e-16
13.8651
1.66533e-15
13.8651
3.55271e-15
13.8651
6.43929e-15
13.8651
1.11022e-14
13.8651
1.88738e-14
13.8651
3.07532e-14
13.8651
4.86278e-14
13.8651
7.69385e-14
13.8651
1.21458e-13
13.8651
1.90403e-13
13.8651
2.9865e-13
13.8651
4.67959e-13
13.8651
7.30971e-13
13.8651
1.1392e-12
13.8651
1.7738e-12
13.8651
2.75646e-12
13.8651
4.27214e-12
13.8651
6.60583e-12
13.8651
1.01904e-11
13.8651
1.56791e-11
13.8651
2.40596e-11
13.8651
3.68219e-11
13.8651
5.61999e-11
13.8651
8.55332e-11
13.8651
1.29799e-10
13.8651
1.96383e-10
13.8651
2.96207e-10
13.8651
4.45351e-10
13.8651
6.67393e-10
13.8651
9.96743e-10
13.8651
1.48336e-09
13.8651
2.19954e-09
13.8651
3.2491e-09
13.8651
4.78092e-09
13.8651
7.00496e-09
1.02208e-08
13.8651
13.8651
2.22045e-16
13.8651
7.72797e-32
13.8651
3.33067e-16
13.8651
1.22125e-15
13.8651
1.11022e-15
13.8651
2.22045e-16
13.8651
-1.33227e-15
13.8651
-2.10942e-15
13.8651
-2.44249e-15
13.8651
-2.33147e-15
13.8651
-2.22045e-15
13.8651
-2.33147e-15
13.8651
-1.88738e-15
13.8651
-1.55431e-15
13.8651
-4.44089e-16
13.8651
1.33227e-15
13.8651
4.21885e-15
13.8651
7.54952e-15
13.8651
1.16573e-14
13.8651
1.85407e-14
13.8651
2.90878e-14
13.8651
4.51861e-14
13.8651
6.99441e-14
13.8651
1.09801e-13
13.8651
1.7164e-13
13.8651
2.68008e-13
13.8651
4.17777e-13
13.8651
6.51146e-13
13.8651
1.01197e-12
13.8651
1.57008e-12
13.8651
2.42983e-12
13.8651
3.74967e-12
13.8651
5.77016e-12
13.8651
8.85847e-12
13.8651
1.35665e-11
13.8651
2.07215e-11
13.8651
3.15649e-11
13.8651
4.79481e-11
13.8651
7.2626e-11
13.8651
1.09681e-10
13.8651
1.6514e-10
13.8651
2.47869e-10
13.8651
3.70842e-10
13.8651
5.52975e-10
13.8651
8.21706e-10
13.8651
1.21669e-09
13.8651
1.79483e-09
13.8651
2.63768e-09
13.8651
3.86015e-09
5.62615e-09
13.8651
13.8651
-3.33067e-16
13.8651
-3.33067e-16
13.8651
-1.11022e-16
13.8651
3.33067e-16
13.8651
7.77156e-16
13.8651
9.99201e-16
13.8651
6.66134e-16
13.8651
7.77156e-16
13.8651
7.77156e-16
13.8651
9.99201e-16
13.8651
7.77156e-16
13.8651
-1.11022e-16
13.8651
-8.88178e-16
13.8651