/*--------------------------------*- C++ -*----------------------------------*\
| =========                 |                                                 |
| \\      /  F ield         | OpenFOAM: The Open Source CFD Toolbox           |
|  \\    /   O peration     | Version:  2412                                  |
|   \\  /    A nd           | Website:  www.openfoam.com                      |
|    \\/     M anipulation  |                                                 |
\*---------------------------------------------------------------------------*/
FoamFile
{
    version     2.0;
    format      ascii;
    arch        "LSB;label=32;scalar=64";
    class       volVectorField;
    location    "0.0999";
    object      U;
}
// * * * * * * * * * * * * * * * * * * * * * * * * * * * * * * * * * * * * * //

dimensions      [0 1 -1 0 0 0 0];

internalField   nonuniform List<vector> 
15000
(
(694.73 6.04129e-14 0)
(694.73 2.03997e-13 0)
(694.73 4.94986e-13 0)
(694.73 1.02647e-12 0)
(694.73 1.98612e-12 0)
(694.73 3.78856e-12 0)
(694.73 7.05709e-12 0)
(694.73 1.29909e-11 0)
(694.73 2.37645e-11 0)
(694.73 4.33992e-11 0)
(694.73 7.92695e-11 0)
(694.73 1.44833e-10 0)
(694.73 2.6472e-10 0)
(694.73 4.84198e-10 0)
(694.73 8.86613e-10 0)
(694.73 1.62551e-09 0)
(694.73 2.98414e-09 0)
(694.73 5.48582e-09 0)
(694.73 1.00996e-08 0)
(694.73 1.86221e-08 0)
(694.73 3.43933e-08 0)
(694.73 6.36319e-08 0)
(694.73 1.17949e-07 0)
(694.73 2.19069e-07 0)
(694.73 4.07737e-07 0)
(694.73 7.60554e-07 0)
(694.73 1.422e-06 0)
(694.73 2.66553e-06 0)
(694.73 5.01028e-06 0)
(694.73 9.44375e-06 0)
(694.73 1.78507e-05 0)
(694.729 3.38444e-05 0)
(694.729 6.43915e-05 0)
(694.728 0.00012296 0)
(694.727 0.000235665 0)
(694.724 0.000453098 0)
(694.719 0.000874345 0)
(694.71 0.00169446 0)
(694.694 0.0033023 0)
(694.664 0.00645787 0)
(694.609 0.0126787 0)
(694.509 0.0249346 0)
(694.326 0.0494345 0)
(693.984 0.0983575 0)
(693.359 0.197797 0)
(692.194 0.394925 0)
(690.058 0.798002 0)
(685.919 1.59923 0)
(678.349 3.32586 0)
(663.149 6.7383 0)
(694.73 1.67643e-13 0)
(694.73 5.80208e-13 0)
(694.73 1.41084e-12 0)
(694.73 2.89655e-12 0)
(694.73 5.61102e-12 0)
(694.73 1.05957e-11 0)
(694.73 1.97129e-11 0)
(694.73 3.63042e-11 0)
(694.73 6.64568e-11 0)
(694.73 1.21283e-10 0)
(694.73 2.21128e-10 0)
(694.73 4.03034e-10 0)
(694.73 7.34741e-10 0)
(694.73 1.34021e-09 0)
(694.73 2.44651e-09 0)
(694.73 4.46983e-09 0)
(694.73 8.17462e-09 0)
(694.73 1.49651e-08 0)
(694.73 2.74274e-08 0)
(694.73 5.03245e-08 0)
(694.73 9.24515e-08 0)
(694.73 1.70055e-07 0)
(694.73 3.13231e-07 0)
(694.73 5.7775e-07 0)
(694.73 1.06725e-06 0)
(694.73 1.97441e-06 0)
(694.73 3.65857e-06 0)
(694.73 6.79069e-06 0)
(694.73 1.26274e-05 0)
(694.73 2.35228e-05 0)
(694.73 4.39011e-05 0)
(694.73 8.20893e-05 0)
(694.729 0.000153832 0)
(694.728 0.000288927 0)
(694.727 0.000543938 0)
(694.725 0.00102602 0)
(694.721 0.00193968 0)
(694.714 0.00367622 0)
(694.702 0.00699169 0)
(694.68 0.0133275 0)
(694.641 0.0254682 0)
(694.572 0.04871 0)
(694.451 0.0935996 0)
(694.237 0.180325 0)
(693.863 0.349921 0)
(693.214 0.675839 0)
(692.102 1.31374 0)
(690.201 2.53632 0)
(687.02 5.01713 0)
(681.831 9.7241 0)
(694.73 2.42408e-13 0)
(694.73 8.05749e-13 0)
(694.73 1.9915e-12 0)
(694.73 4.21208e-12 0)
(694.73 8.2346e-12 0)
(694.73 1.55546e-11 0)
(694.73 2.89219e-11 0)
(694.73 5.32034e-11 0)
(694.73 9.7191e-11 0)
(694.73 1.76869e-10 0)
(694.73 3.21294e-10 0)
(694.73 5.83161e-10 0)
(694.73 1.0584e-09 0)
(694.73 1.92115e-09 0)
(694.73 3.48842e-09 0)
(694.73 6.3373e-09 0)
(694.73 1.15197e-08 0)
(694.73 2.09524e-08 0)
(694.73 3.81347e-08 0)
(694.73 6.9452e-08 0)
(694.73 1.26578e-07 0)
(694.73 2.30844e-07 0)
(694.73 4.21305e-07 0)
(694.73 7.69429e-07 0)
(694.73 1.40625e-06 0)
(694.73 2.57185e-06 0)
(694.73 4.70697e-06 0)
(694.73 8.62021e-06 0)
(694.73 1.57981e-05 0)
(694.73 2.89704e-05 0)
(694.73 5.31596e-05 0)
(694.73 9.75935e-05 0)
(694.729 0.000179264 0)
(694.729 0.00032942 0)
(694.728 0.00060563 0)
(694.726 0.0011136 0)
(694.723 0.00204779 0)
(694.719 0.00376505 0)
(694.71 0.00692248 0)
(694.695 0.0127231 0)
(694.669 0.02337 0)
(694.625 0.0428552 0)
(694.549 0.0784669 0)
(694.42 0.14341 0)
(694.202 0.261773 0)
(693.835 0.475766 0)
(693.228 0.860261 0)
(692.243 1.54251 0)
(690.68 2.75177 0)
(688.273 4.85223 0)
(694.73 2.99726e-13 0)
(694.73 9.85083e-13 0)
(694.73 2.3569e-12 0)
(694.73 4.93713e-12 0)
(694.73 9.72505e-12 0)
(694.73 1.84237e-11 0)
(694.73 3.41066e-11 0)
(694.73 6.23685e-11 0)
(694.73 1.13329e-10 0)
(694.73 2.05198e-10 0)
(694.73 3.70868e-10 0)
(694.73 6.69576e-10 0)
(694.73 1.20825e-09 0)
(694.73 2.17983e-09 0)
(694.73 3.93288e-09 0)
(694.73 7.0966e-09 0)
(694.73 1.28084e-08 0)
(694.73 2.31223e-08 0)
(694.73 4.17526e-08 0)
(694.73 7.54092e-08 0)
(694.73 1.36231e-07 0)
(694.73 2.46149e-07 0)
(694.73 4.4485e-07 0)
(694.73 8.04044e-07 0)
(694.73 1.45349e-06 0)
(694.73 2.62761e-06 0)
(694.73 4.75048e-06 0)
(694.73 8.58789e-06 0)
(694.73 1.55243e-05 0)
(694.73 2.8058e-05 0)
(694.73 5.0701e-05 0)
(694.73 9.15825e-05 0)
(694.73 0.000165357 0)
(694.729 0.000298377 0)
(694.729 0.000538049 0)
(694.727 0.000969385 0)
(694.726 0.00174468 0)
(694.722 0.00313563 0)
(694.717 0.00562657 0)
(694.708 0.0100777 0)
(694.692 0.018013 0)
(694.666 0.0321097 0)
(694.621 0.0570455 0)
(694.548 0.100932 0)
(694.428 0.177776 0)
(694.231 0.311497 0)
(693.915 0.542173 0)
(693.415 0.934964 0)
(692.64 1.59278 0)
(691.471 2.67205 0)
(694.73 3.53109e-13 0)
(694.73 1.09919e-12 0)
(694.73 2.525e-12 0)
(694.73 5.17995e-12 0)
(694.73 1.01049e-11 0)
(694.73 1.9097e-11 0)
(694.73 3.52025e-11 0)
(694.73 6.40182e-11 0)
(694.73 1.157e-10 0)
(694.73 2.08383e-10 0)
(694.73 3.74475e-10 0)
(694.73 6.7194e-10 0)
(694.73 1.20471e-09 0)
(694.73 2.15896e-09 0)
(694.73 3.8682e-09 0)
(694.73 6.92906e-09 0)
(694.73 1.24106e-08 0)
(694.73 2.22254e-08 0)
(694.73 3.97978e-08 0)
(694.73 7.12506e-08 0)
(694.73 1.27541e-07 0)
(694.73 2.28242e-07 0)
(694.73 4.08353e-07 0)
(694.73 7.30331e-07 0)
(694.73 1.30572e-06 0)
(694.73 2.33328e-06 0)
(694.73 4.16744e-06 0)
(694.73 7.43858e-06 0)
(694.73 1.32684e-05 0)
(694.73 2.36471e-05 0)
(694.73 4.21068e-05 0)
(694.73 7.48951e-05 0)
(694.73 0.000133059 0)
(694.729 0.000236058 0)
(694.729 0.000418146 0)
(694.728 0.000739371 0)
(694.727 0.00130481 0)
(694.725 0.00229732 0)
(694.722 0.00403428 0)
(694.716 0.00706339 0)
(694.707 0.0123263 0)
(694.692 0.0214297 0)
(694.666 0.0370939 0)
(694.626 0.0638774 0)
(694.56 0.109349 0)
(694.454 0.185961 0)
(694.288 0.313856 0)
(694.029 0.524936 0)
(693.634 0.867911 0)
(693.045 1.4151 0)
(694.73 3.36839e-13 0)
(694.73 1.04284e-12 0)
(694.73 2.41458e-12 0)
(694.73 4.99672e-12 0)
(694.73 9.64301e-12 0)
(694.73 1.80415e-11 0)
(694.73 3.31126e-11 0)
(694.73 5.99476e-11 0)
(694.73 1.07777e-10 0)
(694.73 1.93048e-10 0)
(694.73 3.44786e-10 0)
(694.73 6.14639e-10 0)
(694.73 1.09463e-09 0)
(694.73 1.94807e-09 0)
(694.73 3.46518e-09 0)
(694.73 6.16081e-09 0)
(694.73 1.0949e-08 0)
(694.73 1.94494e-08 0)
(694.73 3.45345e-08 0)
(694.73 6.1288e-08 0)
(694.73 1.08712e-07 0)
(694.73 1.92714e-07 0)
(694.73 3.41414e-07 0)
(694.73 6.04402e-07 0)
(694.73 1.06915e-06 0)
(694.73 1.88957e-06 0)
(694.73 3.3364e-06 0)
(694.73 5.88467e-06 0)
(694.73 1.03673e-05 0)
(694.73 1.82405e-05 0)
(694.73 3.20478e-05 0)
(694.73 5.62166e-05 0)
(694.73 9.84435e-05 0)
(694.73 0.000172053 0)
(694.729 0.000300072 0)
(694.729 0.000522104 0)
(694.728 0.000906095 0)
(694.727 0.00156796 0)
(694.725 0.00270468 0)
(694.722 0.00464878 0)
(694.716 0.00795882 0)
(694.708 0.013566 0)
(694.694 0.0230109 0)
(694.671 0.0388157 0)
(694.635 0.0650641 0)
(694.579 0.108296 0)
(694.491 0.178822 0)
(694.357 0.29264 0)
(694.154 0.473779 0)
(693.853 0.757655 0)
(694.73 2.34486e-13 0)
(694.73 8.72225e-13 0)
(694.73 2.12189e-12 0)
(694.73 4.3875e-12 0)
(694.73 8.5459e-12 0)
(694.73 1.59246e-11 0)
(694.73 2.89926e-11 0)
(694.73 5.2289e-11 0)
(694.73 9.36165e-11 0)
(694.73 1.66711e-10 0)
(694.73 2.95944e-10 0)
(694.73 5.24355e-10 0)
(694.73 9.27783e-10 0)
(694.73 1.63982e-09 0)
(694.73 2.896e-09 0)
(694.73 5.11055e-09 0)
(694.73 9.0124e-09 0)
(694.73 1.58817e-08 0)
(694.73 2.79672e-08 0)
(694.73 4.92104e-08 0)
(694.73 8.65206e-08 0)
(694.73 1.5198e-07 0)
(694.73 2.66718e-07 0)
(694.73 4.67584e-07 0)
(694.73 8.1883e-07 0)
(694.73 1.43216e-06 0)
(694.73 2.5017e-06 0)
(694.73 4.36366e-06 0)
(694.73 7.59994e-06 0)
(694.73 1.3214e-05 0)
(694.73 2.29341e-05 0)
(694.73 3.97253e-05 0)
(694.73 6.86648e-05 0)
(694.73 0.000118408 0)
(694.73 0.000203676 0)
(694.729 0.000349375 0)
(694.729 0.000597509 0)
(694.728 0.00101851 0)
(694.727 0.00172996 0)
(694.725 0.00292678 0)
(694.722 0.0049303 0)
(694.717 0.00826603 0)
(694.709 0.0137868 0)
(694.697 0.022863 0)
(694.678 0.037673 0)
(694.647 0.0616416 0)
(694.601 0.10007 0)
(694.531 0.161059 0)
(694.425 0.256629 0)
(694.269 0.404479 0)
(694.73 2.15727e-13 0)
(694.73 7.50891e-13 0)
(694.73 1.79539e-12 0)
(694.73 3.68461e-12 0)
(694.73 7.12e-12 0)
(694.73 1.32505e-11 0)
(694.73 2.41128e-11 0)
(694.73 4.32712e-11 0)
(694.73 7.70186e-11 0)
(694.73 1.36366e-10 0)
(694.73 2.40629e-10 0)
(694.73 4.23701e-10 0)
(694.73 7.44808e-10 0)
(694.73 1.30748e-09 0)
(694.73 2.29274e-09 0)
(694.73 4.01646e-09 0)
(694.73 7.02978e-09 0)
(694.73 1.22922e-08 0)
(694.73 2.14739e-08 0)
(694.73 3.74756e-08 0)
(694.73 6.53338e-08 0)
(694.73 1.13771e-07 0)
(694.73 1.97884e-07 0)
(694.73 3.43736e-07 0)
(694.73 5.96285e-07 0)
(694.73 1.03284e-06 0)
(694.73 1.78624e-06 0)
(694.73 3.08393e-06 0)
(694.73 5.31485e-06 0)
(694.73 9.14164e-06 0)
(694.73 1.56912e-05 0)
(694.73 2.68724e-05 0)
(694.73 4.59107e-05 0)
(694.73 7.8232e-05 0)
(694.73 0.000132936 0)
(694.73 0.000225206 0)
(694.729 0.000380282 0)
(694.729 0.00063987 0)
(694.728 0.00107257 0)
(694.727 0.00179042 0)
(694.725 0.00297535 0)
(694.723 0.00492045 0)
(694.718 0.00809412 0)
(694.712 0.013238 0)
(694.701 0.0215143 0)
(694.685 0.0347258 0)
(694.66 0.0556282 0)
(694.623 0.0883855 0)
(694.568 0.13912 0)
(694.487 0.216813 0)
(694.73 2.10622e-13 0)
(694.73 6.46343e-13 0)
(694.73 1.48724e-12 0)
(694.73 3.05814e-12 0)
(694.73 5.79993e-12 0)
(694.73 1.06073e-11 0)
(694.73 1.91557e-11 0)
(694.73 3.41975e-11 0)
(694.73 6.05426e-11 0)
(694.73 1.06629e-10 0)
(694.73 1.87172e-10 0)
(694.73 3.27571e-10 0)
(694.73 5.72109e-10 0)
(694.73 9.97686e-10 0)
(694.73 1.73767e-09 0)
(694.73 3.02289e-09 0)
(694.73 5.25286e-09 0)
(694.73 9.11726e-09 0)
(694.73 1.58066e-08 0)
(694.73 2.73706e-08 0)
(694.73 4.73364e-08 0)
(694.73 8.17565e-08 0)
(694.73 1.4101e-07 0)
(694.73 2.42843e-07 0)
(694.73 4.17565e-07 0)
(694.73 7.16782e-07 0)
(694.73 1.22824e-06 0)
(694.73 2.10063e-06 0)
(694.73 3.58547e-06 0)
(694.73 6.10659e-06 0)
(694.73 1.03768e-05 0)
(694.73 1.75895e-05 0)
(694.73 2.97383e-05 0)
(694.73 5.01368e-05 0)
(694.73 8.4276e-05 0)
(694.73 0.000141207 0)
(694.73 0.000235788 0)
(694.729 0.000392271 0)
(694.729 0.000650041 0)
(694.728 0.00107263 0)
(694.727 0.00176189 0)
(694.726 0.00287991 0)
(694.724 0.00468255 0)
(694.72 0.00757016 0)
(694.714 0.0121629 0)
(694.705 0.0194127 0)
(694.692 0.0307607 0)
(694.673 0.0483677 0)
(694.643 0.0753898 0)
(694.601 0.116444 0)
(694.73 1.83014e-13 0)
(694.73 5.33465e-13 0)
(694.73 1.17829e-12 0)
(694.73 2.34942e-12 0)
(694.73 4.4584e-12 0)
(694.73 8.17279e-12 0)
(694.73 1.46852e-11 0)
(694.73 2.60539e-11 0)
(694.73 4.59035e-11 0)
(694.73 8.04395e-11 0)
(694.73 1.40343e-10 0)
(694.73 2.44169e-10 0)
(694.73 4.23895e-10 0)
(694.73 7.34529e-10 0)
(694.73 1.27096e-09 0)
(694.73 2.1961e-09 0)
(694.73 3.78977e-09 0)
(694.73 6.53144e-09 0)
(694.73 1.1242e-08 0)
(694.73 1.93233e-08 0)
(694.73 3.31674e-08 0)
(694.73 5.68445e-08 0)
(694.73 9.72738e-08 0)
(694.73 1.66181e-07 0)
(694.73 2.83413e-07 0)
(694.73 4.82452e-07 0)
(694.73 8.19695e-07 0)
(694.73 1.3898e-06 0)
(694.73 2.35133e-06 0)
(694.73 3.96887e-06 0)
(694.73 6.68289e-06 0)
(694.73 1.12235e-05 0)
(694.73 1.87977e-05 0)
(694.73 3.1391e-05 0)
(694.73 5.22587e-05 0)
(694.73 8.67103e-05 0)
(694.73 0.00014337 0)
(694.73 0.000236163 0)
(694.729 0.000387463 0)
(694.729 0.000632981 0)
(694.729 0.00102938 0)
(694.728 0.00166587 0)
(694.726 0.00268192 0)
(694.724 0.00429363 0)
(694.721 0.00683268 0)
(694.717 0.010804 0)
(694.71 0.016966 0)
(694.699 0.0264488 0)
(694.684 0.0408948 0)
(694.661 0.0627005 0)
(694.73 1.31752e-13 0)
(694.73 3.90664e-13 0)
(694.73 8.80944e-13 0)
(694.73 1.77232e-12 0)
(694.73 3.333e-12 0)
(694.73 6.09973e-12 0)
(694.73 1.09283e-11 0)
(694.73 1.93512e-11 0)
(694.73 3.38966e-11 0)
(694.73 5.895e-11 0)
(694.73 1.02116e-10 0)
(694.73 1.76491e-10 0)
(694.73 3.04568e-10 0)
(694.73 5.2466e-10 0)
(694.73 9.02239e-10 0)
(694.73 1.5491e-09 0)
(694.73 2.65591e-09 0)
(694.73 4.54697e-09 0)
(694.73 7.77317e-09 0)
(694.73 1.32681e-08 0)
(694.73 2.26129e-08 0)
(694.73 3.84763e-08 0)
(694.73 6.53589e-08 0)
(694.73 1.10825e-07 0)
(694.73 1.87573e-07 0)
(694.73 3.16844e-07 0)
(694.73 5.34112e-07 0)
(694.73 8.98398e-07 0)
(694.73 1.50771e-06 0)
(694.73 2.52412e-06 0)
(694.73 4.21505e-06 0)
(694.73 7.01972e-06 0)
(694.73 1.16575e-05 0)
(694.73 1.93012e-05 0)
(694.73 3.18554e-05 0)
(694.73 5.23983e-05 0)
(694.73 8.58828e-05 0)
(694.73 0.000140233 0)
(694.73 0.000228064 0)
(694.729 0.000369329 0)
(694.729 0.000595403 0)
(694.729 0.000955266 0)
(694.728 0.00152483 0)
(694.727 0.00242081 0)
(694.725 0.00382097 0)
(694.723 0.00599404 0)
(694.719 0.00934124 0)
(694.713 0.0144573 0)
(694.705 0.0222029 0)
(694.693 0.0338313 0)
(694.73 6.17748e-14 0)
(694.73 2.44927e-13 0)
(694.73 6.51113e-13 0)
(694.73 1.31568e-12 0)
(694.73 2.44049e-12 0)
(694.73 4.45386e-12 0)
(694.73 7.98334e-12 0)
(694.73 1.40203e-11 0)
(694.73 2.43559e-11 0)
(694.73 4.20857e-11 0)
(694.73 7.24705e-11 0)
(694.73 1.24513e-10 0)
(694.73 2.13518e-10 0)
(694.73 3.65525e-10 0)
(694.73 6.24759e-10 0)
(694.73 1.06613e-09 0)
(694.73 1.81653e-09 0)
(694.73 3.09019e-09 0)
(694.73 5.24875e-09 0)
(694.73 8.90064e-09 0)
(694.73 1.50686e-08 0)
(694.73 2.54666e-08 0)
(694.73 4.29632e-08 0)
(694.73 7.23444e-08 0)
(694.73 1.21582e-07 0)
(694.73 2.03908e-07 0)
(694.73 3.41249e-07 0)
(694.73 5.69801e-07 0)
(694.73 9.49182e-07 0)
(694.73 1.57721e-06 0)
(694.73 2.61394e-06 0)
(694.73 4.32016e-06 0)
(694.73 7.11952e-06 0)
(694.73 1.16969e-05 0)
(694.73 1.91558e-05 0)
(694.73 3.12645e-05 0)
(694.73 5.08458e-05 0)
(694.73 8.23793e-05 0)
(694.73 0.00013294 0)
(694.73 0.000213629 0)
(694.73 0.000341773 0)
(694.729 0.000544219 0)
(694.729 0.000862283 0)
(694.728 0.00135905 0)
(694.727 0.00213002 0)
(694.726 0.00331871 0)
(694.724 0.0051383 0)
(694.721 0.00790343 0)
(694.717 0.0120679 0)
(694.71 0.0182909 0)
(694.73 3.42391e-14 0)
(694.73 1.33581e-13 0)
(694.73 3.77866e-13 0)
(694.73 8.02254e-13 0)
(694.73 1.58881e-12 0)
(694.73 3.00508e-12 0)
(694.73 5.3943e-12 0)
(694.73 9.51746e-12 0)
(694.73 1.66738e-11 0)
(694.73 2.89304e-11 0)
(694.73 4.98863e-11 0)
(694.73 8.56077e-11 0)
(694.73 1.46255e-10 0)
(694.73 2.49093e-10 0)
(694.73 4.23441e-10 0)
(694.73 7.18506e-10 0)
(694.73 1.21702e-09 0)
(694.73 2.05792e-09 0)
(694.73 3.47422e-09 0)
(694.73 5.85531e-09 0)
(694.73 9.8512e-09 0)
(694.73 1.65439e-08 0)
(694.73 2.77319e-08 0)
(694.73 4.63948e-08 0)
(694.73 7.7461e-08 0)
(694.73 1.29053e-07 0)
(694.73 2.14535e-07 0)
(694.73 3.55806e-07 0)
(694.73 5.88679e-07 0)
(694.73 9.71483e-07 0)
(694.73 1.59897e-06 0)
(694.73 2.62438e-06 0)
(694.73 4.29483e-06 0)
(694.73 7.00692e-06 0)
(694.73 1.13949e-05 0)
(694.73 1.8468e-05 0)
(694.73 2.98255e-05 0)
(694.73 4.79875e-05 0)
(694.73 7.69061e-05 0)
(694.73 0.000122742 0)
(694.73 0.000195044 0)
(694.73 0.000308516 0)
(694.729 0.000485647 0)
(694.729 0.00076058 0)
(694.729 0.00118472 0)
(694.728 0.00183494 0)
(694.727 0.00282495 0)
(694.725 0.00432191 0)
(694.723 0.00656622 0)
(694.719 0.0099065 0)
(694.73 5.80448e-14 0)
(694.73 1.63296e-13 0)
(694.73 3.50233e-13 0)
(694.73 6.83865e-13 0)
(694.73 1.2257e-12 0)
(694.73 2.13979e-12 0)
(694.73 3.78498e-12 0)
(694.73 6.60882e-12 0)
(694.73 1.14388e-11 0)
(694.73 1.97098e-11 0)
(694.73 3.37999e-11 0)
(694.73 5.77254e-11 0)
(694.73 9.81837e-11 0)
(694.73 1.66498e-10 0)
(694.73 2.81604e-10 0)
(694.73 4.75322e-10 0)
(694.73 8.00819e-10 0)
(694.73 1.34674e-09 0)
(694.73 2.26072e-09 0)
(694.73 3.78811e-09 0)
(694.73 6.336e-09 0)
(694.73 1.05776e-08 0)
(694.73 1.7625e-08 0)
(694.73 2.93085e-08 0)
(694.73 4.86358e-08 0)
(694.73 8.05324e-08 0)
(694.73 1.33048e-07 0)
(694.73 2.19287e-07 0)
(694.73 3.6054e-07 0)
(694.73 5.9125e-07 0)
(694.73 9.66998e-07 0)
(694.73 1.57709e-06 0)
(694.73 2.56457e-06 0)
(694.73 4.15751e-06 0)
(694.73 6.71831e-06 0)
(694.73 1.08198e-05 0)
(694.73 1.73641e-05 0)
(694.73 2.77637e-05 0)
(694.73 4.42202e-05 0)
(694.73 7.01448e-05 0)
(694.73 0.000110795 0)
(694.73 0.00017422 0)
(694.73 0.000272668 0)
(694.729 0.000424639 0)
(694.729 0.000657858 0)
(694.729 0.00101362 0)
(694.728 0.00155275 0)
(694.727 0.00236442 0)
(694.726 0.00357651 0)
(694.724 0.00537416 0)
(694.73 5.73004e-14 0)
(694.73 1.20955e-13 0)
(694.73 1.82982e-13 0)
(694.73 3.76791e-13 0)
(694.73 7.31035e-13 0)
(694.73 1.37526e-12 0)
(694.73 2.51513e-12 0)
(694.73 4.48325e-12 0)
(694.73 7.78318e-12 0)
(694.73 1.33186e-11 0)
(694.73 2.26449e-11 0)
(694.73 3.83773e-11 0)
(694.73 6.49349e-11 0)
(694.73 1.09558e-10 0)
(694.73 1.844e-10 0)
(694.73 3.09686e-10 0)
(694.73 5.19012e-10 0)
(694.73 8.68136e-10 0)
(694.73 1.44952e-09 0)
(694.73 2.41578e-09 0)
(694.73 4.0186e-09 0)
(694.73 6.67192e-09 0)
(694.73 1.10553e-08 0)
(694.73 1.82806e-08 0)
(694.73 3.01641e-08 0)
(694.73 4.96621e-08 0)
(694.73 8.1577e-08 0)
(694.73 1.33681e-07 0)
(694.73 2.18521e-07 0)
(694.73 3.56278e-07 0)
(694.73 5.79318e-07 0)
(694.73 9.39334e-07 0)
(694.73 1.51863e-06 0)
(694.73 2.44767e-06 0)
(694.73 3.9325e-06 0)
(694.73 6.29699e-06 0)
(694.73 1.00482e-05 0)
(694.73 1.59756e-05 0)
(694.73 2.53032e-05 0)
(694.73 3.99175e-05 0)
(694.73 6.27105e-05 0)
(694.73 9.80895e-05 0)
(694.73 0.000152728 0)
(694.73 0.000236663 0)
(694.73 0.000364877 0)
(694.729 0.000559597 0)
(694.729 0.000853467 0)
(694.729 0.0012942 0)
(694.728 0.00195006 0)
(694.727 0.00291975 0)
(694.73 2.28283e-14 0)
(694.73 7.54291e-14 0)
(694.73 1.38877e-13 0)
(694.73 2.37392e-13 0)
(694.73 4.98517e-13 0)
(694.73 9.48005e-13 0)
(694.73 1.66777e-12 0)
(694.73 2.92915e-12 0)
(694.73 5.09496e-12 0)
(694.73 8.7307e-12 0)
(694.73 1.48548e-11 0)
(694.73 2.51227e-11 0)
(694.73 4.2338e-11 0)
(694.73 7.11222e-11 0)
(694.73 1.19137e-10 0)
(694.73 1.99095e-10 0)
(694.73 3.31978e-10 0)
(694.73 5.52479e-10 0)
(694.73 9.17767e-10 0)
(694.73 1.52171e-09 0)
(694.73 2.51832e-09 0)
(694.73 4.15942e-09 0)
(694.73 6.85607e-09 0)
(694.73 1.12774e-08 0)
(694.73 1.85104e-08 0)
(694.73 3.03141e-08 0)
(694.73 4.95304e-08 0)
(694.73 8.07329e-08 0)
(694.73 1.31265e-07 0)
(694.73 2.12872e-07 0)
(694.73 3.44286e-07 0)
(694.73 5.55264e-07 0)
(694.73 8.92925e-07 0)
(694.73 1.43156e-06 0)
(694.73 2.28788e-06 0)
(694.73 3.64437e-06 0)
(694.73 5.78526e-06 0)
(694.73 9.15097e-06 0)
(694.73 1.44208e-05 0)
(694.73 2.2637e-05 0)
(694.73 3.53901e-05 0)
(694.73 5.5093e-05 0)
(694.73 8.53851e-05 0)
(694.73 0.000131718 0)
(694.73 0.000202202 0)
(694.73 0.000308827 0)
(694.729 0.000469155 0)
(694.729 0.000708789 0)
(694.729 0.00106429 0)
(694.728 0.00158843 0)
(694.73 -1.9375e-14 0)
(694.73 2.5233e-14 0)
(694.73 1.19217e-13 0)
(694.73 2.0863e-13 0)
(694.73 3.72301e-13 0)
(694.73 6.46758e-13 0)
(694.73 1.14311e-12 0)
(694.73 1.97326e-12 0)
(694.73 3.35071e-12 0)
(694.73 5.68756e-12 0)
(694.73 9.64303e-12 0)
(694.73 1.62299e-11 0)
(694.73 2.71995e-11 0)
(694.73 4.55015e-11 0)
(694.73 7.58724e-11 0)
(694.73 1.26214e-10 0)
(694.73 2.09606e-10 0)
(694.73 3.47388e-10 0)
(694.73 5.74492e-10 0)
(694.73 9.48126e-10 0)
(694.73 1.56163e-09 0)
(694.73 2.56691e-09 0)
(694.73 4.21058e-09 0)
(694.73 6.89199e-09 0)
(694.73 1.12566e-08 0)
(694.73 1.83438e-08 0)
(694.73 2.98238e-08 0)
(694.73 4.83712e-08 0)
(694.73 7.82582e-08 0)
(694.73 1.26283e-07 0)
(694.73 2.03234e-07 0)
(694.73 3.26163e-07 0)
(694.73 5.21938e-07 0)
(694.73 8.3271e-07 0)
(694.73 1.32439e-06 0)
(694.73 2.09953e-06 0)
(694.73 3.31714e-06 0)
(694.73 5.22248e-06 0)
(694.73 8.19222e-06 0)
(694.73 1.28017e-05 0)
(694.73 1.99256e-05 0)
(694.73 3.08855e-05 0)
(694.73 4.76673e-05 0)
(694.73 7.32362e-05 0)
(694.73 0.000111988 0)
(694.73 0.000170405 0)
(694.73 0.000257954 0)
(694.73 0.00038841 0)
(694.729 0.000581405 0)
(694.729 0.000865242 0)
(694.73 5.69728e-15 0)
(694.73 3.37992e-14 0)
(694.73 6.87935e-14 0)
(694.73 1.4666e-13 0)
(694.73 2.56708e-13 0)
(694.73 4.91807e-13 0)
(694.73 8.61891e-13 0)
(694.73 1.42511e-12 0)
(694.73 2.34576e-12 0)
(694.73 3.85768e-12 0)
(694.73 6.37764e-12 0)
(694.73 1.06112e-11 0)
(694.73 1.75975e-11 0)
(694.73 2.90987e-11 0)
(694.73 4.81247e-11 0)
(694.73 7.95026e-11 0)
(694.73 1.3129e-10 0)
(694.73 2.16485e-10 0)
(694.73 3.56334e-10 0)
(694.73 5.85365e-10 0)
(694.73 9.59672e-10 0)
(694.73 1.57017e-09 0)
(694.73 2.56384e-09 0)
(694.73 4.17734e-09 0)
(694.73 6.79138e-09 0)
(694.73 1.10162e-08 0)
(694.73 1.78278e-08 0)
(694.73 2.87817e-08 0)
(694.73 4.63508e-08 0)
(694.73 7.44517e-08 0)
(694.73 1.19271e-07 0)
(694.73 1.90543e-07 0)
(694.73 3.03536e-07 0)
(694.73 4.82096e-07 0)
(694.73 7.63344e-07 0)
(694.73 1.2048e-06 0)
(694.73 1.89526e-06 0)
(694.73 2.97115e-06 0)
(694.73 4.64112e-06 0)
(694.73 7.22271e-06 0)
(694.73 1.11968e-05 0)
(694.73 1.72876e-05 0)
(694.73 2.65797e-05 0)
(694.73 4.06872e-05 0)
(694.73 6.19968e-05 0)
(694.73 9.40185e-05 0)
(694.73 0.000141867 0)
(694.73 0.000212969 0)
(694.73 0.000317892 0)
(694.73 0.000471854 0)
(694.73 1.70979e-14 0)
(694.73 7.06733e-15 0)
(694.73 4.71141e-14 0)
(694.73 1.63486e-13 0)
(694.73 3.12687e-13 0)
(694.73 4.71938e-13 0)
(694.73 6.57376e-13 0)
(694.73 9.83024e-13 0)
(694.73 1.57244e-12 0)
(694.73 2.54092e-12 0)
(694.73 4.11747e-12 0)
(694.73 6.75946e-12 0)
(694.73 1.11673e-11 0)
(694.73 1.83614e-11 0)
(694.73 3.0164e-11 0)
(694.73 4.9639e-11 0)
(694.73 8.15644e-11 0)
(694.73 1.33813e-10 0)
(694.73 2.19229e-10 0)
(694.73 3.58513e-10 0)
(694.73 5.85229e-10 0)
(694.73 9.53309e-10 0)
(694.73 1.54973e-09 0)
(694.73 2.51408e-09 0)
(694.73 4.06965e-09 0)
(694.73 6.5728e-09 0)
(694.73 1.0591e-08 0)
(694.73 1.70248e-08 0)
(694.73 2.72996e-08 0)
(694.73 4.36631e-08 0)
(694.73 6.9651e-08 0)
(694.73 1.10802e-07 0)
(694.73 1.75769e-07 0)
(694.73 2.7801e-07 0)
(694.73 4.38391e-07 0)
(694.73 6.89117e-07 0)
(694.73 1.07972e-06 0)
(694.73 1.68599e-06 0)
(694.73 2.62348e-06 0)
(694.73 4.06737e-06 0)
(694.73 6.28212e-06 0)
(694.73 9.66472e-06 0)
(694.73 1.48079e-05 0)
(694.73 2.25916e-05 0)
(694.73 3.4313e-05 0)
(694.73 5.18759e-05 0)
(694.73 7.80485e-05 0)
(694.73 0.000116843 0)
(694.73 0.000173961 0)
(694.73 0.000257602 0)
(694.73 6.81046e-16 0)
(694.73 -1.31366e-14 0)
(694.73 -1.34364e-14 0)
(694.73 6.58102e-15 0)
(694.73 6.17977e-14 0)
(694.73 1.2659e-13 0)
(694.73 2.05701e-13 0)
(694.73 3.76953e-13 0)
(694.73 7.31493e-13 0)
(694.73 1.34501e-12 0)
(694.73 2.33471e-12 0)
(694.73 3.94238e-12 0)
(694.73 6.60118e-12 0)
(694.73 1.1028e-11 0)
(694.73 1.8346e-11 0)
(694.73 3.03359e-11 0)
(694.73 4.9925e-11 0)
(694.73 8.17976e-11 0)
(694.73 1.33576e-10 0)
(694.73 2.17697e-10 0)
(694.73 3.54095e-10 0)
(694.73 5.74677e-10 0)
(694.73 9.30516e-10 0)
(694.73 1.50339e-09 0)
(694.73 2.42375e-09 0)
(694.73 3.8988e-09 0)
(694.73 6.25704e-09 0)
(694.73 1.00177e-08 0)
(694.73 1.59993e-08 0)
(694.73 2.54876e-08 0)
(694.73 4.0497e-08 0)
(694.73 6.41709e-08 0)
(694.73 1.01401e-07 0)
(694.73 1.59766e-07 0)
(694.73 2.50977e-07 0)
(694.73 3.93039e-07 0)
(694.73 6.13547e-07 0)
(694.73 9.54592e-07 0)
(694.73 1.48011e-06 0)
(694.73 2.28677e-06 0)
(694.73 3.52001e-06 0)
(694.73 5.39757e-06 0)
(694.73 8.24364e-06 0)
(694.73 1.25383e-05 0)
(694.73 1.89876e-05 0)
(694.73 2.86256e-05 0)
(694.73 4.2953e-05 0)
(694.73 6.41416e-05 0)
(694.73 9.5273e-05 0)
(694.73 0.000140775 0)
(694.73 2.14461e-16 0)
(694.73 4.83982e-15 0)
(694.73 -2.32092e-14 0)
(694.73 -4.12321e-14 0)
(694.73 -4.35564e-14 0)
(694.73 -4.23187e-14 0)
(694.73 6.00794e-14 0)
(694.73 2.46331e-13 0)
(694.73 4.68709e-13 0)
(694.73 8.36572e-13 0)
(694.73 1.4885e-12 0)
(694.73 2.52683e-12 0)
(694.73 4.1792e-12 0)
(694.73 6.91117e-12 0)
(694.73 1.13903e-11 0)
(694.73 1.86575e-11 0)
(694.73 3.05308e-11 0)
(694.73 4.98394e-11 0)
(694.73 8.10973e-11 0)
(694.73 1.31597e-10 0)
(694.73 2.13065e-10 0)
(694.73 3.44363e-10 0)
(694.73 5.55456e-10 0)
(694.73 8.94037e-10 0)
(694.73 1.43591e-09 0)
(694.73 2.30106e-09 0)
(694.73 3.67895e-09 0)
(694.73 5.868e-09 0)
(694.73 9.33679e-09 0)
(694.73 1.48187e-08 0)
(694.73 2.34585e-08 0)
(694.73 3.70361e-08 0)
(694.73 5.83115e-08 0)
(694.73 9.15467e-08 0)
(694.73 1.43303e-07 0)
(694.73 2.23638e-07 0)
(694.73 3.47913e-07 0)
(694.73 5.39489e-07 0)
(694.73 8.33742e-07 0)
(694.73 1.284e-06 0)
(694.73 1.97028e-06 0)
(694.73 3.01207e-06 0)
(694.73 4.58681e-06 0)
(694.73 6.95666e-06 0)
(694.73 1.05064e-05 0)
(694.73 1.57985e-05 0)
(694.73 2.36477e-05 0)
(694.73 3.52315e-05 0)
(694.73 5.22186e-05 0)
(694.73 7.70045e-05 0)
(694.73 -1.52668e-14 0)
(694.73 -2.17742e-14 0)
(694.73 -2.55583e-14 0)
(694.73 -5.31883e-15 0)
(694.73 -1.2385e-14 0)
(694.73 -9.65573e-15 0)
(694.73 1.09783e-13 0)
(694.73 2.43421e-13 0)
(694.73 3.63841e-13 0)
(694.73 5.87023e-13 0)
(694.73 9.73164e-13 0)
(694.73 1.57221e-12 0)
(694.73 2.59026e-12 0)
(694.73 4.2577e-12 0)
(694.73 6.93425e-12 0)
(694.73 1.13401e-11 0)
(694.73 1.84941e-11 0)
(694.73 3.00667e-11 0)
(694.73 4.88092e-11 0)
(694.73 7.89906e-11 0)
(694.73 1.27441e-10 0)
(694.73 2.05184e-10 0)
(694.73 3.29828e-10 0)
(694.73 5.29041e-10 0)
(694.73 8.46689e-10 0)
(694.73 1.35198e-09 0)
(694.73 2.15391e-09 0)
(694.73 3.42339e-09 0)
(694.73 5.42797e-09 0)
(694.73 8.58494e-09 0)
(694.73 1.35434e-08 0)
(694.73 2.13093e-08 0)
(694.73 3.34372e-08 0)
(694.73 5.23202e-08 0)
(694.73 8.16308e-08 0)
(694.73 1.26981e-07 0)
(694.73 1.96917e-07 0)
(694.73 3.04398e-07 0)
(694.73 4.68995e-07 0)
(694.73 7.20128e-07 0)
(694.73 1.10184e-06 0)
(694.73 1.67971e-06 0)
(694.73 2.55096e-06 0)
(694.73 3.85887e-06 0)
(694.73 5.81338e-06 0)
(694.73 8.72075e-06 0)
(694.73 1.3024e-05 0)
(694.73 1.93626e-05 0)
(694.73 2.86415e-05 0)
(694.73 4.2159e-05 0)
(694.73 -1.15278e-14 0)
(694.73 -2.52751e-14 0)
(694.73 1.89642e-14 0)
(694.73 3.57933e-14 0)
(694.73 4.11841e-14 0)
(694.73 1.16524e-13 0)
(694.73 1.58939e-13 0)
(694.73 1.76265e-13 0)
(694.73 2.47126e-13 0)
(694.73 3.88401e-13 0)
(694.73 5.81531e-13 0)
(694.73 9.14552e-13 0)
(694.73 1.5453e-12 0)
(694.73 2.57121e-12 0)
(694.73 4.1908e-12 0)
(694.73 6.84083e-12 0)
(694.73 1.11101e-11 0)
(694.73 1.80129e-11 0)
(694.73 2.91312e-11 0)
(694.73 4.70094e-11 0)
(694.73 7.57104e-11 0)
(694.73 1.21657e-10 0)
(694.73 1.94968e-10 0)
(694.73 3.11686e-10 0)
(694.73 4.97144e-10 0)
(694.73 7.91187e-10 0)
(694.73 1.25632e-09 0)
(694.73 1.99021e-09 0)
(694.73 3.14522e-09 0)
(694.73 4.9583e-09 0)
(694.73 7.79679e-09 0)
(694.73 1.22283e-08 0)
(694.73 1.91274e-08 0)
(694.73 2.98362e-08 0)
(694.73 4.6408e-08 0)
(694.73 7.19723e-08 0)
(694.73 1.11282e-07 0)
(694.73 1.71522e-07 0)
(694.73 2.63521e-07 0)
(694.73 4.03513e-07 0)
(694.73 6.15742e-07 0)
(694.73 9.36236e-07 0)
(694.73 1.41828e-06 0)
(694.73 2.14027e-06 0)
(694.73 3.21684e-06 0)
(694.73 4.81499e-06 0)
(694.73 7.17593e-06 0)
(694.73 1.06473e-05 0)
(694.73 1.57208e-05 0)
(694.73 2.3101e-05 0)
(694.73 -2.37118e-14 0)
(694.73 -3.09076e-14 0)
(694.73 -2.72223e-14 0)
(694.73 -3.9548e-14 0)
(694.73 -3.08573e-14 0)
(694.73 -7.13048e-14 0)
(694.73 -1.23671e-13 0)
(694.73 -1.3288e-13 0)
(694.73 -6.51615e-14 0)
(694.73 3.56964e-14 0)
(694.73 2.08679e-13 0)
(694.73 5.0617e-13 0)
(694.73 8.9789e-13 0)
(694.73 1.49389e-12 0)
(694.73 2.49591e-12 0)
(694.73 4.09029e-12 0)
(694.73 6.61141e-12 0)
(694.73 1.06845e-11 0)
(694.73 1.72819e-11 0)
(694.73 2.78482e-11 0)
(694.73 4.47538e-11 0)
(694.73 7.17358e-11 0)
(694.73 1.1463e-10 0)
(694.73 1.82739e-10 0)
(694.73 2.90626e-10 0)
(694.73 4.61134e-10 0)
(694.73 7.30022e-10 0)
(694.73 1.15304e-09 0)
(694.73 1.81679e-09 0)
(694.73 2.8555e-09 0)
(694.73 4.47678e-09 0)
(694.73 7.00037e-09 0)
(694.73 1.09176e-08 0)
(694.73 1.69803e-08 0)
(694.73 2.6336e-08 0)
(694.73 4.07285e-08 0)
(694.73 6.27995e-08 0)
(694.73 9.65336e-08 0)
(694.73 1.4792e-07 0)
(694.73 2.25917e-07 0)
(694.73 3.43878e-07 0)
(694.73 5.21603e-07 0)
(694.73 7.8832e-07 0)
(694.73 1.18695e-06 0)
(694.73 1.78016e-06 0)
(694.73 2.65911e-06 0)
(694.73 3.95527e-06 0)
(694.73 5.85792e-06 0)
(694.73 8.63456e-06 0)
(694.73 1.26682e-05 0)
(694.73 -2.23581e-16 0)
(694.73 -1.5577e-15 0)
(694.73 -2.86695e-14 0)
(694.73 -2.94793e-14 0)
(694.73 -1.12769e-14 0)
(694.73 1.41691e-14 0)
(694.73 3.69297e-14 0)
(694.73 7.6711e-14 0)
(694.73 1.29819e-13 0)
(694.73 1.74447e-13 0)
(694.73 2.70655e-13 0)
(694.73 4.19692e-13 0)
(694.73 6.21342e-13 0)
(694.73 9.52549e-13 0)
(694.73 1.53579e-12 0)
(694.73 2.44973e-12 0)
(694.73 3.91332e-12 0)
(694.73 6.29314e-12 0)
(694.73 1.01516e-11 0)
(694.73 1.63547e-11 0)
(694.73 2.62517e-11 0)
(694.73 4.19862e-11 0)
(694.73 6.70088e-11 0)
(694.73 1.06649e-10 0)
(694.73 1.69248e-10 0)
(694.73 2.67883e-10 0)
(694.73 4.22953e-10 0)
(694.73 6.66138e-10 0)
(694.73 1.04665e-09 0)
(694.73 1.64045e-09 0)
(694.73 2.56464e-09 0)
(694.73 3.99915e-09 0)
(694.73 6.21974e-09 0)
(694.73 9.6473e-09 0)
(694.73 1.49226e-08 0)
(694.73 2.3017e-08 0)
(694.73 3.53983e-08 0)
(694.73 5.42758e-08 0)
(694.73 8.29623e-08 0)
(694.73 1.26404e-07 0)
(694.73 1.91957e-07 0)
(694.73 2.90507e-07 0)
(694.73 4.38099e-07 0)
(694.73 6.58252e-07 0)
(694.73 9.85257e-07 0)
(694.73 1.46891e-06 0)
(694.73 2.18098e-06 0)
(694.73 3.22464e-06 0)
(694.73 4.74558e-06 0)
(694.73 6.9523e-06 0)
(694.73 3.06068e-14 0)
(694.73 4.53276e-14 0)
(694.73 3.82736e-14 0)
(694.73 1.21511e-14 0)
(694.73 2.62884e-14 0)
(694.73 6.67582e-14 0)
(694.73 1.01792e-13 0)
(694.73 1.24876e-13 0)
(694.73 1.61718e-13 0)
(694.73 1.84294e-13 0)
(694.73 1.91419e-13 0)
(694.73 2.1908e-13 0)
(694.73 3.24243e-13 0)
(694.73 5.53883e-13 0)
(694.73 8.92187e-13 0)
(694.73 1.41549e-12 0)
(694.73 2.29266e-12 0)
(694.73 3.71313e-12 0)
(694.73 5.92387e-12 0)
(694.73 9.51415e-12 0)
(694.73 1.52769e-11 0)
(694.73 2.44629e-11 0)
(694.73 3.90448e-11 0)
(694.73 6.2058e-11 0)
(694.73 9.83066e-11 0)