/*--------------------------------*- C++ -*----------------------------------*\
| =========                 |                                                 |
| \\      /  F ield         | OpenFOAM: The Open Source CFD Toolbox           |
|  \\    /   O peration     | Version:  2412                                  |
|   \\  /    A nd           | Website:  www.openfoam.com                      |
|    \\/     M anipulation  |                                                 |
\*---------------------------------------------------------------------------*/
FoamFile
{
    version     2.0;
    format      ascii;
    arch        "LSB;label=32;scalar=64";
    class       volScalarField;
    location    "2";
    object      p;
}
// * * * * * * * * * * * * * * * * * * * * * * * * * * * * * * * * * * * * * //

dimensions      [1 -1 -2 0 0 0 0];

internalField   nonuniform List<scalar> 
5250
(
1
1.00002
1.00006
1.00018
1.00037
1.00104
1.00211
1.00608
1.01186
1.03748
1.06609
1.24277
1.47867
2.62598
5.39268
12.0621
11.601
11.2307
11.3002
11.5229
11.7854
11.9537
12.0779
12.1771
12.2518
1
1.00002
1.00006
1.00018
1.00037
1.00103
1.0021
1.00603
1.01176
1.03708
1.06546
1.24052
1.47087
2.61451
5.33106
11.9961
11.5812
11.2234
11.2926
11.5116
11.7732
11.9427
12.0691
12.1702
12.247
1
1.00002
1.00006
1.00017
1.00036
1.00102
1.00206
1.00592
1.01159
1.0363
1.06452
1.23523
1.45813
2.5859
5.20553
11.8471
11.5325
11.203
11.2663
11.4709
11.7285
11.8977
12.0239
12.1241
12.2005
1
1.00002
1.00006
1.00017
1.00035
1.00099
1.00201
1.00577
1.01135
1.03513
1.06321
1.22719
1.44055
2.54194
5.02335
11.6116
11.4524
11.1753
11.2231
11.3968
11.649
11.817
11.94
12.0374
12.1142
1
1.00002
1.00006
1.00016
1.00034
1.00096
1.00195
1.00556
1.01102
1.03362
1.06149
1.21673
1.41811
2.48546
4.79087
11.2765
11.3232
11.1582
11.1708
11.2936
11.5382
11.7049
11.8221
11.9151
11.9924
1
1.00002
1.00005
1.00016
1.00032
1.00091
1.00185
1.00528
1.0105
1.03181
1.05857
1.20476
1.39129
2.4063
4.52993
10.8145
11.2443
11.1034
11.0824
11.1746
11.389
11.5533
11.6608
11.7455
11.8231
1
1.00002
1.00005
1.00015
1.0003
1.00085
1.00174
1.00495
1.00987
1.02967
1.05508
1.19078
1.36097
2.31221
4.23958
10.2298
11.1682
11.024
10.956
11.0283
11.2096
11.3586
11.4466
11.5123
11.5809
1
1.00002
1.00005
1.00013
1.00028
1.00078
1.00159
1.00454
1.00906
1.02726
1.05051
1.17598
1.3261
2.20755
3.93186
9.52253
11.0878
10.9342
10.7998
10.8516
10.993
11.1121
11.1661
11.1935
11.2306
1
1.00002
1.00004
1.00012
1.00025
1.0007
1.00142
1.00405
1.00799
1.02459
1.04424
1.16049
1.2867
2.09326
3.60277
8.69158
11.012
10.8368
10.6186
10.6468
10.7386
10.8069
10.8013
10.7508
10.6807
1
1.00001
1.00003
1.0001
1.00021
1.0006
1.00122
1.00352
1.00686
1.02168
1.03808
1.14137
1.24823
1.96662
3.25364
7.74288
10.9609
10.745
10.4184
10.4148
10.4467
10.4394
10.3551
10.132
9.74658
1
1.00001
1.00003
1.00007
1.0002
1.00041
1.00121
1.00222
1.00752
1.01252
1.04774
1.07793
1.30813
1.62863
3.0712
6.5737
10.9147
10.6685
10.2259
10.1525
10.1308
10.0418
9.78157
9.16194
7.57714
1
1.00001
1.00003
1.00008
1.00016
1.00046
1.00094
1.00268
1.00539
1.01582
1.03051
1.09859
1.18518
1.64522
2.50757
5.43125
10.7492
10.5135
10.0444
9.89528
9.81265
9.62419
9.20495
8.35317
6.69834
1
1.00001
1.00002
1.00007
1.00014
1.00039
1.0008
1.00228
1.00461
1.01333
1.02632
1.08174
1.15673
1.53254
2.23257
4.71096
10.1528
10.1507
9.89595
9.64331
9.4916
9.22332
8.70434
7.82437
6.4747
1
1.00001
1.00002
1.00005
1.00011
1.00032
1.00065
1.00185
1.00367
1.01105
1.02009
1.07041
1.11953
1.45531
1.97826
4.10907
8.95462
9.82064
9.684
9.40288
9.18152
8.86368
8.33229
7.52157
6.43765
1
1.00001
1.00002
1.00005
1.00009
1.00026
1.00054
1.00152
1.00302
1.00904
1.01643
1.05765
1.09598
1.37292
1.76396
3.5158
7.53072
9.59036
9.49348
9.23023
8.92349
8.56878
8.05875
7.33475
6.42546
1
1.00001
1.00001
1.00004
1.00008
1.00021
1.00044
1.00123
1.00248
1.00721
1.0137
1.04505
1.07736
1.29039
1.58692
2.92203
6.01002
9.41099
9.35574
9.11134
8.72196
8.33271
7.84896
7.20351
6.42123
1
1
1.00001
1.00003
1.00006
1.00017
1.00035
1.00097
1.00197
1.0056
1.01109
1.03356
1.06158
1.21095
1.42141
2.35649
4.42004
9.01083
9.20483
9.00956
8.5879
8.14949
7.67955
7.09954
6.41533
1
1
1.00001
1.00002
1.00005
1.00013
1.00027
1.00075
1.00153
1.00432
1.0086
1.02564
1.0474
1.16371
1.29849
2.08747
3.54463
7.91032
8.93397
8.80422
8.46635
7.99988
7.53752
7.01113
6.40353
1
1
1.00001
1.00002
1.00004
1.0001
1.0002
1.00057
1.00115
1.00325
1.00641
1.01944
1.03504
1.12448
1.21926
1.81443
2.85466
6.26898
8.66385
8.60756
8.37051
7.89155
7.42982
6.94019
6.39061
1
1
1
1.00001
1.00003
1.00006
1.00017
1.00035
1.00097
1.00195
1.00564
1.01065
1.03477
1.05977
1.21863
1.42905
2.38082
4.42947
8.24419
8.46544
8.28975
7.86738
7.36004
6.88276
6.38285
1
1
1
1.00001
1.00002
1.00005
1.00013
1.00026
1.00072
1.00145
1.00411
1.0081
1.02467
1.04453
1.15718
1.28304
2.02447
3.35656
7.23682
8.25104
8.13912
7.82421
7.31629
6.83929
6.37207
1
1
1
1.00001
1.00001
1.00004
1.00007
1.00021
1.00042
1.00118
1.00229
1.00712
1.01236
1.04502
1.0736
1.28262
1.55653
2.79984
5.45515
7.9356
7.92364
7.7435
7.32279
6.8313
6.37325
1
1
1
1
1.00001
1.00002
1.00006
1.00013
1.00037
1.00075
1.00211
1.00425
1.01225
1.02424
1.07298
1.14635
1.45179
2.03997
3.81168
7.28001
7.76241
7.64416
7.32098
6.83874
6.38056
1
1
1
1
1.00001
1.00002
1.00004
1.0001
1.00021
1.00059
1.00119
1.00339
1.0065
1.02055
1.03574
1.12919
1.2257
1.83742
2.84259
5.95135
7.5284
7.49046
7.30067
6.8737
6.40228
1
1
1
1
1.00001
1.00001
1.00003
1.00006
1.00017
1.00035
1.00097
1.00196
1.00559
1.01077
1.03392
1.05947
1.21121
1.40843
2.30154
4.10302
7.02885
7.36003
7.24551
6.93978
6.45203
1
1
1
1
1
1.00001
1.00002
1.00004
1.00012
1.00024
1.00066
1.00133
1.00373
1.00737
1.02207
1.0401
1.13816
1.2471
1.86868
2.92692
5.95061
7.15251
7.11818
6.93706
6.54179
1
1
1
1
1
1.00001
1.00001
1.00003
1.00007
1.00018
1.00037
1.00102
1.00207
1.00586
1.01142
1.03523
1.06301
1.21777
1.42854
2.32273
4.13551
6.69067
6.99419
6.89619
6.63005
1
1
1
1
1
1
1.00001
1.00002
1.00005
1.0001
1.00029
1.00059
1.00163
1.0033
1.00934
1.01863
1.05442
1.11046
1.32723
1.73911
2.9872
5.65558
6.78239
6.7707
6.62592
1
1
1
1
1
1
1.00001
1.00001
1.00003
1.00008
1.00016
1.00044
1.00089
1.00247
1.00496
1.01408
1.02759
1.08367
1.16062
1.50848
2.13015
3.92274
6.31337
6.65338
6.57993
1
1
1
1
1
1
1
1.00001
1.00002
1.00005
1.0001
1.00028
1.00057
1.00157
1.00318
1.00887
1.01771
1.0511
1.10292
1.30383
1.67556
2.81843
5.24247
6.42391
6.45259
1
1
1
1
1
1
1
1
1.00001
1.00003
1.00007
1.00015
1.00041
1.00082
1.00226
1.00456
1.01279
1.02525
1.07452
1.14665
1.4436
1.98532
3.48848
5.90828
6.34141
1
1
1
1
1
1
1
1
1.00001
1.00002
1.00005
1.00009
1.00025
1.00051
1.0014
1.00283
1.00785
1.01565
1.04503
1.08892
1.26555
1.58314
2.57638
4.71397
6.07372
1
1
1
1
1
1
1
1
1
1.00001
1.00002
1.00006
1.00013
1.00035
1.00072
1.00196
1.00395
1.01103
1.02204
1.06285
1.12903
1.36787
1.82203
3.05492
5.43787
1
1
1
1
1
1
1
1
1
1.00001
1.00002
1.00003
1.00009
1.00018
1.0005
1.00101
1.00277
1.0055
1.01591
1.02921
1.09588
1.16995
1.56753
2.20801
4.07161
1
1
1
1
1
1
1
1
1
1
1.00001
1.00002
1.00005
1.00011
1.0003
1.00061
1.00166
1.00336
1.00924
1.01864
1.05197
1.10783
1.30136
1.67082
2.70058
1
1
1
1
1
1
1
1
1
1
1.00001
1.00001
1.00003
1.00006
1.00017
1.00035
1.00095
1.00192
1.00522
1.01046
1.02946
1.05643
1.17188
1.34067
1.97092
1
1
1
1
1
1
1
1
1
1
1
1.00001
1.00002
1.00004
1.00009
1.00023
1.00047
1.00127
1.00256
1.00705
1.01396
1.04007
1.07812
1.23057
1.49696
1
1
1
1
1
1
1
1
1
1
1
1
1.00001
1.00002
1.00005
1.00013
1.00027
1.00071
1.00145
1.00392
1.00788
1.02183
1.04292
1.12521
1.24939
1
1
1
1
1
1
1
1
1
1
1
1
1.00001
1.00001
1.00003
1.00006
1.00017
1.00034
1.00091
1.00184
1.005
1.00996
1.02817
1.05344
1.16245
1
1
1
1
1
1
1
1
1
1
1
1
1
1.00001
1.00001
1.00004
1.00008
1.00022
1.00044
1.00119
1.00241
1.00655
1.01315
1.03644
1.07439
1
1
1
1
1
1
1
1
1
1
1
1
1
1
1.00001
1.00002
1.00004
1.00012
1.00024
1.00065
1.00131
1.00353
1.00711
1.01951
1.03845
1
1
1
1
1
1
1
1
1
1
1
1
1
1
1
1.00001
1.00003
1.00005
1.00015
1.0003
1.00079
1.0016
1.00431
1.00861
1.02378
1
1
1
1
1
1
1
1
1
1
1
1
1
1
1
1.00001
1.00001
1.00003
1.00007
1.00018
1.00037
1.00099
1.00199
1.00537
1.0107
1
1
1
1
1
1
1
1
1
1
1
1
1
1
1
1
1.00001
1.00002
1.00004
1.00008
1.00022
1.00046
1.00122
1.00245
1.00662
1
1
1
1
1
1
1
1
1
1
1
1
1
1
1
1
1
1.00001
1.00002
1.00004
1.00012
1.00024
1.00063
1.00129
1.00342
1
1
1
1
1
1
1
1
1
1
1
1
1
1
1
1
1
1
1.00001
1.00003
1.00005
1.00014
1.00028
1.00074
1.0015
1
1
1
1
1
1
1
1
1
1
1
1
1
1
1
1
1
1
1.00001
1.00001
1.00003
1.00007
1.00015
1.00038
1.00077
1
1
1
1
1
1
1
1
1
1
1
1
1
1
1
1
1
1
1
1.00001
1.00001
1.00004
1.00007
1.0002
1.0004
1
1
1
1
1
1
1
1
1
1
1
1
1
1
1
1
1
1
1
1
1.00001
1.00002
1.00005
1.00009
1.00025
1
1
1
1
1
1
1
1
1
1
1
1
1
1
1
1
1
1
1
1
1.00001
1.00001
1.00003
1.00008
1.00016
3.05396
1.5379
1.03002
0.923918
0.949338
1.02754
1.19244
1.32524
1.36736
1.36573
1.3602
1.35789
1.35919
1.36312
1.37129
1.37785
1.37932
1.37904
1.37807
1.37591
1.37255
1.36968
1.36713
1.36438
1.36121
1.35768
1.35393
1.35007
1.34611
1.34205
1.33786
1.33352
1.32902
1.3244
1.31964
1.31498
1.31041
1.30873
1.30936
1.31204
1.31989
1.34016
1.38878
1.50292
1.77111
2.41218
3.77729
4.51751
4.27185
4.39124
4.56605
4.69113
4.75318
4.77912
4.77809
4.76843
4.74085
4.68566
4.62488
4.56269
4.50025
4.43735
4.37336
4.30853
4.24327
4.17809
4.11307
4.04828
3.98362
3.91923
3.85521
3.79171
3.72886
3.66672
3.6054
3.54496
3.48555
3.4271
3.36966
3.31309
3.25762
3.20304
3.1494
3.09652
3.04455
2.99337
2.94321
2.89404
2.84595
2.79867
2.75239
2.70691
2.66253
2.61892
2.57652
2.53506
2.49535
2.45788
2.42612
2.40333
3.71765
2.29837
1.69673
1.44731
1.3332
1.26297
1.24663
1.25416
1.27544
1.31928
1.36357
1.38205
1.38163
1.37988
1.37612
1.37486
1.37506
1.37564
1.37631
1.37614
1.37543
1.37369
1.37011
1.36579
1.36174
1.35801
1.35441
1.35073
1.34686
1.34278
1.33851
1.33407
1.32949
1.3248
1.31996
1.31525
1.31036
1.30799
1.30851
1.31079
1.31742
1.3347
1.37638
1.47632
1.71387
2.2824
3.61794
4.74549
4.64224
4.49365
4.51837
4.58006
4.6527
4.70106
4.71919
4.71676
4.70537
4.67619
4.61757
4.55087
4.48655
4.42381
4.3611
4.29779
4.23399
4.16995
4.10587
4.04179
3.97775
3.91387
3.85035
3.78723
3.72472
3.66281
3.60175
3.54147
3.48226
3.42393
3.36668
3.31017
3.25506
3.20079
3.14746
3.0948
3.04312
2.99219
2.94228
2.89305
2.84484
2.79749
2.75125
2.70584
2.66148
2.61792
2.57547
2.53392
2.49407
2.4559
2.42429
2.3982
4.56188
3.23914
2.41517
1.89677
1.56626
1.36114
1.24257
1.22687
1.23393
1.25453
1.29757
1.33899
1.36511
1.3773
1.37747
1.37695
1.37556
1.37333
1.37224
1.37138
1.37035
1.36894
1.36679
1.36399
1.36068
1.35709
1.35333
1.34944
1.34545
1.34137
1.33717
1.33285
1.32837
1.32378
1.31898
1.31441
1.30963
1.30812
1.30877
1.31139
1.31861
1.33693
1.37749
1.47009
1.66783
2.093
2.96726
4.63293
5.02933
4.97568
4.84494
4.74767
4.69479
4.67566
4.66243
4.64915
4.63746
4.61882
4.58242
4.53016
4.47177
4.41141
4.34982
4.28716
4.22389
4.1603
4.09673
4.03315
3.96987
3.90673
3.84398
3.78136
3.71929
3.65763
3.59693
3.53694
3.47824
3.42035
3.36368
3.30786
3.25277
3.19828
3.14492
3.09226
3.04072
2.98982
2.94003
2.89088
2.84288
2.7956
2.7495
2.70409
2.65984
2.61625
2.57385
2.53219
2.49221
2.45361
2.42057
2.39376
5.02939
3.83133
2.95031
2.33941
1.93161
1.65744
1.48526
1.37706
1.31393
1.29519
1.29816
1.30843
1.33049
1.35733
1.37556
1.38447
1.38425
1.38314
1.38051
1.37614
1.37312
1.37089
1.36897
1.36678
1.36413
1.36067
1.35677
1.35252
1.34813
1.34371
1.33927
1.33477
1.33016
1.32541
1.32057
1.316
1.31208
1.31228
1.31362
1.31811
1.32948
1.35765
1.41787
1.54996
1.8156
2.35122
2.91377
3.62887
4.31959
4.78016
4.86409
4.83988
4.78194
4.69695
4.64008
4.60837
4.57748
4.54893
4.51761
4.48086
4.43753
4.38645
4.33017
4.27057
4.20919
4.14666
4.08375
4.02068
3.95818
3.89584
3.834
3.77213
3.71077
3.64969
3.58963
3.53018
3.47188
3.41423
3.35784
3.3021
3.24745
3.19332
3.14039
3.08804
3.03689
2.98626
2.93683
2.8879
2.84017
2.79297
2.747
2.70158
2.65742
2.61379
2.57145
2.52968
2.4896
2.45063
2.41623
2.38904
5.30831
4.26232
3.41414
2.7731
2.30686
1.96808
1.7227
1.5468
1.42381
1.34519
1.30284
1.29962
1.30263
1.31147
1.32988
1.34903
1.3626
1.37152
1.37245
1.37199
1.37061
1.3677
1.36426
1.36119
1.35829
1.35541
1.35225
1.34876
1.34492
1.34078
1.33642
1.33191
1.32732
1.32267
1.31831
1.31429
1.31375
1.31461
1.31782
1.32763
1.34952
1.4021
1.51017
1.73632
2.18568
2.64759
2.9173
3.18447
3.50701
3.87633
4.28893
4.57398
4.72559
4.72476
4.70729
4.66284
4.58705
4.53022
4.48068
4.43466
4.38851
4.34309
4.29566
4.24409
4.18903
4.13031
4.06901
4.0064
3.9439
3.88146
3.81985
3.75872
3.69886
3.63936
3.58079
3.52243
3.46499
3.40782
3.35174
3.29611
3.2417
3.18776
3.13507
3.08288
3.03197
2.98154
2.93237
2.88365
2.83618
2.78913
2.74337
2.69805
2.65405
2.61047
2.56828
2.52648
2.48641
2.44726
2.41196
2.38436
5.49932
4.58961
3.80153
3.16413
2.66765
2.28699
1.9976
1.77896
1.61532
1.49624
1.41037
1.35365
1.32376
1.31856
1.3206
1.32687
1.34012
1.35578
1.36731
1.37496
1.37492
1.37429
1.37254
1.36885
1.36399
1.35948
1.3555
1.3519
1.3483
1.34451
1.34024
1.33549
1.33035
1.3254
1.32095
1.31918
1.31981
1.32242
1.33136
1.34996
1.39889
1.49604
1.70719
2.12575
2.60569
2.8548
2.95328
3.03515
3.14835
3.29357
3.48358
3.757
4.10196
4.39659
4.59272
4.64519
4.63093
4.59072
4.50646
4.42681
4.36011
4.30108
4.24966
4.20428
4.15857
4.10857
4.05417
3.99421
3.93127
3.86723
3.80457
3.74313
3.68359
3.62495
3.56765
3.51071
3.45464
3.39862
3.34347
3.28851
3.2346
3.18103
3.12865
3.07669
3.02602
2.9758
2.92688
2.87836
2.83116
2.78431
2.7388
2.6936
2.64982
2.60631
2.56428
2.52249
2.48247
2.44336
2.40734
2.37925
5.63207
4.84019
4.12004
3.50546
3.00107
2.59528
2.27344
2.01891
1.8186
1.66207
1.54024
1.45082
1.38409
1.34331
1.32143
1.3196
1.32125
1.32612
1.33631
1.34791
1.35626
1.36213
1.36207
1.36145
1.35974
1.35618
1.35143
1.34678
1.34249
1.33851
1.33459
1.33075
1.32683
1.32299
1.3209
1.32141
1.32352
1.33186
1.34753
1.39352
1.47971
1.67866
2.06691
2.58915
2.86337
2.95357
2.97543
2.98971
3.00152
3.02567
3.08128
3.18877
3.34448
3.59609
3.93174
4.25711
4.48689
4.56952
4.55417
4.50737
4.40954
4.30824
4.22826
4.16332
4.10791
4.06256
4.01989
3.97497
3.9194
3.85883
3.79716
3.73441
3.67272
3.61233
3.55413
3.49698
3.44128
3.38603
3.33185
3.27785
3.22484
3.17203
3.12032
3.06887
3.01862
2.96871
2.92007
2.87179
2.82484
2.7782
2.73296
2.68797
2.64445
2.60113
2.55933
2.51773
2.47783
2.43886
2.40263
2.37393
5.72506
5.02957
4.37421
3.792
3.29448
2.87913
2.5377
2.25897
2.03261
1.84975
1.70267
1.58583
1.49429
1.42565
1.37469
1.34413
1.32698
1.32494
1.32625
1.33017
1.33846
1.34848
1.35597
1.36132
1.36124
1.36054
1.35856
1.35439
1.34837
1.34251
1.33708
1.33246
1.32827
1.32648
1.32699
1.32899
1.33621
1.35119
1.39305
1.47466
1.66105
2.02852
2.58101
2.88509
2.98453
2.99989
2.99498
2.97651
2.93762
2.90165
2.90146
2.91484
2.95934
3.05718
3.20786
3.44701
3.77708
4.12336
4.37927
4.48667
4.46954
4.41658
4.30589
4.18343
4.08175
4.00333
3.94899
3.90738
3.87095
3.82917
3.7799
3.72459
3.66639
3.60645
3.54682
3.48755
3.43015
3.37387
3.31929
3.26544
3.21297
3.16094
3.11004
3.05938
3.00982
2.96047
2.91228
2.86436
2.81771
2.77134
2.72633
2.68159
2.63828
2.5952
2.55361
2.51223
2.47248
2.43358
2.39746
2.36824
5.7919
5.17477
4.57915
4.03358
3.55221
3.13772
2.78673
2.49237
2.24703
2.04336
1.87478
1.73582
1.62209
1.53014
1.45737
1.40205
1.36151
1.33813
1.32498
1.32369
1.32464
1.32757
1.33374
1.34069
1.34602
1.34764
1.34741
1.34654
1.34445
1.34023
1.33492
1.32993
1.32613
1.32641
1.32824
1.33388
1.34983
1.38431
1.4669
1.63333
1.98195
2.56007
2.90839
3.02151
3.03937
3.03299
3.00799
2.95644
2.89791
2.84429
2.80836
2.78419
2.78678
2.80093
2.8421
2.93258
3.07733
3.3024
3.6227
3.98298
4.26438
4.39238
4.37469
4.31943
4.20401
4.07079
3.95859
3.869
3.80898
3.7636
3.72569
3.68626
3.6417
3.59043
3.53545
3.47846
3.42128
3.36393
3.30803
3.25321
3.20019
3.14801
3.09733
3.04717
2.99827
2.94965
2.9022
2.85496
2.80891
2.76307
2.71852
2.67418
2.63121
2.58845
2.54713
2.50605
2.4665
2.42775
2.39179
2.3622
5.84415
5.28822
4.74419
4.23496
3.77448
3.36789
3.01509
2.71227
2.45433
2.23554
2.05063
1.89467
1.76369
1.65425
1.56387
1.49004
1.43188
1.38709
1.35386
1.33484
1.32386
1.32234
1.32307
1.3252
1.33026
1.33586
1.34121
1.34247
1.34213
1.34102
1.33857
1.33404
1.33295
1.3341
1.33945
1.35189
1.38663
1.45806
1.62023
1.94406
2.54767
2.92888
3.06184
3.08331
3.07703
3.05089
2.99722
2.9337
2.8726
2.81604
2.76576
2.72349
2.69444
2.67348
2.67618
2.68963
2.72729
2.80953
2.94706
3.15822
3.46707
3.8337
4.14277
4.2857
4.26723
4.21075
4.09277
3.95199
3.83626
3.74639
3.67978
3.62865
3.58696
3.54733
3.50488
3.4575
3.40623
3.35249
3.29834
3.2438
3.19011
3.13702
3.08556
3.03493
2.98593
2.93754
2.89057
2.84394
2.7986
2.75345
2.70956
2.6658
2.62334
2.58102
2.54006
2.4993
2.46
2.42142
2.38563
2.35569
5.88166
5.37755
4.87911
4.40478
3.96742
3.57326
3.22412
2.91839
2.65299
2.42368
2.2264
2.05693
1.91183
1.78775
1.6823
1.59304
1.51868
1.45737
1.40909
1.37152
1.34392
1.32794
1.31893
1.31716
1.31764
1.31918
1.32262
1.32627
1.32969
1.33157
1.33195
1.33254
1.33399
1.33962
1.351
1.38405
1.45019
1.60296
1.90535
2.51725
2.95412
3.10222
3.12963
3.12371
3.09817
3.04571
2.97939
2.91422
2.8534
2.79646
2.74358
2.69449
2.65082
2.61276
2.58605
2.56577
2.56777
2.57902
2.61165
2.68591
2.81628
3.01187
3.30554
3.67295
3.98525
4.16012
4.14227
4.08859
3.98106
3.83925
3.72051
3.62772
3.55574
3.49977
3.45372
3.41193
3.37043
3.32594
3.27861
3.22852
3.1776
3.12584
3.0747
3.02377
2.97431
2.92552
2.87839
2.83185
2.78684
2.74219
2.69892
2.65582
2.61403
2.57229
2.53189
2.49154
2.45269
2.41436
2.37883
2.34862
5.91438
5.45061
4.99147
4.54963
4.13579
3.7563
3.41426
3.10951
2.84048
2.60431
2.39791
2.21794
2.06138
1.92538
1.80756
1.70577
1.61845
1.54402
1.48176
1.43021
1.3897
1.35804
1.335
1.32118
1.3133
1.3115
1.31188
1.31318
1.31605
1.32079
1.32526
1.32969
1.33682
1.35234
1.38306
1.45366
1.59428
1.89209
2.48527
2.97446
3.14712
3.18129
3.17565
3.15071
3.09861
3.02972
2.9615
2.89719
2.83729
2.78069
2.72731
2.67641
2.62857
2.58353
2.54281
2.50618
2.4798
2.45902
2.4597
2.46838
2.49686
2.56204
2.68403
2.86347
3.13432
3.49387
3.82267
4.02831
4.01131
3.96219
3.86933
3.72953
3.60758
3.51167
3.43653
3.37601
3.3259
3.28209
3.24053
3.19772
3.15362
3.10742
3.06026
3.01179
2.96358
2.91515
2.86792
2.82106
2.7758
2.73102
2.68783
2.64497
2.60358
2.5623
2.52244
2.48259
2.44423
2.40627
2.3711
2.3408
5.94386
5.51263
5.08877
4.67666
4.28548
3.92144
3.58817
3.28678
3.01672
2.77631
2.5633
2.37518
2.20943
2.0636
1.93554
1.82329
1.72519
1.63982
1.56608
1.50296
1.4499
1.40593
1.37108
1.34415
1.32482
1.31291
1.30604
1.30566
1.30644
1.30853
1.31383
1.32392
1.34012
1.37222
1.44057
1.57682
1.8609
2.43026
2.98346
3.18634
3.22896
3.22469
3.20237
3.15376
3.08369
3.01212
2.94484
2.88175
2.82267
2.76643
2.71302
2.66159
2.61242
2.56488
2.51971
2.47684
2.43748
2.40211
2.375
2.35412
2.35159
2.35829
2.38294
2.43909
2.5486
2.71169
2.95856
3.30093
3.6499
3.88912
3.87366
3.83004
3.75321
3.61944
3.49401
3.39686
3.32045
3.25687
3.20427
3.15813
3.11616
3.07478
3.03336
2.99031
2.94682
2.90158
2.85634
2.81053
2.76563
2.72082
2.67742
2.63439
2.5929
2.55168
2.512
2.47244
2.43448
2.39687
2.36211
2.33188
5.9797
5.57666
5.1781
4.79054
4.4196
4.07045
3.74671
3.45014
3.18096
2.93845
2.721
2.52679
2.35375
2.19999
2.06341
1.94249
1.83536
1.74096
1.65779
1.5852
1.52207
1.46802
1.42236
1.38456
1.35463
1.33142
1.3157
1.30542
1.30576
1.30808
1.3139
1.329
1.35789
1.4223
1.54936
1.8138
2.34064
2.96252
3.21117
3.26527
3.26268
3.24505
3.2051
3.13481
3.06125
2.99134
2.92651
2.86546
2.80778
2.75229
2.69913
2.64751
2.59779
2.54932
2.50267
2.45725
2.41396
2.37269
2.33433
2.30002
2.27183
2.25099
2.24439
2.24967
2.27001
2.31728
2.41267
2.55995
2.7811
3.10353
3.45926
3.7369
3.72688
3.69472
3.63293
3.50857
3.38229
3.28519
3.20838
3.14468
3.09041
3.0418
2.99905
2.95849
2.91885
2.87833
2.83743
2.79518
2.75277
2.70953
2.66699
2.6243
2.58278
2.54148
2.50163
2.46196
2.4241
2.38644
2.3521
2.32185
6.02878
5.63915
5.26292
4.89631
4.54192
4.20571
3.89109
3.60003
3.33305
3.08987
2.86978
2.67126
2.49276
2.3327
2.18929
2.06118
1.94658
1.84467
1.7536
1.6732
1.60171
1.53931
1.48466
1.43779
1.39836
1.36506
1.34088
1.31972
1.31856
1.32105
1.33195
1.35315
1.41071
1.51989
1.76122
2.23435
2.90256
3.20763
3.28902
3.28815
3.27573
3.24355
3.17764
3.10084
3.03008
2.9651
2.90466
2.8468
2.79115
2.73683
2.68422
2.63275
2.58294
2.5342
2.487
2.44074
2.39611
2.35244
2.31077
2.2708
2.23338
2.19993
2.17084
2.15004
2.13994
2.14371
2.15985
2.19733
2.27967
2.41129
2.60875
2.90554
3.26052
3.56677
3.57919
3.55827
3.50484
3.39467
3.27471
3.17808
3.10195
3.03859
2.98282
2.93303
2.88918
2.84859
2.80982
2.77084
2.73207
2.69227
2.65246
2.6118
2.57158
2.531
2.49148
2.45182
2.41396
2.37592
2.34187
2.31121
6.09488
5.7029
5.33969
4.99006
4.65231
4.32845
4.02281
3.73738
3.47364
3.23116
3.00973
2.80841
2.62605
2.46105
2.31233
2.17834
2.05755
1.94939
1.85165
1.7647
1.68619
1.6168
1.55473
1.50026
1.45292
1.4115
1.37968
1.35067
1.35096
1.35547
1.37461
1.41318
1.51776
1.71906
2.14567
2.80295
3.1881
3.29678
3.3071
3.29571
3.26422
3.19892
3.12379
3.05487
2.99271
2.93448
2.87887
2.82433
2.77093
2.71814
2.66657
2.61581
2.56646
2.51796
2.4708
2.42441
2.37931
2.33494
2.29206
2.25002
2.20991
2.17126
2.1351
2.10249
2.07319
2.05256
2.0394
2.04198
2.05372
2.0833
2.15081
2.26772
2.44662
2.71207
3.06359
3.3835
3.43625
3.41856
3.37314
3.27831
3.17119
3.07572
3.00028
2.93596
2.88053
2.83058
2.7857
2.74435
2.70577
2.66776
2.63068
2.59288
2.55554
2.51721
2.47933
2.44078
2.40361
2.36566
2.33184
2.30075
6.17952
5.77843
5.41752
5.0763
4.75084
4.4398
4.14306
3.86389
3.60363
3.36295
3.14163
2.93838
2.75368
2.58492
2.43201
2.29343
2.1674
2.05407
1.95068
1.85807
1.77373
1.69822
1.63003
1.56918
1.51503
1.46811
1.42834
1.4027
1.40472
1.4172
1.44727
1.53696
1.70924
2.08728
2.73683
3.17359
3.31383
3.3253
3.31359
3.27997
3.21033
3.13394
3.06697
3.00743
2.95249
2.89944
2.84762
2.79602
2.74504
2.69427
2.6444
2.59506
2.54683
2.49917
2.45262
2.40659
2.36162
2.31724
2.27404
2.23153
2.19049
2.15029
2.11197
2.0749
2.04039
2.00857
1.9801
1.95903
1.94324
1.94435
1.95215
1.97548
2.02881
2.13063
2.29243
2.52488
2.87006
3.19048
3.29362
3.27835
3.2401
3.1637
3.07117
2.97792
2.90096
2.83689
2.78287
2.7328
2.68719
2.64493
2.6064
2.56921
2.53345
2.49735
2.46215
2.42584
2.39052
2.35398
2.32098
2.29018
6.29428
5.86339
5.49294
5.15726
4.8406
4.53972
4.25326
3.98085
3.72515
3.48643
3.26637
3.06251
2.87591
2.70507
2.54843
2.40639
2.276
2.15805
2.0501
1.95219
1.86312
1.78203
1.70878
1.64246
1.58287
1.53245
1.48759
1.47868
1.48532
1.50889
1.5849
1.73564
2.0723
2.71998
3.18592
3.3546
3.36626
3.35463
3.31418
3.2296
3.14527
3.07435
3.0147
2.9602
2.9088
2.8587
2.80961
2.76064
2.71221
2.66388
2.61628
2.56896
2.52245
2.47623
2.43083
2.38569
2.34144
2.29757
2.25472
2.21245
2.17138
2.13102
2.09209
2.05401
2.01764
1.9824
1.94953
1.91855
1.89122
1.86894
1.8522
1.8495
1.85422
1.87324
1.91454
2.00091
2.14402
2.34727
2.67781
2.98807
3.14741
3.13646
3.10575
3.0557
2.96995
2.88066
2.80372
2.7416
2.68825
2.63854
2.59297
2.55041
2.51204
2.47533
2.44064
2.40579
2.37261
2.33818
2.30679
2.27761
6.3654
5.95088
5.57202
5.23928
4.93008
4.63403
4.35404
4.08917
3.83869
3.60314
3.38426
3.18128
2.99353
2.8212
2.6623
2.51684
2.38347
2.26113
2.14943
2.04688
1.95344
1.86773
1.78994
1.71887
1.65682
1.60157
1.5719
1.57602
1.59528
1.66163
1.79981
2.11641
2.73808
3.24337
3.43719
3.44001
3.42526
3.37448
3.27405
3.18577
3.10693
3.03684
2.9741
2.91691
2.8652
2.81567
2.76778
2.72037
2.67383
2.62761
2.58215
2.53691
2.49236
2.44794
2.40413
2.36044
2.31743
2.27464
2.23272
2.19122
2.15076
2.11089
2.07224
2.03421
1.99757
1.96164
1.9272
1.8938
1.86233
1.83239
1.80595
1.78249
1.76562
1.75852
1.7618
1.77592
1.80786
1.87889
2.00089
2.18322
2.48424
2.78249
2.99189
2.99611
2.98059
2.94121
2.86395
2.78422
2.71154
2.64969
2.5965
2.54798
2.50319
2.46084
2.42256
2.38594
2.35234
2.31849
2.28842
2.26112
6.3511
6.08924
5.67925
5.32612
5.01439
4.72574
4.45085
4.19023
3.94511
3.71342
3.49684
3.2949
3.10729
2.93363
2.77322
2.62514
2.48884
2.3633
2.24775
2.14161
2.04398
1.95443
1.87281
1.79845
1.73587
1.68483
1.68639
1.70074
1.76074
1.88773
2.19321
2.7952
3.3528
3.5666
3.56327
3.53869
3.47066
3.36009
3.25732
3.16882
3.09068
3.01983
2.95425
2.89221
2.83425
2.77974
2.72987
2.6813
2.63469
2.58899
2.54449
2.50053
2.45745
2.41459
2.3724
2.33031
2.28885
2.24754
2.20699
2.16672
2.12739
2.08849
2.05066
2.01329
1.97712
1.94138
1.90694
1.87301
1.84042
1.80873
1.77855
1.74992
1.72403
1.70048
1.68339
1.67248
1.67457
1.68413
1.70908
1.76394
1.86548
2.03345
2.28998
2.58431
2.82649
2.86604
2.85328
2.8221
2.75872
2.68989
2.62255
2.55954
2.50771
2.46081
2.41745
2.37533
2.33752
2.30106
2.2699
2.24206
6.29837
6.1373
5.79698
5.42383
5.1013
4.81251
4.54313
4.28784
4.04606
3.8185
3.60456
3.40447
3.21734
3.04326
2.88148
2.73148
2.59266
2.46419
2.34554
2.23589
2.1349
2.04201
1.95741
1.88377
1.82183
1.81027
1.82187
1.87501
1.99292
2.29723
2.89288
3.50892
3.74222
3.73692
3.70406
3.61633
3.47991
3.35721
3.25394
3.16501
3.08638
3.01473
2.9468
2.88146
2.81925
2.75933
2.70291
2.64985
2.60081
2.5533
2.5079
2.46365
2.42079
2.37856
2.33732
2.29642
2.25631
2.21644
2.17736
2.13855
2.10062
2.06301
2.02636
1.99005
1.95476
1.91979
1.88592
1.85233
1.81995
1.7879
1.75714
1.72706
1.6983
1.67102
1.64565
1.62287
1.60503
1.59134
1.59196
1.59773
1.61649
1.65703
1.74217
1.89294
2.1007
2.39328
2.64932
2.73452
2.72614
2.69991
2.65896
2.59482
2.53254
2.47299
2.42259
2.37654
2.33519
2.29359
2.25904
2.22647
6.18774
6.11311
5.91234
5.53461
5.19583
4.90105
4.63289
4.38181
4.14512
3.92097
3.70969
3.51048
3.32411
3.14969
2.98706
2.83542
2.69449
2.56357
2.44207
2.32959
2.22574
2.13044
2.04652
1.97447
1.94913
1.95935
2.00582
2.12666
2.42209
3.0178
3.7026
3.95871
3.95124
3.91047
3.80448
3.64388
3.49874
3.37587
3.27113
3.17842
3.09486
3.01721
2.94549
2.87836
2.81338
2.75005
2.68936
2.631
2.5764
2.5248
2.47684
2.43067
2.38651
2.34352
2.30204
2.26132
2.22176
2.18273
2.14471
2.10712
2.07047
2.03417
1.99882
1.96375
1.92963
1.89573
1.86281
1.83007
1.79837
1.76682
1.73641
1.7062
1.67722
1.64871
1.62151
1.59546
1.57096
1.54909
1.53025
1.51609
1.51258
1.51595
1.53071
1.56081
1.62996
1.75778
1.9268
2.20406
2.46493
2.59374
2.60055
2.58805
2.55754
2.49785
2.44335
2.38973
2.34043
2.29514
2.25913
2.22073
6.04012
6.0275
5.91555
5.66029
5.3057
4.99569
4.72381
4.47466
4.24119
4.02032
3.81119
3.61448
3.42838
3.25382
3.09025
2.93732
2.79452
2.66139
2.53757
2.4227
2.31693
2.22258
2.14082
2.1022
2.11083
2.15264
2.27289
2.5594
3.16039
3.92602
4.21061
4.20095
4.15236
4.02743
3.84286
3.67658
3.53609
3.41465
3.30717
3.20912
3.11896
3.03453
2.95586
2.88148
2.81214
2.74709
2.68364
2.62224
2.5635
2.507
2.4543
2.40467
2.35782
2.31277
2.26981
2.22808
2.18799
2.14883
2.11106
2.07399
2.03812
2.00277
1.9685
1.93458
1.90165
1.86893
1.83714
1.80548
1.77475
1.7441
1.71443
1.68483
1.6563
1.62791
1.60067
1.57378
1.54817
1.52337
1.5001
1.47888
1.45986
1.44565
1.43808
1.44043
1.44963
1.47542
1.52621
1.62883
1.77479
2.01608
2.278
2.44266
2.48268
2.47315
2.44994
2.40645
2.35704
2.3074
2.26597
2.22318
5.67152
5.92071
5.8758
5.72803
5.42143
5.09886
4.81883
4.56862
4.33671
4.11866
3.91123
3.71531
3.53061
3.35578
3.19144
3.03719
2.89278
2.7578
2.63215
2.51584
2.41123
2.32037
2.26837
2.27553
2.31622
2.43157
2.72684
3.33738
4.18423
4.49817
4.48613
4.42813
4.28081
4.07109
3.88399
3.72512
3.58819
3.46566
3.35395
3.24994
3.15307
3.06181
2.97643
2.89574
2.82034
2.74884
2.6822
2.61935
2.55787
2.49857
2.44189
2.38745
2.3367
2.28875
2.24333
2.19955
2.15788
2.11755
2.07904
2.0416
2.00572
1.97065
1.93691
1.90371
1.87164
1.83989
1.80914
1.77854
1.74885
1.71923
1.69051
1.66182
1.63407
1.60634
1.57966
1.55305
1.52755
1.50232
1.47828
1.45483
1.43288
1.41227
1.3938
1.37924
1.36842
1.36961
1.37647
1.39305
1.43323
1.51219
1.64374
1.83368
2.09281
2.28759
2.36202
2.36094
2.34814
2.31887
2.27717
2.23445
4.81062
5.70095
5.77628
5.7122
5.54225
5.21799
4.92342
4.66672
4.43406
4.21651
4.01109
3.81542
3.63013
3.45557
3.29057
3.1351
2.98926
2.85304
2.7264
2.61169
2.5121
2.44767
2.4536
2.49328
2.60887
2.91454
3.54613
4.48266
4.82216
4.80753
4.73626
4.56047
4.32526
4.11586
3.9391
3.786
3.64949
3.52392
3.40731
3.29748
3.19441
3.09689
3.0054
2.91885
2.83771
2.7608
2.68879
2.62024
2.55633
2.49565
2.43628
2.37895
2.32438
2.27233
2.22377
2.17724
2.13328
2.091
2.05093
2.01227
1.97553
1.93992
1.90596
1.87281
1.84103
1.80977
1.77966
1.74985
1.72102
1.69233
1.66454
1.63681
1.60997
1.58314
1.55726
1.53138
1.50651
1.48169
1.45793
1.43436
1.41186
1.38984
1.36911
1.34929
1.33159
1.31636
1.30463
1.30271
1.30598
1.3201
1.34663
1.41278
1.52082
1.6684
1.91157
2.12965
2.23257
2.25916
2.25341
2.23964
3.17939
5.18632
5.6562
5.64823
5.56351
5.3631
5.05286
4.7768
4.53502
4.31415
4.10784
3.91269
3.7275
3.55229
3.38717
3.23129
3.08473
2.94806
2.82331
2.71529
2.63902
2.64383
2.68339
2.79603
3.1102
3.74804
4.79208
5.16948
5.15237
5.06544
4.86163
4.60136
4.37039
4.17485
4.00616
3.85483
3.71611
3.58625
3.46443
3.34899
3.24029
3.13719
3.04026
2.94836
2.86202
2.78004
2.70302
2.62975
2.56108
2.4955
2.43453
2.37556
2.31863
2.26345
2.21111
2.16139
2.1148
2.07014
2.02799
1.9875
1.94927
1.91243
1.87756
1.84377
1.81162
1.78023
1.75021
1.72068
1.6923
1.66421
1.63713
1.61019
1.58419
1.55824
1.53322
1.50822
1.48416
1.46009
1.43701
1.41394
1.39187
1.36988
1.3489
1.32824
1.30866
1.28984
1.27278
1.25731
1.24559
1.23966
1.24176
1.25126
1.27074
1.32007
1.40497
1.53129
1.7377
1.96453
2.10212
2.1815
2.30632
4.01688
5.32712
5.55795
5.53099
5.42247
5.18863
4.89656
4.63906
4.41119
4.20185
4.00596
3.82137
3.64656
3.48125
3.32565
3.17995
3.04574
2.92907
2.8426
2.84676
2.88673
3.0037
3.33193
4.00618
5.13966
5.54468
5.52457
5.41894
5.18223
4.8987
4.64579
4.43199
4.24657
4.08074
3.92773
3.78507
3.65028
3.52321
3.40251
3.28867
3.18053
3.0787
2.98198
2.89096
2.8044
2.72291
2.64532
2.57231
2.50272
2.43734
2.37494
2.31669
2.25946
2.20481
2.15197
2.10237
2.05516
2.01072
1.96812
1.92803
1.88952
1.85321
1.81819
1.78505
1.75291
1.72238
1.69256
1.6641
1.63613
1.60934
1.58285
1.55741
1.53215
1.50787
1.48369
1.46044
1.43723
1.41493
1.39264
1.37124
1.34983
1.32933
1.30885
1.28928
1.26991
1.25149
1.23373
1.21725
1.2022
1.19034
1.18137