/*--------------------------------*- C++ -*----------------------------------*\
| =========                 |                                                 |
| \\      /  F ield         | OpenFOAM: The Open Source CFD Toolbox           |
|  \\    /   O peration     | Version:  2412                                  |
|   \\  /    A nd           | Website:  www.openfoam.com                      |
|    \\/     M anipulation  |                                                 |
\*---------------------------------------------------------------------------*/
FoamFile
{
    version     2.0;
    format      ascii;
    arch        "LSB;label=32;scalar=64";
    class       surfaceScalarField;
    location    "2";
    object      phi;
}
// * * * * * * * * * * * * * * * * * * * * * * * * * * * * * * * * * * * * * //

dimensions      [1 0 -1 0 0 0 0];

oriented        oriented;

internalField   nonuniform List<scalar> 
10325
(
0.00840003
2.96544e-11
0.00840003
2.27677e-10
0.00840003
6.98932e-10
0.00840002
2.10686e-09
0.00840002
4.96992e-09
0.00839999
1.33906e-08
0.00839995
2.97354e-08
0.00839979
8.26656e-08
0.00839957
1.7198e-07
0.00839843
5.55632e-07
0.00839745
1.12272e-06
0.00839092
3.70362e-06
0.00837452
1.23888e-05
0.00833499
3.30279e-05
0.00811438
0.000169392
0.00742307
0.000642909
0.0067342
0.000684538
0.0060752
0.000668108
0.00541091
0.000675017
0.00468897
0.000731716
0.00388579
0.000806319
0.00301532
0.000873264
0.0020835
0.000935818
0.0010806
0.00100264
0.00107219
0.00840003
5.63456e-11
0.00840003
4.36595e-10
0.00840003
1.34511e-09
0.00840002
4.05152e-09
0.00840002
9.56779e-09
0.00839999
2.55863e-08
0.00839996
5.65461e-08
0.00839981
1.57883e-07
0.00839963
3.12575e-07
0.00839853
1.09739e-06
0.00839793
1.97279e-06
0.00839085
7.89325e-06
0.00837796
2.21551e-05
0.00833254
7.05144e-05
0.00812606
0.000327402
0.00743619
0.00128356
0.006738
0.00137709
0.00608943
0.00132674
0.00543655
0.00133963
0.00470534
0.00147225
0.00388779
0.00162621
0.00300389
0.00175974
0.00205557
0.00188801
0.00104493
0.00201288
0.0021087
0.00840003
8.55425e-11
0.00840003
6.62651e-10
0.00840003
2.04332e-09
0.00840002
6.14961e-09
0.00840002
1.44719e-08
0.00839999
3.86254e-08
0.00839995
8.52396e-08
0.00839981
2.35877e-07
0.00839962
4.65568e-07
0.00839856
1.62701e-06
0.00839795
2.85485e-06
0.00839112
1.18077e-05
0.00837948
3.15221e-05
0.00833639
0.000104563
0.00815496
0.000464829
0.00747781
0.00190964
0.00675743
0.00208876
0.00613719
0.00196134
0.00550101
0.00199103
0.00476404
0.00221726
0.00393731
0.00245229
0.00304248
0.00265633
0.0020804
0.00285401
0.00105442
0.00303859
0.00315438
0.00840003
1.21379e-10
0.00840003
9.35058e-10
0.00840003
2.88284e-09
0.00840002
8.64727e-09
0.00840002
2.03296e-08
0.00839999
5.40094e-08
0.00839995
1.19426e-07
0.0083998
3.24665e-07
0.00839956
6.52233e-07
0.0083985
2.18266e-06
0.00839774
3.85851e-06
0.00839117
1.55531e-05
0.00838003
4.05916e-05
0.00834045
0.000135455
0.00818785
0.000576368
0.00751674
0.00252627
0.00682885
0.00277133
0.00623243
0.00257837
0.00559492
0.00263976
0.00486545
0.00294808
0.00404005
0.0032759
0.00313649
0.00356222
0.00215349
0.00384076
0.00109679
0.00409416
0.00424217
0.00840003
1.60895e-10
0.00840003
1.24602e-09
0.00840003
3.82936e-09
0.00840002
1.15388e-08
0.00840001
2.72323e-08
0.00839998
7.25494e-08
0.00839993
1.62176e-07
0.00839976
4.31233e-07
0.00839944
9.25011e-07
0.00839843
2.708e-06
0.00839686
5.52387e-06
0.00839107
1.8636e-05
0.0083809
4.85144e-05
0.00833149
0.000176657
0.00822644
0.000645665
0.00756685
0.00313245
0.00707242
0.00326325
0.00640774
0.00325415
0.00570399
0.00335601
0.00500004
0.00365548
0.00417828
0.00409405
0.0032739
0.00446841
0.00227438
0.00484483
0.00117318
0.00519679
0.00540689
0.00840003
1.97525e-10
0.00840003
1.52994e-09
0.00840003
4.71952e-09
0.00840002
1.41915e-08
0.00840001
3.35668e-08
0.00839999
8.90318e-08
0.00839994
1.99381e-07
0.00839978
5.25787e-07
0.00839952
1.13143e-06
0.00839851
3.26211e-06
0.00839751
6.63114e-06
0.00839125
2.20551e-05
0.00838402
5.54429e-05
0.00834522
0.00020434
0.00826348
0.00070045
0.00770722
0.00363045
0.00713062
0.00384324
0.00655379
0.00383721
0.00586555
0.00404925
0.00515024
0.00437523
0.00436499
0.00487786
0.0034639
0.00537054
0.00244301
0.00586932
0.00128082
0.00635937
0.00667905
0.00840003
2.4259e-10
0.00840003
1.88292e-09
0.00840003
5.80522e-09
0.00840002
1.74751e-08
0.00840001
4.14436e-08
0.00839998
1.09796e-07
0.00839992
2.47062e-07
0.00839975
6.41784e-07
0.0083994
1.42239e-06
0.00839841
3.81652e-06
0.00839684
8.32529e-06
0.0083917
2.44077e-05
0.00838425
6.31886e-05
0.00835228
0.000224818
0.00830349
0.000726923
0.00784864
0.00402357
0.00727167
0.00442541
0.00669978
0.00441516
0.00606052
0.00469104
0.00536828
0.00507116
0.00460193
0.00564269
0.0037175
0.00625631
0.0026816
0.00690711
0.00145798
0.00758034
0.00812728
0.00840003
2.93475e-10
0.00840003
2.27911e-09
0.00840003
6.9965e-09
0.00840002
2.10948e-08
0.00840001
5.01151e-08
0.00839998
1.32916e-07
0.00839991
3.01007e-07
0.00839972
7.70449e-07
0.00839931
1.77679e-06
0.00839837
4.34302e-06
0.00839621
1.04059e-05
0.00839128
2.67699e-05
0.00838336
7.03234e-05
0.00835648
0.000241931
0.00831035
0.000753274
0.00795888
0.00431166
0.00740261
0.0049876
0.00685684
0.00496551
0.00627541
0.00527282
0.00563227
0.00571624
0.00490614
0.00636601
0.00404709
0.00711805
0.00301602
0.00794366
0.00172848
0.00886987
0.00984614
0.00840003
2.70749e-10
0.00840003
2.56995e-09
0.00840003
7.73442e-09
0.00840002
2.36164e-08
0.00840002
5.55582e-08
0.00839999
1.48948e-07
0.00839995
3.3114e-07
0.00839978
8.7635e-07
0.00839965
1.86663e-06
0.00839846
5.12449e-06
0.00839882
9.89416e-06
0.00838983
3.36487e-05
0.00839266
6.6165e-05
0.00834892
0.000277242
0.00828842
0.000793833
0.00805585
0.00447865
0.00751234
0.00553955
0.00700053
0.00548204
0.00648451
0.00578856
0.00591991
0.00628285
0.00527248
0.00700945
0.0044947
0.00789507
0.00356213
0.00887993
0.00222889
0.0102047
0.0120671
0.00840003
1.0232e-10
0.00840003
3.54176e-09
0.00840003
5.1242e-09
0.00840002
3.0492e-08
0.00840004
3.74497e-08
0.00839999
1.93692e-07
0.0084001
2.08014e-07
0.00839972
1.21712e-06
0.00840061
9.3193e-07
0.00839745
7.93983e-06
0.0084035
3.78321e-06
0.00838089
5.44577e-05
0.00841503
3.07322e-05
0.00828876
0.000395655
0.00835912
0.000709359
0.00830153
0.00446418
0.00774701
0.00610578
0.00723365
0.00600191
0.00677839
0.00624538
0.00625867
0.00680623
0.00573214
0.00753518
0.00515714
0.00846861
0.00433064
0.00970556
0.0030568
0.0114773
0.0151162
0.00840003
4.46896e-10
0.00840003
7.18739e-10
0.00840003
6.72285e-09
0.00840005
7.82354e-09
0.00840004
4.68119e-08
0.00840018
4.80679e-08
0.00840008
2.96214e-07
0.00840105
2.54371e-07
0.00839984
1.9972e-06
0.00840628
1.5447e-06
0.00839506
1.42369e-05
0.00843756
1.14947e-05
0.0083543
0.000109827
0.00858993
0.000154772
0.00837451
0.000907547
0.00898416
0.00377384
0.00835431
0.00674783
0.00768451
0.00667913
0.00720172
0.00673257
0.00679629
0.00721409
0.00639549
0.0079381
0.00597017
0.0088964
0.0056122
0.0100669
0.00570188
0.0113909
0.0120996
0.00871298
0.00840003
2.63981e-10
0.00840003
1.53071e-09
0.00840003
5.08928e-09
0.00840002
1.45259e-08
0.00840003
3.61221e-08
0.00839998
9.16836e-08
0.00840005
2.20304e-07
0.00839974
5.3161e-07
0.00840036
1.34614e-06
0.0083984
3.20581e-06
0.0084043
8.47895e-06
0.0083919
2.15336e-05
0.00844224
5.94157e-05
0.00839156
0.000195657
0.00872861
0.000548558
0.00988155
0.00253933
0.00919566
0.0074471
0.00822909
0.0076548
0.00774902
0.0072213
0.00735343
0.00761561
0.00702449
0.00827023
0.00679456
0.00912575
0.00675387
0.0101077
0.00726633
0.0108806
0.0109476
0.00841664
0.00840003
2.34304e-10
0.00840003
1.8288e-09
0.00840003
5.56156e-09
0.00840003
1.69481e-08
0.00840002
4.01401e-08
0.0084
1.08479e-07
0.00839996
2.45649e-07
0.00839981
6.43549e-07
0.00839963
1.4912e-06
0.00839897
3.61551e-06
0.00839793
9.32051e-06
0.00839755
2.03635e-05
0.00839768
5.81275e-05
0.00843094
0.00015416
0.00849425
0.000489842
0.00907648
0.00191821
0.00919625
0.00729961
0.00892803
0.00791257
0.00826878
0.00789403
0.00787361
0.00801805
0.00762291
0.00852417
0.00754998
0.00919973
0.00775648
0.00990093
0.00833364
0.0103046
0.0101938
0.00908849
0.00840003
1.92829e-10
0.00840003
1.50372e-09
0.00840003
4.64735e-09
0.00840003
1.40226e-08
0.00840004
3.33088e-08
0.00840005
8.85558e-08
0.00840009
1.99889e-07
0.00840017
5.22767e-07
0.00840048
1.15144e-06
0.00840074
3.13069e-06
0.00840321
6.6506e-06
0.00840251
1.98507e-05
0.00841603
4.30207e-05
0.00842038
0.000144138
0.00848937
0.000413339
0.00874523
0.00163707
0.00913731
0.00684046
0.00891268
0.00813329
0.00854756
0.00826214
0.00830074
0.00827383
0.00817649
0.00865151
0.00822022
0.00915688
0.00847091
0.00964796
0.00896242
0.00981039
0.00958956
0.00956657
0.00840003
1.69964e-10
0.00840003
1.31556e-09
0.00840003
4.05524e-09
0.00840003
1.21905e-08
0.00840004
2.88556e-08
0.00840004
7.64408e-08
0.00840007
1.71329e-07
0.00840012
4.50196e-07
0.00840029
9.61004e-07
0.0084005
2.76114e-06
0.00840189
5.34299e-06
0.00840242
1.81179e-05
0.00840966
3.6154e-05
0.00841715
0.000132073
0.00847544
0.000349813
0.00866307
0.00142965
0.00935115
0.00607982
0.00915952
0.00832749
0.00890298
0.00852112
0.00870134
0.008479
0.00865347
0.00870167
0.00876128
0.00905129
0.00901022
0.00940243
0.00938942
0.00943275
0.00911191
0.00986728
0.00840003
1.51432e-10
0.00840003
1.1737e-09
0.00840003
3.61208e-09
0.00840003
1.08808e-08
0.00840003
2.57716e-08
0.00840004
6.84595e-08
0.00840005
1.53639e-07
0.00840008
4.01828e-07
0.00840015
8.808e-07
0.00840034
2.42711e-06
0.00840084
4.87802e-06
0.00840171
1.62476e-05
0.00840714
3.08236e-05
0.00841624
0.000118695
0.00846044
0.000302013
0.00864083
0.00122366
0.0100728
0.00458718
0.00971734
0.0086832
0.00940352
0.00883598
0.00912974
0.00875661
0.00907884
0.00875045
0.00919793
0.00892994
0.00945297
0.00914793
0.00975476
0.00913443
0.00878444
0.0100837
0.00840003
1.31422e-10
0.00840003
1.01998e-09
0.00840003
3.1395e-09
0.00840003
9.45461e-09
0.00840003
2.24207e-08
0.00840004
5.94261e-08
0.00840006
1.33874e-07
0.0084001
3.46578e-07
0.0084002
7.70599e-07
0.00840053
2.01028e-06
0.00840091
4.40953e-06
0.00840423
1.22025e-05
0.00840909
2.64002e-05
0.00844414
7.94416e-05
0.00852302
0.000220622
0.0090272
0.000718848
0.0109844
0.00258077
0.0106453
0.00898665
0.010261
0.00922193
0.00980118
0.00922075
0.00958232
0.00897203
0.00958909
0.00892067
0.00978687
0.00894803
0.0100496
0.00887319
0.00853757
0.010299
0.00840003
1.06286e-10
0.00840003
8.62418e-10
0.00840003
2.67434e-09
0.00840003
7.97928e-09
0.00840003
1.9105e-08
0.00840004
5.00734e-08
0.00840006
1.14095e-07
0.0084001
2.91663e-07
0.0084002
6.5705e-07
0.00840045
1.68084e-06
0.00840105
3.76225e-06
0.00840281
9.93989e-06
0.00840725
2.17222e-05
0.00841879
6.49515e-05
0.00848558
0.000152176
0.00862242
0.000570196
0.0094499
0.00172567
0.0107565
0.00759456
0.0105927
0.00937062
0.0103122
0.00949393
0.0100612
0.00922765
0.00998727
0.00900177
0.0100722
0.00886498
0.0102629
0.00868275
0.00834471
0.0104574
0.00840003
4.50403e-11
0.00840003
9.03908e-10
0.00840003
1.75284e-09
0.00840003
7.93044e-09
0.00840004
1.28918e-08
0.00840004
4.93215e-08
0.00840007
7.74505e-08
0.00840007
2.87539e-07
0.00840028
4.43165e-07
0.00840025
1.68085e-06
0.00840156
2.4004e-06
0.00840059
1.05752e-05
0.00841089
1.18226e-05
0.00839986
7.31807e-05
0.00847272
8.09132e-05
0.00848837
0.000545553
0.00891863
0.00127688
0.0106959
0.00574928
0.0108117
0.00926217
0.0106855
0.00962749
0.0104522
0.00946669
0.0103833
0.0090695
0.0104013
0.00884845
0.0104865
0.00859793
0.00823184
0.0106005
0.00840003
8.25953e-11
0.00840003
4.76978e-10
0.00840003
1.76335e-09
0.00840003
4.55678e-09
0.00840003
1.24741e-08
0.00840005
2.86549e-08
0.00840005
7.39126e-08
0.00840017
1.65673e-07
0.00840018
4.23512e-07
0.0084009
9.37835e-07
0.00840068
2.47909e-06
0.00840611
5.26422e-06
0.00840143
1.53195e-05
0.0084426
3.22107e-05
0.00841763
0.000100689
0.0086907
0.000263114
0.0090739
0.000890872
0.0116257
0.00310984
0.0115193
0.00937077
0.0113699
0.00979284
0.0110604
0.0097865
0.0107929
0.0093381
0.0107336
0.00890528
0.010757
0.0085733
0.00818779
0.0108007
0.00840003
9.44471e-11
0.00840003
2.94765e-10
0.00840003
1.63379e-09
0.00840003
2.99003e-09
0.00840003
1.13314e-08
0.00840004
1.9069e-08
0.00840005
6.72107e-08
0.0084001
1.10667e-07
0.00840012
3.87446e-07
0.00840043
6.18477e-07
0.00840053
2.28608e-06
0.00840253
3.20112e-06
0.00840287
1.44141e-05
0.00841851
1.61442e-05
0.00842069
9.56693e-05
0.00855522
0.000125114
0.00870649
0.000726802
0.00985748
0.00192917
0.0116558
0.00751445
0.0117198
0.00972344
0.0115055
0.0100042
0.0111659
0.00968266
0.0110246
0.00904734
0.0109788
0.00861832
0.00818789
0.0109779
0.00840003
3.02946e-11
0.00840003
3.2739e-10
0.00840003
7.55545e-10
0.00840003
2.95411e-09
0.00840004
5.43253e-09
0.00840004
1.83241e-08
0.00840007
3.21266e-08
0.00840007
1.05345e-07
0.00840027
1.81481e-07
0.00840026
6.05832e-07
0.00840153
1.00083e-06
0.00840089
3.66244e-06
0.00840961
5.62308e-06
0.00840139
2.33737e-05
0.00845999
3.6531e-05
0.00841863
0.000161449
0.00880319
0.000337679
0.00928367
0.00142953
0.0115251
0.00519988
0.0118629
0.00937041
0.0119371
0.00992263
0.0117352
0.0098857
0.011415
0.00937337
0.0112804
0.00875503
0.00826161
0.0112071
0.00840003
4.32814e-11
0.00840003
1.67291e-10
0.00840003
8.29845e-10
0.00840003
1.64718e-09
0.00840003
5.80608e-09
0.00840004
1.04619e-08
0.00840003
3.45157e-08
0.00840008
6.09495e-08
0.00840005
1.98804e-07
0.0084003
3.50278e-07
0.00840012
1.14131e-06
0.00840172
2.02317e-06
0.00840035
6.75116e-06
0.00841175
1.17782e-05
0.00840396
4.28384e-05
0.00848898
7.57729e-05
0.00850683
0.000313822
0.00921932
0.000706717
0.0116456
0.00274655
0.0122477
0.00872604
0.0122206
0.00994146
0.0120494
0.0100537
0.0117194
0.00970704
0.0115615
0.00891931
0.00839687
0.01143
0.00840003
1.57656e-11
0.00840003
1.80795e-10
0.00840003
4.15441e-10
0.00840003
1.62937e-09
0.00840003
3.01483e-09
0.00840003
1.01615e-08
0.00840005
1.80609e-08
0.00840005
5.88834e-08
0.00840014
1.03739e-07
0.00840014
3.37287e-07
0.00840069
5.89667e-07
0.00840066
1.96986e-06
0.00840415
3.27256e-06
0.00840307
1.23259e-05
0.0084277
1.81352e-05
0.00841804
8.29928e-05
0.0086044
0.000124838
0.00865599
0.000647088
0.00973694
0.00164477
0.0121329
0.00626367
0.0124187
0.00964644
0.0124284
0.0100362
0.0122187
0.00991456
0.0118931
0.00924863
0.00858255
0.0117069
0.00840003
1.74198e-11
0.00840003
9.94858e-11
0.00840003
3.70646e-10
0.00840003
9.48718e-10
0.00840003
2.61955e-09
0.00840004
5.96636e-09
0.00840004
1.55334e-08
0.00840006
3.44909e-08
0.00840007
8.87359e-08
0.00840021
1.95678e-07
0.00840027
5.0421e-07
0.0084011
1.10898e-06
0.00840131
2.90822e-06
0.00840726
6.33171e-06
0.00840655
1.77148e-05
0.00845102
3.82267e-05
0.00845286
0.000117855
0.00879392
0.000299948
0.00936269
0.00105874
0.0121909
0.00335302
0.0127597
0.00905822
0.012804
0.00999208
0.0125928
0.010124
0.0122304
0.00960973
0.00883259
0.0119805
0.00840003
1.72688e-11
0.00840003
5.85305e-11
0.00840003
3.04359e-10
0.00840003
5.88805e-10
0.00840003
2.11047e-09
0.00840003
3.73841e-09
0.00840004
1.24354e-08
0.00840005
2.16325e-08
0.00840006
7.08306e-08
0.00840013
1.22375e-07
0.00840022
4.01382e-07
0.00840062
6.86681e-07
0.00840111
2.30589e-06
0.0084036
3.75525e-06
0.00840659
1.41085e-05
0.00842427
2.00315e-05
0.00844439
9.455e-05
0.0085967
0.000144718
0.00892571
0.000717845
0.0102843
0.00196691
0.0126758
0.00661321
0.012957
0.00970671
0.0130436
0.01004
0.0126763
0.00998483
0.00919073
0.0123289
0.00840003
5.92395e-12
0.00840003
5.99006e-11
0.00840003
1.4551e-10
0.00840003
5.42608e-10
0.00840003
1.04643e-09
0.00840003
3.37327e-09
0.00840004
6.21866e-09
0.00840004
1.94072e-08
0.00840007
3.53992e-08
0.00840008
1.09803e-07
0.00840028
1.99262e-07
0.00840031
6.20399e-07
0.00840147
1.11984e-06
0.00840149
3.55287e-06
0.0084091
6.32615e-06
0.00840648
2.14678e-05
0.00846267
3.76661e-05
0.00845917
0.000142587
0.00886489
0.000305214
0.00963761
0.00117502
0.0123465
0.00382344
0.0131726
0.00886116
0.013336
0.00988158
0.0131642
0.010162
0.00960327
0.0127604
0.00840003
7.14725e-12
0.00840003
2.78004e-11
0.00840003
1.34802e-10
0.00840003
2.75126e-10
0.00840003
9.4183e-10
0.00840003
1.74562e-09
0.00840003
5.56937e-09
0.00840004
1.01268e-08
0.00840004
3.17957e-08
0.00840009
5.75603e-08
0.0084001
1.8037e-07
0.00840039
3.25772e-07
0.00840043
1.02587e-06
0.00840208
1.85134e-06
0.00840222
5.90941e-06
0.00841254
1.07333e-05
0.00841324
3.5489e-05
0.00848645
6.7055e-05
0.00853794
0.000245523
0.00913633
0.000581691
0.010834
0.00209508
0.0130221
0.00661633
0.0132883
0.00961017
0.0135437
0.00990576
0.00992738
0.0132227
0.00840003
3.34623e-12
0.00840003
2.38528e-11
0.00840003
7.40938e-11
0.00840003
2.22667e-10
0.00840003
5.2813e-10
0.00840003
1.39479e-09
0.00840003
3.13667e-09
0.00840003
8.05122e-09
0.00840005
1.78982e-08
0.00840006
4.56459e-08
0.00840013
1.01205e-07
0.00840019
2.57936e-07
0.00840063
5.71586e-07
0.00840094
1.4626e-06
0.00840354
3.23737e-06
0.00840533
8.46064e-06
0.00842204
1.85669e-05
0.00843378
5.2468e-05
0.00856179
0.000116023
0.00875097
0.000381697
0.0097593
0.0010696
0.0125834
0.00371539
0.0134926
0.00868013
0.0136387
0.00976102
0.010023
0.0135458
0.00840003
1.39362e-12
0.00840003
1.89045e-11
0.00840003
4.35058e-11
0.00840003
1.68322e-10
0.00840003
3.15984e-10
0.00840003
1.04153e-09
0.00840003
1.88431e-09
0.00840003
5.98343e-09
0.00840004
1.07565e-08
0.00840005
3.38198e-08
0.00840009
6.07305e-08
0.00840015
1.90602e-07
0.00840037
3.41392e-07
0.0084007
1.07641e-06
0.00840197
1.9151e-06
0.00840398
6.15979e-06
0.00841148
1.07344e-05
0.00842578
3.66539e-05
0.00847419
6.51824e-05
0.00860871
0.000238903
0.00911176
0.000570824
0.0107913
0.00200542
0.0132593
0.00615174
0.0136073
0.00940223
0.0097783
0.0138528
0.00840003
1.6131e-12
0.00840003
9.29212e-12
0.00840003
3.43605e-11
0.00840003
8.86775e-11
0.00840003
2.42538e-10
0.00840003
5.55583e-10
0.00840003
1.42957e-09
0.00840003
3.19282e-09
0.00840004
8.09759e-09
0.00840005
1.79846e-08
0.00840006
4.54444e-08
0.00840015
1.00779e-07
0.00840022
2.54528e-07
0.00840072
5.64009e-07
0.00840113
1.42923e-06
0.00840405
3.16193e-06
0.00840621
8.14645e-06
0.00842442
1.79909e-05
0.00843836
4.87517e-05
0.00856324
0.000111894
0.00878345
0.000340096
0.00980012
0.000972786
0.0126627
0.0032139
0.0138304
0.00821492
0.0096719
0.0139352
0.00840003
1.3862e-12
0.00840003
5.14033e-12
0.00840003
2.49392e-11
0.00840003
5.12179e-11
0.00840003
1.72754e-10
0.00840003
3.23481e-10
0.00840003
1.01151e-09
0.00840003
1.86016e-09
0.00840003
5.70696e-09
0.00840004
1.04609e-08
0.00840005
3.19221e-08
0.00840009
5.84407e-08
0.00840016
1.78269e-07
0.00840039
3.25339e-07
0.00840078
9.97265e-07
0.00840208
1.80744e-06
0.00840432
5.6443e-06
0.00841197
1.00558e-05
0.00842634
3.3052e-05
0.00847521
6.00586e-05
0.00859932
0.000209523
0.00906732
0.000505894
0.0105341
0.00172466
0.0133177
0.00536514
0.00902372
0.0139494
0.00840003
4.5924e-13
0.00840003
4.55074e-12
0.00840003
1.14656e-11
0.00840003
4.12214e-11
0.00840003
8.23043e-11
0.00840003
2.54841e-10
0.00840003
4.86449e-10
0.00840003
1.45357e-09
0.00840003
2.74982e-09
0.00840004
8.13789e-09
0.00840005
1.5373e-08
0.00840006
4.53626e-08
0.00840015
8.56458e-08
0.00840022
2.52832e-07
0.00840073
4.76669e-07
0.00840106
1.41517e-06
0.008404
2.65384e-06
0.00840568
8.05067e-06
0.00842359
1.49237e-05
0.00843388
4.79775e-05
0.00855163
9.06944e-05
0.00873192
0.00031935
0.00965801
0.0007879
0.0124635
0.00253254
0.00741736
0.0140301
0.00840003
3.83853e-13
0.00840003
2.27297e-12
0.00840003
8.34826e-12
0.00840003
2.15869e-11
0.00840003
5.87932e-11
0.00840003
1.34642e-10
0.00840003
3.44821e-10
0.00840003
7.68898e-10
0.00840003
1.93959e-09
0.00840004
4.29844e-09
0.00840004
1.07945e-08
0.00840006
2.38874e-08
0.00840008
5.98684e-08
0.0084002
1.32395e-07
0.00840034
3.31641e-07
0.008401
7.32955e-07
0.00840174
1.84878e-06
0.00840567
4.04056e-06
0.00840936
1.07188e-05
0.00843501
2.22365e-05
0.00845539
6.74402e-05
0.00863482
0.000139492
0.00891743
0.000495721
0.010117
0.00131796
0.00430185
0.0131625
0.00840003
2.61432e-13
0.00840003
1.42062e-12
0.00840003
5.24883e-12
0.00840003
1.35538e-11
0.00840003
3.67921e-11
0.00840003
8.45736e-11
0.00840003
2.15439e-10
0.00840003
4.82587e-10
0.00840003
1.21097e-09
0.00840003
2.69596e-09
0.00840004
6.73924e-09
0.00840005
1.49758e-08
0.00840007
3.74019e-08
0.00840011
8.29886e-08
0.00840023
2.07444e-07
0.00840049
4.59232e-07
0.00840114
1.15303e-06
0.00840258
2.54651e-06
0.00840656
6.46683e-06
0.00841406
1.44149e-05
0.0084428
3.72331e-05
0.00849061
8.9387e-05
0.00873605
0.000243584
0.00935074
0.000696893
0.00221931
0.0114068
0.00840003
1.94271e-13
0.00840003
7.43583e-13
0.00840003
3.49287e-12
0.00840003
7.40365e-12
0.00840003
2.41431e-11
0.00840003
4.65212e-11
0.00840003
1.40358e-10
0.00840003
2.65322e-10
0.00840003
7.84408e-10
0.00840003
1.47787e-09
0.00840003
4.34042e-09
0.00840004
8.17909e-09
0.00840005
2.39473e-08
0.00840009
4.51568e-08
0.00840016
1.32018e-07
0.00840036
2.48853e-07
0.00840075
7.28275e-07
0.0084019
1.3687e-06
0.00840414
4.04254e-06
0.00841082
7.51253e-06
0.0084237
2.32356e-05
0.00847043
4.20073e-05
0.00856405
0.000143045
0.00895413
0.000301937
0.00108014
0.0100662
0.00840003
7.74373e-14
0.00840003
5.4753e-13
0.00840003
1.71603e-12
0.00840003
5.10229e-12
0.00840003
1.21346e-11
0.00840003
3.15895e-11
0.00840003
7.09729e-11
0.00840003
1.79126e-10
0.00840003
3.97063e-10
0.00840003
9.9446e-10
0.00840003
2.19671e-09
0.00840004
5.49127e-09
0.00840005
1.21141e-08
0.00840006
3.0275e-08
0.00840012
6.6703e-08
0.0084002
1.66844e-07
0.00840055
3.66849e-07
0.00840096
9.20922e-07
0.00840293
2.01849e-06
0.00840503
5.13568e-06
0.00841676
1.12128e-05
0.0084274
2.95389e-05
0.008505
6.5785e-05
0.00861487
0.000185423
0.000494203
0.00920064
0.00840003
3.29578e-14
0.00840003
3.6613e-13
0.00840003
9.18443e-13
0.00840003
3.27767e-12
0.00840003
6.5847e-12
0.00840003
2.00702e-11
0.00840003
3.86184e-11
0.00840003
1.13284e-10
0.00840003
2.16037e-10
0.00840003
6.26992e-10
0.00840003
1.19429e-09
0.00840003
3.45268e-09
0.00840004
6.58102e-09
0.00840005
1.89841e-08
0.00840008
3.62099e-08
0.00840014
1.04323e-07
0.0084003
1.98874e-07
0.00840062
5.73512e-07
0.00840152
1.09027e-06
0.00840334
3.16741e-06
0.0084084
5.96923e-06
0.0084192
1.7921e-05
0.00845045
3.32368e-05
0.0085237
0.000108412
0.000221385
0.00879037
0.00840003
3.39016e-14
0.00840003
1.51488e-13
0.00840003
6.61966e-13
0.00840003
1.47487e-12
0.00840003
4.59304e-12
0.00840003
9.19692e-12
0.00840003
2.66212e-11
0.00840003
5.21115e-11
0.00840003
1.47964e-10
0.00840003
2.8829e-10
0.00840003
8.13602e-10
0.00840003
1.58449e-09
0.00840003
4.45966e-09
0.00840004
8.68866e-09
0.00840006
2.44164e-08
0.00840011
4.75691e-08
0.00840017
1.336e-07
0.00840047
2.5997e-07
0.00840079
7.31154e-07
0.00840249
1.42005e-06
0.00840419
4.02741e-06
0.00841408
7.77327e-06
0.00842331
2.29044e-05
0.00848559
4.37116e-05
0.00013919
0.00856187
0.00840003
1.44788e-14
0.00840003
1.02626e-13
0.00840003
3.21013e-13
0.00840003
9.5425e-13
0.00840003
2.26676e-12
0.00840003
5.88854e-12
0.00840003
1.32046e-11
0.00840003
3.32179e-11
0.00840003
7.34551e-11
0.00840003
1.83216e-10
0.00840003
4.03674e-10
0.00840003
1.00424e-09
0.00840003
2.20999e-09
0.00840004
5.49292e-09
0.00840005
1.20789e-08
0.00840006
3.00263e-08
0.00840013
6.59646e-08
0.00840021
1.64229e-07
0.00840057
3.60325e-07
0.00840103
9.00562e-07
0.00840302
1.9743e-06
0.00840558
4.97969e-06
0.00841696
1.09519e-05
0.00843183
2.81346e-05
6.422e-05
0.00850131
0.00840003
6.04616e-15
0.00840003
6.56424e-14
0.00840003
1.67742e-13
0.00840003
5.88776e-13
0.00840003
1.20057e-12
0.00840003
3.59546e-12
0.00840003
7.01392e-12
0.00840003
2.01981e-11
0.00840003
3.90296e-11
0.00840003
1.11153e-10
0.00840003
2.14445e-10
0.00840003
6.08261e-10
0.00840003
1.17391e-09
0.00840003
3.32275e-09
0.00840004
6.41756e-09
0.00840005
1.81417e-08
0.00840008
3.50587e-08
0.00840014
9.90734e-08
0.0084003
1.91416e-07
0.00840063
5.41674e-07
0.00840153
1.04463e-06
0.00840339
2.97489e-06
0.00840844
5.70229e-06
0.00841922
1.66514e-05
3.17615e-05
0.00845063
0.00840003
5.89269e-15
0.00840003
2.70778e-14
0.00840003
1.15897e-13
0.00840003
2.63168e-13
0.00840003
8.03922e-13
0.00840003
1.63552e-12
0.00840003
4.64551e-12
0.00840003
9.22837e-12
0.00840003
2.57058e-11
0.00840003
5.07967e-11
0.00840003
1.40623e-10
0.00840003
2.77663e-10
0.00840003
7.6651e-10
0.00840003
1.51395e-09
0.00840003
4.17124e-09
0.00840004
8.24274e-09
0.00840006
2.26759e-08
0.00840011
4.48207e-08
0.00840017
1.23214e-07
0.00840046
2.43453e-07
0.0084008
6.70137e-07
0.00840241
1.32215e-06
0.00840426
3.66652e-06
0.00841349
7.21029e-06
2.04302e-05
0.00842388
0.00840003
2.12943e-15
0.00840003
1.90898e-14
0.00840003
5.11131e-14
0.00840003
1.72935e-13
0.00840003
3.61863e-13
0.00840003
1.05687e-12
0.00840003
2.10608e-12
0.00840003
5.92291e-12
0.00840003
1.16712e-11
0.00840003
3.24644e-11
0.00840003
6.38162e-11
0.00840003
1.76823e-10
0.00840003
3.47483e-10
0.00840003
9.60922e-10
0.00840003
1.88857e-09
0.00840004
5.21556e-09
0.00840005
1.02502e-08
0.00840006
2.82816e-08
0.00840013
5.55512e-08
0.00840021
1.53272e-07
0.00840057
3.00655e-07
0.00840102
8.31415e-07
0.00840301
1.62785e-06
0.00840541
4.54285e-06
8.86269e-06
0.00841669
0.00840003
1.2419e-15
0.00840003
8.71707e-15
0.00840003
3.12202e-14
0.00840003
8.17925e-14
0.00840003
2.20582e-13
0.00840003
5.05444e-13
0.00840003
1.27453e-12
0.00840003
2.8385e-12
0.00840003
7.03595e-12
0.00840003
1.55577e-11
0.00840003
3.83725e-11
0.00840003
8.46735e-11
0.00840003
2.08461e-10
0.00840003
4.59684e-10
0.00840003
1.13074e-09
0.00840003
2.49258e-09
0.00840004
6.12886e-09
0.00840005
1.35045e-08
0.00840007
3.32116e-08
0.00840015
7.31187e-08
0.00840026
1.8005e-07
0.00840068
3.95908e-07
0.00840128
9.78553e-07
0.0084036
2.14895e-06
5.36043e-06
0.00840682
0.00840003
1.15787e-15
0.00840003
3.88415e-15
0.00840003
1.85506e-14
0.00840003
4.08697e-14
0.00840003
1.27262e-13
0.00840003
2.5558e-13
0.00840003
7.3247e-13
0.00840003
1.4398e-12
0.00840003
4.03538e-12
0.00840003
7.89356e-12
0.00840003
2.19652e-11
0.00840003
4.29418e-11
0.00840003
1.19116e-10
0.00840003
2.33006e-10
0.00840003
6.4505e-10
0.00840003
1.26294e-09
0.00840003
3.4906e-09
0.00840004
6.84111e-09
0.00840005
1.88806e-08
0.00840009
3.70352e-08
0.00840016
1.02109e-07
0.00840035
2.00338e-07
0.00840075
5.52524e-07
0.00840178
1.08304e-06
3.00015e-06
0.00840399
0.00840003
2.40259e-16
0.00840003
2.83614e-15
0.00840003
8.25533e-15
0.00840003
2.47932e-14
0.00840003
5.90715e-14
0.00840003
1.51616e-13
0.00840003
3.42352e-13
0.00840003
8.47948e-13
0.00840003
1.88771e-12
0.00840003
4.63131e-12
0.00840003
1.02687e-11
0.00840003
2.51142e-11
0.00840003
5.56237e-11
0.00840003
1.35852e-10
0.00840003
3.00793e-10
0.00840003
7.33948e-10
0.00840003
1.6249e-09
0.00840004
3.96166e-09
0.00840005
8.77008e-09
0.00840006
2.13687e-08
0.00840011
4.72905e-08
0.00840019
1.15204e-07
0.00840048
2.54757e-07
0.00840091
6.21256e-07
1.37263e-06
0.0084025
0.00840003
1.25117e-16
0.00840003
1.41098e-15
0.00840003
4.24994e-15
0.00840003
1.28467e-14
0.00840003
3.10305e-14
0.00840003
7.97743e-14
0.00840003
1.79037e-13
0.00840003
4.45236e-13
0.00840003
9.83851e-13
0.00840003
2.42304e-12
0.00840003
5.33426e-12
0.00840003
1.30983e-11
0.00840003
2.87993e-11
0.00840003
7.06172e-11
0.00840003
1.55179e-10
0.00840003
3.80112e-10
0.00840003
8.34983e-10
0.00840003
2.04324e-09
0.00840004
4.48687e-09
0.00840005
1.09675e-08
0.00840007
2.40737e-08
0.00840012
5.87796e-08
0.00840024
1.28916e-07
0.00840053
3.14573e-07
6.8889e-07
0.00840119
0.00840003
6.84132e-17
0.00840003
5.81051e-16
0.00840003
2.11222e-15
0.00840003
6.88753e-15
0.00840003
1.41835e-14
0.00840003
4.22031e-14
0.00840003
8.31173e-14
0.00840003
2.35425e-13
0.00840003
4.57863e-13
0.00840003
1.27876e-12
0.00840003
2.47777e-12
0.00840003
6.88395e-12
0.00840003
1.33394e-11
0.00840003
3.69537e-11
0.00840003
7.16403e-11
0.00840003
1.98042e-10
0.00840003
3.8411e-10
0.00840003
1.0599e-09
0.00840003
2.05612e-09
0.00840004
5.66465e-09
0.00840005
1.09856e-08
0.00840008
3.02325e-08
0.00840015
5.85536e-08
0.00840029
1.61158e-07
3.11168e-07
0.00840065
0.00840003
8.23994e-17
0.00840003
2.96448e-16
0.00840003
9.28836e-16
0.00840003
2.37085e-15
0.00840003
7.34823e-15
0.00840003
1.39249e-14
0.00840003
4.19629e-14
0.00840003
7.65494e-14
0.00840003
2.27188e-13
0.00840003
4.13315e-13
0.00840003
1.21958e-12
0.00840003
2.2175e-12
0.00840003
6.5258e-12
0.00840003
1.18589e-11
0.00840003
3.48444e-11
0.00840003
6.32623e-11
0.00840003
1.85686e-10
0.00840003
3.3667e-10
0.00840003
9.87668e-10
0.00840004
1.78736e-09
0.00840004
5.2437e-09
0.00840006
9.46378e-09
0.00840009
2.77889e-08
0.0084002
4.99547e-08
1.47041e-07
0.00840035
0.00840003
0.00840003
0.00840003
0.00840003
0.00840003
0.00840003
0.00840003
0.00840003
0.00840003
0.00840003
0.00840003
0.00840003
0.00840003
0.00840003
0.00840003
0.00840003
0.00840003
0.00840003
0.00840003
0.00840003
0.00840004
0.00840005
0.00840007
0.00840012
0.00840026
0.00458258
0.004128
0.00296676
0.00161463
0.00228442
0.000681608
0.00201144
0.000272384
0.00198652
2.42387e-05
0.00213958
-0.000153847
0.00233391
-0.000195527
0.00244694
-0.000114791
0.00248652
-4.16179e-05
0.00248261
1.8762e-06
0.0024608
1.97572e-05
0.00244878
9.82253e-06
0.00244836
-1.85875e-06
0.00245786
-1.18004e-05
0.00246954
-1.40474e-05
0.00247898
-1.18558e-05
0.00248566
-9.24752e-06
0.00248983
-6.74345e-06
0.00249214
-4.84713e-06
0.00249366
-3.98343e-06
0.00249605
-4.69233e-06
0.00250019
-6.21924e-06
0.00250567
-7.28435e-06
0.00251178
-7.64066e-06
0.00251821
-7.69644e-06
0.00252494
-7.74869e-06
0.00253194
-7.90344e-06
0.00253939
-8.13813e-06
0.0025472
-8.38421e-06
0.00255547
-8.59259e-06
0.00256412
-8.74491e-06
0.0025729
-8.8448e-06
0.00258205
-8.90607e-06
0.00259093
-8.93882e-06
0.00259987
-8.91696e-06
0.0026085
-8.88114e-06
0.00261612
-8.68213e-06
0.00262133
-8.23564e-06
0.00262543
-7.94843e-06
0.0026273
-7.59477e-06
0.00262546
-6.88322e-06
0.00261486
-5.33981e-06
0.00258558
-1.02068e-06
0.00250651
1.59402e-05
0.00230664
6.53857e-05
0.00174115
0.000223631
0.000478361
0.00073719
9.77894e-05
0.000474766
0.000333796
-0.000264492
0.000867928
-0.000601809
0.00141502
-0.000558467
0.00191362
-0.000504567
0.00236332
-0.000460428
0.00278144
-0.000420926
0.00315431
-0.000373251