/*--------------------------------*- C++ -*----------------------------------*\
| =========                 |                                                 |
| \\      /  F ield         | OpenFOAM: The Open Source CFD Toolbox           |
|  \\    /   O peration     | Version:  2412                                  |
|   \\  /    A nd           | Website:  www.openfoam.com                      |
|    \\/     M anipulation  |                                                 |
\*---------------------------------------------------------------------------*/
FoamFile
{
    version     2.0;
    format      ascii;
    arch        "LSB;label=32;scalar=64";
    class       volScalarField;
    location    "2";
    object      T;
}
// * * * * * * * * * * * * * * * * * * * * * * * * * * * * * * * * * * * * * //

dimensions      [0 0 0 1 0 0 0];

internalField   nonuniform List<scalar> 
5250
(
1.00001
1.00001
1.00004
1.00008
1.00025
1.00046
1.00143
1.00269
1.00775
1.017
1.04261
1.11897
1.27596
1.75384
2.61293
2.76137
2.75471
2.74271
2.75809
2.76497
2.77792
2.78915
2.79309
2.79723
2.83672
1.00001
1.00001
1.00004
1.00008
1.00025
1.00045
1.00142
1.00266
1.0077
1.01681
1.04222
1.1178
1.27217
1.74829
2.61093
2.75957
2.75293
2.74147
2.75642
2.76332
2.77645
2.78761
2.79124
2.79499
2.83387
1.00001
1.00001
1.00004
1.00008
1.00025
1.00044
1.0014
1.00262
1.00761
1.01643
1.04162
1.11488
1.26608
1.73586
2.60471
2.7553
2.74941
2.73839
2.75187
2.75866
2.77271
2.78478
2.78854
2.79205
2.83021
1.00001
1.00001
1.00004
1.00007
1.00024
1.00043
1.00137
1.00254
1.00749
1.01587
1.04078
1.11041
1.25769
1.71693
2.59186
2.75007
2.74267
2.73132
2.74482
2.75264
2.76813
2.77838
2.78174
2.78638
2.82529
1.00001
1.00001
1.00004
1.00007
1.00023
1.00042
1.00133
1.00245
1.00732
1.01513
1.0397
1.10456
1.24719
1.69186
2.57431
2.73682
2.72813
2.72877
2.73865
2.74514
2.76019
2.77219
2.77464
2.77703
2.81351
1.00001
1.00001
1.00004
1.00007
1.00022
1.0004
1.00126
1.00232
1.00699
1.01429
1.03784
1.09847
1.23263
1.65838
2.53889
2.72033
2.7216
2.72173
2.72683
2.73722
2.74788
2.75873
2.7621
2.76334
2.8018
1
1.00001
1.00003
1.00006
1.00021
1.00037
1.00119
1.00217
1.0066
1.01331
1.03563
1.09141
1.21578
1.61846
2.48818
2.69703
2.71486
2.71366
2.71494
2.72638
2.73675
2.74742
2.7475
2.74668
2.77707
1
1.00001
1.00003
1.00006
1.00019
1.00034
1.00109
1.00199
1.00607
1.0122
1.03279
1.08438
1.19571
1.5766
2.42127
2.6677
2.70788
2.70422
2.70186
2.70851
2.71762
2.72704
2.72854
2.7248
2.75127
1
1.00001
1.00003
1.00005
1.00017
1.0003
1.00096
1.00178
1.00529
1.01103
1.02874
1.07742
1.17282
1.5318
2.33603
2.63278
2.70246
2.69682
2.6922
2.69832
2.69955
2.70257
2.69756
2.68772
2.69119
1
1.00001
1.00002
1.00005
1.00014
1.00026
1.00082
1.00157
1.00443
1.00986
1.02451
1.06869
1.14996
1.47547
2.236
2.58503
2.68859
2.67778
2.67195
2.67768
2.68176
2.67883
2.66664
2.63402
2.60949
1
1.00001
1.00001
1.00005
1.00009
1.00026
1.00054
1.00141
1.00347
1.00805
1.02288
1.04897
1.15559
1.35089
1.99194
2.53966
2.68121
2.67017
2.64922
2.64939
2.65089
2.64471
2.62233
2.55943
2.38308
1
1.00001
1.00002
1.00003
1.00011
1.0002
1.00063
1.00118
1.00357
1.00711
1.01949
1.04647
1.11206
1.30961
1.88356
2.44145
2.64669
2.64351
2.63475
2.6272
2.62118
2.60435
2.57297
2.50404
2.31132
1
1
1.00002
1.00003
1.0001
1.00017
1.00055
1.001
1.00312
1.0059
1.01716
1.03779
1.09558
1.255
1.72424
2.39733
2.62333
2.60447
2.60827
2.60428
2.59549
2.57137
2.5212
2.45596
2.3002
1
1
1.00001
1.00002
1.00008
1.00014
1.00044
1.00081
1.00242
1.00492
1.01297
1.03289
1.07526
1.22592
1.54659
2.29864
2.58589
2.59244
2.58677
2.57717
2.56661
2.54373
2.49174
2.4313
2.30311
1
1
1.00001
1.00002
1.00006
1.00012
1.00036
1.00067
1.002
1.00403
1.01063
1.0268
1.0613
1.18596
1.42723
2.12248
2.51292
2.58119
2.56734
2.55711
2.53611
2.51255
2.46036
2.41199
2.31385
1
1
1.00001
1.00002
1.00005
1.00009
1.0003
1.00054
1.00167
1.0032
1.00883
1.02065
1.04922
1.14384
1.32907
1.94132
2.40425
2.55573
2.55166
2.54089
2.51635
2.4912
2.43528
2.38243
2.31018
1
1
1.00001
1.00001
1.00004
1.00007
1.00024
1.00042
1.00134
1.00246
1.00731
1.01513
1.03901
1.10182
1.2399
1.63533
2.29118
2.49289
2.50793
2.50586
2.49011
2.47097
2.42806
2.36556
2.29902
1
1
1.00001
1.00001
1.00003
1.00006
1.00018
1.00033
1.00103
1.00189
1.00571
1.01143
1.03053
1.07832
1.17769
1.52355
2.21723
2.44648
2.4786
2.47287
2.4599
2.43534
2.41174
2.36076
2.29728
1
1
1
1.00001
1.00002
1.00004
1.00014
1.00025
1.00077
1.00143
1.0042
1.00875
1.02251
1.05958
1.13327
1.39797
2.03731
2.36993
2.45826
2.45331
2.43774
2.40636
2.37482
2.34469
2.29292
1
1
1
1.00001
1.00001
1.00004
1.00007
1.00023
1.00043
1.00128
1.00252
1.00673
1.01599
1.03781
1.10755
1.24169
1.69088
2.20461
2.41313
2.42362
2.41801
2.39822
2.35918
2.32038
2.27811
1
1
1
1.00001
1.00001
1.00003
1.00005
1.00017
1.00031
1.00097
1.00181
1.00526
1.0111
1.02833
1.07588
1.16721
1.49802
2.13958
2.34826
2.38204
2.37337
2.36694
2.3468
2.31093
2.27139
1
1
1
1
1.00001
1.00002
1.00005
1.00009
1.00027
1.00053
1.00144
1.00322
1.00785
1.02116
1.04717
1.14059
1.3161
1.83947
2.26807
2.3646
2.3578
2.33421
2.31608
2.28722
2.25446
1
1
1
1
1
1.00002
1.00003
1.00009
1.00016
1.00049
1.00094
1.00275
1.00552
1.01515
1.03387
1.08763
1.21163
1.64693
2.06132
2.31237
2.33693
2.32554
2.30463
2.27334
2.24197
1
1
1
1
1
1.00001
1.00002
1.00005
1.00014
1.00026
1.00077
1.00151
1.00408
1.00939
1.02241
1.06274
1.13282
1.41549
1.9783
2.21382
2.285
2.29249
2.27954
2.25524
2.22163
1
1
1
1
1
1.00001
1.00001
1.00004
1.00008
1.00023
1.00043
1.00127
1.00249
1.00675
1.01549
1.03719
1.10327
1.23047
1.65282
2.08989
2.25166
2.27004
2.26419
2.24693
2.21586
1
1
1
1
1
1
1.00001
1.00003
1.00005
1.00016
1.00029
1.00088
1.00164
1.00476
1.00986
1.02527
1.06612
1.14505
1.4258
1.97091
2.18338
2.22417
2.22907
2.21958
2.20381
1
1
1
1
1
1
1.00001
1.00001
1.00004
1.00008
1.00024
1.00045
1.00133
1.00261
1.00712
1.01607
1.03921
1.10552
1.2459
1.62793
2.06997
2.20363
2.20358
2.19557
2.17917
1
1
1
1
1
1
1
1.00001
1.00002
1.00007
1.00013
1.00038
1.00072
1.00212
1.00417
1.0116
1.02496
1.06551
1.15197
1.4538
1.8443
2.13288
2.1824
2.18038
2.16511
1
1
1
1
1
1
1
1.00001
1.00002
1.00003
1.0001
1.00019
1.00058
1.00108
1.00319
1.00628
1.01704
1.03893
1.09347
1.24384
1.64888
1.99194
2.14126
2.15527
2.14969
1
1
1
1
1
1
1
1
1.00001
1.00002
1.00007
1.00012
1.00037
1.00069
1.00207
1.00391
1.01121
1.02317
1.06096
1.14158
1.39878
1.79815
2.05896
2.12193
2.127
1
1
1
1
1
1
1
1
1.00001
1.00002
1.00003
1.0001
1.00018
1.00053
1.00099
1.00291
1.0057
1.0155
1.03442
1.08478
1.2106
1.57227
1.91976
2.0766
2.09558
1
1
1
1
1
1
1
1
1
1.00001
1.00002
1.00006
1.00011
1.00033
1.00061
1.00184
1.00345
1.00987
1.0204
1.05252
1.12509
1.32913
1.71764
1.9963
2.0692
1
1
1
1
1
1
1
1
1
1.00001
1.00001
1.00003
1.00008
1.00016
1.00046
1.00087
1.00249
1.00494
1.01335
1.02887
1.07435
1.17128
1.49966
1.82216
2.01371
1
1
1
1
1
1
1
1
1
1
1.00001
1.00002
1.00004
1.00012
1.00022
1.00065
1.00122
1.00347
1.00712
1.018
1.04524
1.09937
1.27879
1.67241
1.92567
1
1
1
1
1
1
1
1
1
1
1
1.00001
1.00002
1.00007
1.00013
1.0004
1.00072
1.00217
1.00406
1.01164
1.02339
1.06301
1.13874
1.40882
1.74555
1
1
1
1
1
1
1
1
1
1
1
1.00001
1.00001
1.00004
1.00007
1.00023
1.00041
1.00124
1.00227
1.00662
1.01315
1.03391
1.08099
1.19034
1.47253
1
1
1
1
1
1
1
1
1
1
1
1
1.00001
1.00002
1.00005
1.0001
1.0003
1.00056
1.00161
1.00312
1.00853
1.0183
1.04527
1.10837
1.27753
1
1
1
1
1
1
1
1
1
1
1
1
1.00001
1.00001
1.00003
1.00006
1.00017
1.00031
1.00093
1.00171
1.00498
1.00968
1.02584
1.05809
1.14088
1
1
1
1
1
1
1
1
1
1
1
1
1
1.00001
1.00001
1.00004
1.00007
1.00021
1.0004
1.00115
1.00219
1.00612
1.01262
1.03183
1.07678
1
1
1
1
1
1
1
1
1
1
1
1
1
1
1.00001
1.00002
1.00005
1.00009
1.00028
1.00052
1.00151
1.00288
1.00801
1.01647
1.04245
1
1
1
1
1
1
1
1
1
1
1
1
1
1
1.00001
1.00001
1.00003
1.00005
1.00015
1.00028
1.00084
1.00154
1.00447
1.00863
1.02308
1
1
1
1
1
1
1
1
1
1
1
1
1
1
1
1.00001
1.00001
1.00003
1.00006
1.00018
1.00035
1.00099
1.0019
1.00519
1.01073
1
1
1
1
1
1
1
1
1
1
1
1
1
1
1
1
1.00001
1.00001
1.00004
1.00008
1.00023
1.00043
1.00123
1.00237
1.00643
1
1
1
1
1
1
1
1
1
1
1
1
1
1
1
1
1
1.00001
1.00002
1.00005
1.0001
1.00028
1.00053
1.00151
1.00292
1
1
1
1
1
1
1
1
1
1
1
1
1
1
1
1
1
1.00001
1.00001
1.00003
1.00005
1.00015
1.00027
1.00081
1.00149
1
1
1
1
1
1
1
1
1
1
1
1
1
1
1
1
1
1
1.00001
1.00001
1.00003
1.00006
1.00017
1.00032
1.00092
1
1
1
1
1
1
1
1
1
1
1
1
1
1
1
1
1
1
1
1.00001
1.00002
1.00003
1.00009
1.00017
1.00048
1
1
1
1
1
1
1
1
1
1
1
1
1
1
1
1
1
1
1
1
1.00001
1.00002
1.00005
1.00008
1.00025
1
1
1
1
1
1
1
1
1
1
1
1
1
1
1
1
1
1
1
1
1
1.00001
1.00002
1.00006
1.00011
1
1
1
1
1
1
1
1
1
1
1
1
1
1
1
1
1
1
1
1
1
1.00001
1.00002
1.00003
1.0001
2.35541
2.26336
2.26554
2.31484
2.40759
2.47215
2.5275
2.55426
2.55884
2.55632
2.55668
2.55795
2.5605
2.56507
2.56663
2.57
2.56929
2.56923
2.56902
2.56835
2.5674
2.56567
2.5639
2.56103
2.55809
2.55421
2.55042
2.54605
2.54162
2.53681
2.53164
2.52614
2.5207
2.51435
2.50932
2.50274
2.49846
2.49519
2.49409
2.49537
2.4995
2.51415
2.55055
2.63379
2.81233
3.13592
3.49701
3.66322
3.60836
3.56451
3.5145
3.45808
3.40135
3.34973
3.30549
3.27177
3.24255
3.21381
3.18686
3.16527
3.14373
3.12407
3.10386
3.08574
3.06701
3.05104
3.0339
3.02022
3.00418
2.99176
2.97629
2.96493
2.94999
2.93955
2.92511
2.91554
2.90177
2.89292
2.88009
2.87215
2.86033
2.85331
2.84242
2.83644
2.82648
2.82135
2.81231
2.80779
2.79889
2.7944
2.78542
2.78087
2.77168
2.76702
2.75755
2.75291
2.74355
2.73994
2.73348
2.73801
2.21128
2.14322
2.1058
2.0874
2.06061
2.03289
2.02056
2.02217
2.03201
2.05032
2.06481
2.07307
2.07239
2.07186
2.07146
2.0717
2.07235
2.07297
2.07378
2.07442
2.07437
2.07396
2.07303
2.07149
2.07025
2.06854
2.06695
2.06484
2.06268
2.06028
2.05742
2.0548
2.05139
2.04824
2.04485
2.04094
2.0376
2.0356
2.03372
2.03404
2.03614
2.04493
2.06876
2.12736
2.26273
2.54579
2.93053
3.13688
3.08688
2.98413
2.91053
2.8493
2.80379
2.7693
2.74175
2.71746
2.69515
2.67628
2.65891
2.64326
2.62778
2.61323
2.59861
2.58537
2.57195
2.55941
2.54626
2.53359
2.52004
2.50739
2.49357
2.48126
2.46718
2.45513
2.44082
2.42895
2.41458
2.40287
2.38861
2.37715
2.36326
2.35211
2.33879
2.32828
2.31592
2.30647
2.29528
2.28705
2.27726
2.27039
2.26196
2.25626
2.24892
2.24412
2.23772
2.2337
2.22834
2.22587
2.22333
2.2301
2.20097
2.12518
2.05663
1.98673
1.92
1.86966
1.84263
1.84072
1.84375
1.85489
1.86755
1.88121
1.8866
1.89038
1.88985
1.88984
1.88973
1.88974
1.88985
1.8901
1.89036
1.89032
1.89013
1.88959
1.8891
1.88812
1.88726
1.886
1.8847
1.88328
1.8816
1.87979
1.878
1.87546
1.8735
1.87103
1.86842
1.86785
1.86749
1.86786
1.87071
1.87913
1.90024
1.94591
2.0416
2.21145
2.42346
2.67816
2.67587
2.63433
2.59095
2.55878
2.53404
2.51791
2.50653
2.49683
2.48654
2.47638
2.46543
2.45505
2.44433
2.43368
2.42209
2.41146
2.40021
2.39065
2.37968
2.37048
2.35883
2.3496
2.33721
2.32802
2.31514
2.30576
2.29238
2.28263
2.26895
2.25883
2.24498
2.23462
2.22066
2.21034
2.19656
2.18652
2.17324
2.16387
2.15148
2.14311
2.1318
2.12443
2.11414
2.10767
2.09822
2.09257
2.08383
2.079
2.07099
2.06762
2.06184
2.06566
2.19748
2.11066
2.03344
1.96222
1.89903
1.84761
1.80521
1.77697
1.75949
1.7561
1.75679
1.7626
1.76878
1.77794
1.78131
1.7843
1.7837
1.78333
1.78274
1.7819
1.78152
1.78133
1.78119
1.78094
1.78031
1.77976
1.77856
1.77784
1.77645
1.77537
1.77419
1.77263
1.77129
1.76972
1.76776
1.76649
1.76528
1.76548
1.76624
1.76816
1.77431
1.78787
1.82012
1.88461
1.99089
2.13325
2.22969
2.34891
2.43733
2.48008
2.46977
2.45507
2.43639
2.41695
2.40407
2.39636
2.38698
2.3793
2.37002
2.36306
2.35429
2.34679
2.33593
2.32731
2.31594
2.30769
2.29642
2.28829
2.2762
2.26816
2.25598
2.24814
2.23569
2.22763
2.21471
2.20602
2.19264
2.18364
2.17032
2.16142
2.14813
2.13921
2.12596
2.11722
2.1043
2.09605
2.08367
2.07607
2.06434
2.05749
2.04645
2.04039
2.02994
2.02453
2.01449
2.00965
2.00004
1.99618
1.98831
1.99009
2.20479
2.11435
2.037
1.96837
1.90442
1.85019
1.8005
1.76023
1.72776
1.70759
1.69797
1.6982
1.69932
1.70462
1.7095
1.71658
1.71939
1.72271
1.72264
1.72271
1.72257
1.72223
1.72168
1.72119
1.72092
1.72032
1.71991
1.71906
1.71828
1.71743
1.7161
1.71515
1.71385
1.71235
1.71141
1.7104
1.71069
1.71159
1.71332
1.71828
1.73072
1.75577
1.81779
1.91027
2.02912
2.10292
2.1341
2.17382
2.22992
2.28259
2.33111
2.35652
2.36812
2.3586
2.35255
2.34418
2.32877
2.31933
2.30847
2.3021
2.29196
2.28515
2.27486
2.26783
2.25655
2.24904
2.23719
2.22965
2.21793
2.21076
2.19887
2.19171
2.17967
2.1725
2.16049
2.15314
2.14088
2.13318
2.12072
2.11295
2.10052
2.09287
2.08067
2.07332
2.06141
2.05437
2.04269
2.03601
2.0246
2.01835
2.00727
2.00145
1.99066
1.9852
1.97462
1.96948
1.95912
1.95477
1.94571
1.94636
2.22276
2.13462
2.05244
1.98204
1.91755
1.86057
1.81057
1.76754
1.73091
1.70157
1.67798
1.66381
1.65672
1.65691
1.6577
1.66192
1.66536
1.67153
1.67379
1.67679
1.67656
1.67653
1.67623
1.67555
1.67444
1.67382
1.67301
1.67243
1.67195
1.67089
1.67017
1.66888
1.66751
1.66661
1.66555
1.66583
1.66689
1.66848
1.67306
1.68439
1.70742
1.76039
1.85645
1.97514
2.05064
2.07982
2.08048
2.08565
2.0999
2.12338
2.15438
2.19719
2.24409
2.28105
2.29987
2.29866
2.29135
2.28314
2.26793
2.25702
2.24485
2.23654
2.22558
2.21931
2.20917
2.20305
2.19212
2.18487
2.1732
2.16608
2.15435
2.1475
2.13629
2.12984
2.11873
2.11227
2.10126
2.09496
2.08413
2.078
2.06724
2.06112
2.05024
2.04409
2.03314
2.02718
2.01624
2.01046
1.9994
1.99373
1.98257
1.97696
1.96572
1.96007
1.94874
1.94314
1.93179
1.92682
1.91667
1.91576
2.22389
2.14858
2.07471
2.00654
1.9441
1.88695
1.8348
1.78916
1.74776
1.713
1.68295
1.6595
1.6419
1.63146
1.62711
1.62746
1.6282
1.63169
1.63414
1.63893
1.64046
1.64291
1.64266
1.64258
1.64227
1.64146
1.64045
1.63973
1.63862
1.6381
1.63724
1.63638
1.63579
1.63503
1.63534
1.63656
1.63795
1.64239
1.65253
1.67443
1.72085
1.81837
1.93593
2.02648
2.05635
2.05117
2.04274
2.03973
2.03298
2.03414
2.04075
2.06149
2.0909
2.13475
2.18252
2.22365
2.24546
2.25116
2.2452
2.2363
2.2197
2.20614
2.19212
2.18246
2.17215
2.16699
2.15886
2.15363
2.14304
2.13633
2.12515
2.11878
2.10787
2.10158
2.09086
2.08501
2.07484
2.06943
2.05939
2.05394
2.0438
2.03839
2.02819
2.02269
2.01211
2.00643
1.99556
1.98996
1.97889
1.97326
1.96195
1.95624
1.9448
1.93905
1.92752
1.92181
1.91025
1.905
1.89478
1.8931
2.22653
2.15583
2.08736
2.02266
1.9623
1.90683
1.85572
1.80952
1.76766
1.73049
1.69805
1.67031
1.64684
1.6286
1.615
1.60718
1.60361
1.60387
1.6044
1.60715
1.60917
1.61333
1.61463
1.61693
1.61671
1.61657
1.6161
1.61497
1.6136
1.61237
1.61102
1.61017
1.60967
1.61002
1.61121
1.61273
1.6169
1.62599
1.64681
1.68965
1.78446
1.90161
2.00249
2.03493
2.03489
2.02988
2.01916
2.00537
1.98836
1.97753
1.97585
1.97771
1.98452
2.00374
2.03173
2.07382
2.12398
2.17009
2.19864
2.20774
2.20222
2.19209
2.17311
2.15754
2.14094
2.13034
2.12177
2.1177
2.11124
2.10669
2.09749
2.09168
2.08143
2.07528
2.06513
2.05921
2.04916
2.04338
2.03358
2.02812
2.0184
2.01284
2.00285
1.99719
1.98686
1.98092
1.97004
1.96388
1.95273
1.94664
1.93522
1.92913
1.91736
1.91133
1.89941
1.89358
1.88183
1.87666
1.86624
1.86483
2.23167
2.16769
2.10368
2.04246
1.98458
1.93061
1.88042
1.83427
1.79214
1.75386
1.71933
1.68862
1.66153
1.63846
1.61903
1.60391
1.59322
1.5871
1.58436
1.58458
1.58503
1.5864
1.58934
1.59081
1.5931
1.59336
1.59371
1.59362
1.59321
1.59221
1.59132
1.59002
1.59027
1.59123
1.59232
1.59625
1.60416
1.62453
1.66326
1.75561
1.87419
1.98468
2.02215
2.02929
2.02016
2.00887
1.99331
1.9784
1.96011
1.94678
1.93416
1.92708
1.92523
1.92712
1.9342
1.95261
1.98307
2.02542
2.07792
2.13045
2.1628
2.1738
2.16877
2.15896
2.13888
2.12297
2.10506
2.09362
2.08347
2.07883
2.07214
2.068
2.05968
2.0542
2.04455
2.03842
2.02837
2.0219
2.01144
2.00498
1.99467
1.98841
1.97779
1.97129
1.96045
1.95414
1.94317
1.9368
1.92544
1.9191
1.90755
1.90136
1.88958
1.88348
1.87156
1.86573
1.85403
1.84889
1.83858
1.83712
2.2268
2.17016
2.11233
2.05551
2.00056
1.94908
1.90048
1.85529
1.81314
1.77454
1.73908
1.70699
1.67806
1.65233
1.62995
1.6109
1.59514
1.58276
1.5741
1.56913
1.56693
1.5671
1.56758
1.56875
1.57139
1.57273
1.57495
1.57527
1.57528
1.57503
1.57455
1.57367
1.57443
1.57524
1.57808
1.58642
1.60264
1.6413
1.72041
1.8468
1.96729
2.01197
2.02305
2.01219
2.0003
1.98884
1.97252
1.95505
1.93537
1.92078
1.90605
1.89721
1.88864
1.88195
1.88083
1.88294
1.89032
1.91001
1.94029
1.98319
2.03568
2.08869
2.12512
2.13861
2.13297
2.12253
2.10242
2.08488
2.06576
2.05401
2.04239
2.03684
2.02913
2.02492
2.01672
2.01137
2.00187
1.99549
1.98522
1.97819
1.96722
1.96015
1.94929
1.94241
1.93129
1.92454
1.91352
1.90721
1.89607
1.88984
1.87849
1.87243
1.86091
1.85491
1.84314
1.83729
1.82563
1.82049
1.81024
1.80873
2.22346
2.17326
2.12017
2.06797
2.0167
1.96727
1.92051
1.87673
1.83542
1.79705
1.76104
1.72821
1.69767
1.67039
1.6453
1.62349
1.60391
1.58782
1.57412
1.56382
1.55628
1.55229
1.55017
1.55024
1.55051
1.55123
1.55282
1.55364
1.55507
1.55564
1.55586
1.55658
1.55765
1.56062
1.56812
1.58359
1.62075
1.69213
1.82381
1.95457
2.00614
2.01672
2.00454
1.99603
1.98349
1.9692
1.94989
1.93257
1.91532
1.90187
1.8868
1.8769
1.86411
1.8552
1.84657
1.83992
1.84058
1.84369
1.85085
1.86945
1.89823
1.93738
1.98811
2.04285
2.08014
2.09908
2.09304
2.08193
2.06337
2.04508
2.02511
2.01275
2.00051
1.99424
1.98577
1.98086
1.97254
1.96707
1.95765
1.95123
1.94089
1.93375
1.92275
1.9157
1.90465
1.89778
1.88659
1.88024
1.86927
1.8633
1.85216
1.8463
1.83506
1.82936
1.81796
1.8123
1.80092
1.79571
1.78564
1.78378
2.21465
2.17005
2.12334
2.07514
2.02775
1.98212
1.93726
1.89491
1.85486
1.81728
1.78202
1.74888
1.71814
1.68954
1.66332
1.63947
1.61786
1.59895
1.58218
1.56851
1.55688
1.54838
1.54198
1.53868
1.53671
1.53673
1.53697
1.53747
1.53893
1.54036
1.54215
1.54391
1.54787
1.55494
1.57196
1.604
1.68051
1.79784
1.93727
1.99786
2.01023
2.00089
1.99064
1.98026
1.9636
1.94723
1.92889
1.91335
1.89641
1.88345
1.87084
1.86129
1.84683
1.83611
1.82203
1.81328
1.80601
1.80075
1.80118
1.80292
1.80756
1.82165
1.8476
1.88365
1.93182
1.98824
2.03131
2.0547
2.04843
2.03736
2.02067
2.00232
1.98196
1.9693
1.95693
1.95012
1.94082
1.93572
1.92726
1.92217
1.91322
1.90768
1.89768
1.89124
1.88057
1.87436
1.86351
1.85738
1.84649
1.8409
1.83027
1.82492
1.81427
1.80896
1.79831
1.79299
1.7823
1.77707
1.76748
1.76537
2.2073
2.16768
2.1251
2.08278
2.03843
1.99529
1.95376
1.9131
1.87388
1.83683
1.80174
1.76894
1.73794
1.70923
1.68224
1.65747
1.63459
1.61378
1.59507
1.57854
1.56421
1.55223
1.54243
1.53509
1.52979
1.5268
1.52535
1.52553
1.52598
1.52698
1.52953
1.53401
1.54137
1.55747
1.58871
1.6582
1.77607
1.91843
1.98961
2.00517
1.99614
1.98919
1.97601
1.96144
1.94439
1.92951
1.9116
1.89638
1.88138
1.87104
1.85883
1.84713
1.83225
1.82013
1.80454
1.79408
1.78088
1.77215
1.76361
1.75634
1.75348
1.75246
1.75503
1.76689
1.79064
1.82505
1.87153
1.92824
1.97814
2.00625
1.99956
1.9892
1.97493
1.95763
1.93708
1.92452
1.91217
1.90516
1.89558
1.89045
1.88195
1.87765
1.86941
1.8648
1.85537
1.85011
1.84016
1.83503
1.82497
1.81977
1.80988
1.805
1.79536
1.79057
1.78095
1.77618
1.76656
1.76191
1.75307
1.75131
2.191
2.15689
2.12205
2.08284
2.04445
2.00473
1.96531
1.92782
1.89126
1.85534
1.82144
1.78879
1.75826
1.72905
1.70222
1.67647
1.65331
1.63116
1.61149
1.59293
1.5768
1.56191
1.54955
1.53859
1.53006
1.52358
1.51879
1.51721
1.51742
1.51844
1.52156
1.52821
1.54309
1.57249
1.63476
1.75286
1.89097
1.97704
1.99892
1.99306
1.98527
1.97469
1.95891
1.94494
1.92871
1.91329
1.8957
1.88184
1.86729
1.85587
1.84184
1.82949
1.81443
1.80066
1.78438
1.7721
1.75678
1.74626
1.7327
1.7228
1.71242
1.70482
1.70015
1.6997
1.70191
1.71306
1.73586
1.76852
1.81328
1.86992
1.92469
1.95938
1.95227
1.94351
1.93251
1.91544
1.89462
1.88223
1.86986
1.86248
1.85257
1.84693
1.83863
1.83469
1.8272
1.82296
1.81445
1.80999
1.80129
1.79679
1.78779
1.78316
1.77422
1.76982
1.76105
1.75675
1.74807
1.7441
1.73596
1.73528
2.18266
2.15071
2.11353
2.08093
2.04437
2.00876
1.97312
1.93658
1.90265
1.86958
1.83669
1.80586
1.77595
1.7475
1.72074
1.69499
1.67139
1.6484
1.62826
1.60792
1.59126
1.57371
1.56032
1.54596
1.53591
1.52532
1.51871
1.51379
1.51428
1.51563
1.52045
1.53322
1.55902
1.61414
1.72848
1.86154
1.96217
1.99201
1.99031
1.98418
1.97105
1.95793
1.94277
1.92947
1.91237
1.89635
1.87825
1.86338
1.84805
1.836
1.82144
1.80869
1.79261
1.77813
1.76204
1.74852
1.73303
1.72175
1.7076
1.69763
1.6853
1.67584
1.66611
1.65964
1.65538
1.65604
1.65889
1.66904
1.69076
1.72152
1.76408
1.81941
1.87864
1.91968
1.914
1.90659
1.89652
1.87983
1.85979
1.8472
1.83445
1.82651
1.81618
1.81026
1.80192
1.79799
1.79054
1.78627
1.77845
1.77444
1.76638
1.76201
1.75337
1.74899
1.74051
1.73636
1.72801
1.72427
1.71639
1.7165
2.17508
2.14626
2.11306
2.07665
2.04417
2.00958
1.9758
1.94359
1.90906
1.87827
1.84813
1.81782
1.78994
1.7624
1.73628
1.71139
1.68788
1.6646
1.64447
1.62276
1.60586
1.58645
1.57223
1.55578
1.54402
1.53151
1.52252
1.51682
1.51765
1.52034
1.52962
1.5521
1.59964
1.70742
1.83498
1.94439
1.982
1.98875
1.97907
1.96547
1.95006
1.93793
1.92268
1.90813
1.88903
1.87192
1.85375
1.84
1.82551
1.81325
1.79845
1.78543
1.76929
1.75566
1.74008
1.72694
1.7131
1.70216
1.68922
1.67973
1.66706
1.6574
1.64596
1.63679
1.62782
1.62214
1.61822
1.619
1.62214
1.63008
1.64917
1.67773
1.71827
1.7704
1.83464
1.88085
1.88018
1.87297
1.86378
1.84774
1.82974
1.81731
1.8042
1.79575
1.78532
1.77922
1.77073
1.76651
1.75852
1.75418
1.74663
1.74268
1.73464
1.73023
1.72172
1.71751
1.70908
1.70527
1.69717
1.69716
2.15489
2.13022
2.10682
2.0757
2.04141
2.01043
1.97738
1.94527
1.9154
1.8829
1.85403
1.82702
1.7974
1.77367
1.74682
1.72336
1.70103
1.67737
1.65854
1.63605
1.61925
1.59962
1.58385
1.5682
1.55325
1.54212
1.5304
1.52787
1.52939
1.53623
1.55376
1.594
1.68985
1.81677
1.92822
1.97529
1.98376
1.97228
1.95607
1.94298
1.92659
1.91225
1.89452
1.87823
1.85984
1.84515
1.82949
1.81703
1.8024
1.7903
1.77629
1.76397
1.7494
1.73706
1.72238
1.7107
1.69777
1.68713
1.67516
1.66541
1.65273
1.64321
1.63046
1.62074
1.60974
1.60085
1.5925
1.58682
1.58227
1.58269
1.58481
1.59012
1.60522
1.63154
1.66961
1.71772
1.78755
1.83735
1.84525
1.83825
1.82964
1.81608
1.80051
1.78812
1.77403
1.76582
1.75536
1.74932
1.74074
1.73599
1.72761
1.72351
1.71607
1.71215
1.70414
1.69995
1.69155
1.68772
1.6797
1.67929
2.14517
2.11714
2.09305
2.07058
2.04118
2.00934
1.97957
1.94875
1.91766
1.89022
1.85794
1.83342
1.80575
1.77934
1.7573
1.73045
1.71123
1.68706
1.66806
1.64782
1.62828
1.61186
1.59285
1.57905
1.56253
1.55134
1.54197
1.54248
1.54773
1.56168
1.59477
1.68522
1.79902
1.91848
1.96958
1.97959
1.96536
1.95126
1.93512
1.9175
1.89773
1.88097
1.8628
1.84858
1.83314
1.82078
1.80629
1.79431
1.7807
1.77009
1.75701
1.74585
1.73217
1.72008
1.70616
1.69508
1.68214
1.67178
1.65978
1.64929
1.63702
1.62681
1.61385
1.60422
1.59185
1.58255
1.57213
1.56363
1.55564
1.5494
1.54457
1.54377
1.54495
1.54897
1.56132
1.58556
1.62038
1.66524
1.73816
1.78974
1.80774
1.80068
1.79272
1.78388
1.76881
1.75635
1.74205
1.7342
1.72342
1.71801
1.70928
1.70419
1.69584
1.69201
1.68452
1.68067
1.67275
1.66901
1.66124
1.6609
2.13419
2.10601
2.07947
2.0542
2.03457
2.00766
1.97857
1.95042
1.9216
1.89371
1.86594
1.83711
1.81348
1.78658
1.76358
1.74093
1.71717
1.69818
1.67548
1.65802
1.63783
1.62071
1.60391
1.58688
1.57414
1.56133
1.55945
1.56364
1.57608
1.60302
1.68706
1.78869
1.915
1.97137
1.98123
1.96651
1.94765
1.93187
1.91032
1.89118
1.87023
1.85391
1.83804
1.82588
1.81146
1.79903
1.78436
1.77315
1.76081
1.75085
1.73832
1.72738
1.71357
1.70186
1.68854
1.67741
1.66459
1.65426
1.6418
1.63153
1.61954
1.60926
1.59714
1.5875
1.57513
1.56626
1.55472
1.54627
1.53643
1.5285
1.52078
1.51425
1.5096
1.50763
1.50856
1.51168
1.52137
1.54311
1.57325
1.61692
1.68795
1.74111
1.76972
1.7632
1.7573
1.7503
1.73532
1.72432
1.71045
1.70219
1.69163
1.68691
1.67767
1.67251
1.664
1.66016
1.65242
1.64894
1.6414
1.64112
2.12034
2.10312
2.07445
2.04744
2.02117
1.99926
1.97542
1.94916
1.9219
1.8971
1.86966
1.84441
1.81786
1.7945
1.76971
1.74764
1.72576
1.70377
1.68515
1.66391
1.64714
1.62792
1.61232
1.59625
1.58299
1.5779
1.58155
1.59023
1.61549
1.68509
1.78926
1.91995
1.98062
1.9879
1.96987
1.95094
1.93182
1.9116
1.88888
1.86991
1.85195
1.83806
1.8218
1.80699
1.78973
1.776
1.76217
1.75223
1.74042
1.73053
1.71784
1.70657
1.69307
1.68182
1.66859
1.65762
1.64519
1.63501
1.62319
1.61391
1.60245
1.59307
1.58161
1.57198
1.56015
1.55121
1.5394
1.53138
1.52059
1.51295
1.50362
1.49618
1.48842
1.48177
1.47683
1.47337
1.47393
1.47627
1.48317
1.50087
1.52707
1.57076
1.63443
1.69287
1.73012
1.72835
1.72229
1.71631
1.70219
1.69345
1.67965
1.671
1.66121
1.65639
1.64659
1.64181
1.63294
1.62934
1.62173
1.6213
2.09459
2.08594
2.06712
2.04094
2.01526
1.99014
1.96745
1.94571
1.92077
1.89687
1.87343
1.84803
1.82535
1.80063
1.77855
1.75578
1.73414
1.71372
1.6926
1.67454
1.65447
1.63829
1.62056
1.60704
1.59881
1.60055
1.60869
1.63334
1.68674
1.79778
1.92997
1.99499
2.00026
1.98374
1.96255
1.94315
1.91739
1.89393
1.87091
1.85357
1.83609
1.82103
1.80304
1.78713
1.76985
1.75683
1.7432
1.73276
1.72036
1.7099
1.6969
1.68596
1.67304
1.66206
1.64925
1.6388
1.62685
1.61738
1.60662
1.59797
1.58724
1.57857
1.56728
1.558
1.54647
1.53726
1.52574
1.51759
1.50641
1.49912
1.4888
1.48153
1.47228
1.4648
1.45668
1.44988
1.44416
1.43961
1.43985
1.44149
1.44604
1.45958
1.48335
1.52521
1.57824
1.64436
1.68708
1.69459
1.68671
1.68084
1.67076
1.66255
1.64847
1.64129
1.63114
1.626
1.61644
1.61229
1.60374
1.60301
2.07601
2.07002
2.05754
2.0344
2.01052
1.98531
1.9612
1.93826
1.91619
1.89363
1.87237
1.85038
1.82717
1.80615
1.78341
1.76284
1.74166
1.72121
1.70201
1.68196
1.66489
1.64637
1.63238
1.62116
1.62199
1.62991
1.65254
1.698
1.80917
1.943
2.01211
2.01984
2.00195
1.9815
1.95739
1.92999
1.90234
1.87944
1.85859
1.84219
1.82403
1.80723
1.78766
1.77117
1.75419
1.74117
1.72693
1.71565
1.70239
1.69168
1.67902
1.66843
1.65542
1.64427
1.63137
1.62082
1.6091
1.59998
1.58941
1.58089
1.57051
1.56192
1.55096
1.54222
1.53092
1.52212
1.511
1.50265
1.49172
1.48428
1.4735
1.46656
1.45631
1.44911
1.43977
1.4323
1.4241
1.41741
1.41115
1.40671
1.40583
1.40677
1.41019
1.42116
1.44128
1.47797
1.52356
1.59408
1.64168
1.65855
1.65094
1.64758
1.63972
1.63007
1.61765
1.61199
1.60085
1.59632
1.58753
1.58625
2.03955
2.04508
2.03649
2.02339
2.0037
1.98147
1.9585
1.93639
1.91337
1.89172
1.8693
1.84926
1.82869
1.80722
1.78729
1.76662
1.74692
1.72757
1.70808
1.69047
1.67174
1.65719
1.64447
1.64425
1.65169
1.67218
1.71533
1.82377
1.9548
2.03039
2.04092
2.02397
2.00234
1.97716
1.94493
1.91675
1.89061
1.87024
1.85059
1.83277
1.81219
1.79317
1.77324
1.75747
1.74124
1.72823
1.71348
1.70124
1.68717
1.67571
1.66216
1.65072
1.6371
1.62586
1.61294
1.6027
1.59107
1.5819
1.57116
1.56279
1.55255
1.54442
1.53414
1.52589
1.5151
1.50681
1.49586
1.48772
1.47711
1.46947
1.45904
1.45218
1.44179
1.43536
1.4254
1.41872
1.40969
1.40263
1.39473
1.38811
1.38165
1.37732
1.37474
1.37556
1.37815
1.38536
1.4055
1.43166
1.47419
1.54293
1.596
1.62114
1.61945
1.61574
1.60837
1.60076
1.58973
1.58387
1.57364
1.57207
2.013
2.02129
2.01762
2.00702
1.99016
1.97182
1.95226
1.93263
1.91178
1.89046
1.86945
1.8476
1.8281
1.80819
1.78817
1.76906
1.74985
1.73117
1.71343
1.69528
1.68052
1.66715
1.66607
1.67335
1.69306
1.73541
1.83402
1.96896
2.05023
2.06487
2.04757
2.02714
1.99787
1.9639
1.9326
1.90701
1.88402
1.86445
1.84351
1.8237
1.8022
1.78333
1.76398
1.74745
1.72977
1.71501
1.6992
1.68665
1.67264
1.66098
1.64725
1.63555
1.62196
1.61057
1.59745
1.58683
1.57474
1.5654
1.55472
1.54656
1.53657
1.52875
1.51855
1.51049
1.49991
1.49177
1.48107
1.47321
1.46274
1.45524
1.44523
1.43819
1.42835
1.42197
1.41194
1.40595
1.39603
1.38981
1.38064
1.37397
1.36607
1.35954
1.35334
1.34872
1.34532
1.34584
1.34835
1.35345
1.36722
1.38931
1.43512
1.48866
1.5487
1.58329
1.59105
1.58487
1.57967
1.57492
1.56488
1.56228
1.95316
1.9963
1.99796
1.99214
1.98128
1.96277
1.9448
1.92655
1.90776
1.88757
1.86771
1.84741
1.82674
1.80746
1.78839
1.76944
1.75114
1.73319
1.71592
1.70081
1.68777
1.68626
1.69366
1.7131
1.75487
1.84687
1.9839
2.07312
2.09
2.07364
2.05201
2.02104
1.98325
1.95166
1.92376
1.90109
1.87909
1.85888
1.83689
1.81627
1.79465
1.77543
1.7552
1.73749
1.71912
1.70399
1.68836
1.67569
1.66143
1.64932
1.63491
1.62256
1.60834
1.59643
1.5831
1.57233
1.56026
1.55084
1.53989
1.53129
1.5208
1.51247
1.50204
1.49391
1.4835
1.47558
1.46525
1.45763
1.44745
1.44022
1.43028
1.42339
1.41374
1.4071
1.39754
1.39134
1.38163
1.3759
1.3663
1.36066
1.3518
1.34591
1.33831
1.3324
1.3264
1.32172
1.3178
1.31807
1.31918
1.32265
1.33453
1.35282
1.39196
1.43299
1.50502
1.54459
1.56037
1.5582
1.55447
1.5531
1.81266
1.95813
1.97519
1.97499
1.96488
1.95407
1.93576
1.91853
1.90261
1.8847
1.86578
1.84656
1.82685
1.80734
1.78823
1.77006
1.75191
1.73484
1.71921
1.70647
1.70428
1.71167
1.73145
1.77139
1.86119
2.00415
2.0962
2.11513
2.0968
2.07649
2.04275
2.00557
1.97204
1.94445
1.91902
1.89697
1.87411
1.85267
1.8299
1.80929
1.78765
1.76805
1.74731
1.72911
1.71026
1.6944
1.67779
1.66398
1.64914
1.63685
1.62282
1.61075
1.59638
1.58416
1.57019
1.55891
1.54612
1.53599
1.52424
1.51504
1.50405
1.49557
1.48512
1.47712
1.46694
1.45923
1.44921
1.44176
1.4319
1.42473
1.41497
1.40811
1.39845
1.39192
1.38252
1.37637
1.36729
1.36166
1.35267
1.34759
1.33858
1.33373
1.32509
1.32
1.31239
1.30699
1.30103
1.29609
1.29253
1.29125
1.29198
1.29521
1.30279
1.31886
1.34773
1.39072
1.45936
1.49853
1.53666
1.53568
1.61411
1.8697
1.94856
1.95579
1.95371
1.94294
1.92807
1.91056
1.8934
1.87859
1.86223
1.84486
1.82644
1.80792
1.78919
1.77087
1.7534
1.73751
1.72445
1.72128
1.72894
1.74872
1.78866
1.87827
2.02111
2.11721
2.1378
2.12013
2.09917
2.06594
2.02779
1.99477
1.96434
1.93824
1.91303
1.89041
1.86712
1.84586
1.82361
1.80309
1.781
1.76076
1.73929
1.72054
1.70119
1.68509
1.66843
1.65477
1.63981
1.62697
1.61222
1.59941
1.5847
1.57215
1.55789
1.54622
1.533
1.52253
1.51035
1.5008
1.48944
1.48061
1.46981
1.46153
1.45115
1.44334
1.43332
1.42591
1.41613
1.40901
1.39939
1.39254
1.38314
1.37677
1.36773
1.36196
1.35338
1.34808
1.33983
1.33477
1.32658
1.32167
1.31333
1.30861
1.30034
1.29573
1.28821
1.28358
1.27751
1.27315
1.26956
1.26699
1.26815
1.27084
1.27513
1.28935
1.3114
1.35804
1.40726
1.45299
1.3433
1.73028
1.88756
1.92612
1.93063
1.92749
1.91731
1.90013
1.88351
1.86746
1.8532
1.83902