/*--------------------------------*- C++ -*----------------------------------*\
| =========                 |                                                 |
| \\      /  F ield         | OpenFOAM: The Open Source CFD Toolbox           |
|  \\    /   O peration     | Version:  2412                                  |
|   \\  /    A nd           | Website:  www.openfoam.com                      |
|    \\/     M anipulation  |                                                 |
\*---------------------------------------------------------------------------*/
FoamFile
{
    version     2.0;
    format      ascii;
    arch        "LSB;label=32;scalar=64";
    class       volVectorField;
    location    "2";
    object      U;
}
// * * * * * * * * * * * * * * * * * * * * * * * * * * * * * * * * * * * * * //

dimensions      [0 1 -1 0 0 0 0];

internalField   nonuniform List<vector> 
5250
(
(3 4.42316e-09 0)
(2.99999 3.4055e-08 0)
(2.99997 1.04976e-07 0)
(2.99994 3.16618e-07 0)
(2.99983 7.48676e-07 0)
(2.99963 2.01583e-06 0)
(2.99902 4.4892e-06 0)
(2.99788 1.24326e-05 0)
(2.99413 2.59725e-05 0)
(2.98778 8.25494e-05 0)
(2.96324 0.000165278 0)
(2.91385 0.000507269 0)
(2.75422 0.00154738 0)
(2.25326 0.00330545 0)
(1.19748 0.0116298 0)
(0.424579 0.0214314 0)
(0.53847 0.0247979 0)
(0.581472 0.0259834 0)
(0.53295 0.0271221 0)
(0.445138 0.0293999 0)
(0.355676 0.0324208 0)
(0.281378 0.0357572 0)
(0.208683 0.0393182 0)
(0.127646 0.0436168 0)
(0.0598258 0.0498439 0)
(3 1.28039e-08 0)
(2.99999 9.89047e-08 0)
(2.99997 3.04399e-07 0)
(2.99994 9.17203e-07 0)
(2.99983 2.16578e-06 0)
(2.99963 5.8072e-06 0)
(2.99903 1.28604e-05 0)
(2.9979 3.57721e-05 0)
(2.99419 7.21032e-05 0)
(2.98789 0.00024268 0)
(2.96358 0.000450374 0)
(2.91506 0.00158763 0)
(2.75642 0.0043252 0)
(2.26162 0.0104852 0)
(1.21528 0.0351872 0)
(0.435543 0.0639448 0)
(0.540867 0.0713516 0)
(0.58143 0.0713597 0)
(0.533404 0.0720461 0)
(0.446693 0.0767597 0)
(0.357067 0.0825836 0)
(0.281611 0.0880088 0)
(0.207442 0.09298 0)
(0.124642 0.0980105 0)
(0.0562553 0.103653 0)
(3 2.1089e-08 0)
(2.99999 1.63058e-07 0)
(2.99997 5.01192e-07 0)
(2.99994 1.50836e-06 0)
(2.99984 3.54997e-06 0)
(2.99964 9.48559e-06 0)
(2.99905 2.09229e-05 0)
(2.99793 5.80553e-05 0)
(2.9943 0.000114478 0)
(2.98809 0.000396786 0)
(2.96433 0.000696589 0)
(2.91725 0.00269496 0)
(2.76116 0.00674785 0)
(2.28024 0.0179096 0)
(1.25238 0.0581544 0)
(0.460092 0.108917 0)
(0.546357 0.12216 0)
(0.582087 0.119856 0)
(0.536861 0.120702 0)
(0.453241 0.130635 0)
(0.363417 0.14164 0)
(0.28658 0.151451 0)
(0.211023 0.160574 0)
(0.126489 0.169164 0)
(0.0559868 0.176885 0)
(3 3.07692e-08 0)
(2.99999 2.37235e-07 0)
(2.99997 7.29787e-07 0)
(2.99994 2.19139e-06 0)
(2.99984 5.14671e-06 0)
(2.99964 1.36945e-05 0)
(2.99907 3.02062e-05 0)
(2.99798 8.25995e-05 0)
(2.99447 0.000164101 0)
(2.98838 0.000553728 0)
(2.96544 0.000967102 0)
(2.92036 0.00373544 0)
(2.76822 0.00911934 0)
(2.3079 0.024639 0)
(1.3079 0.0785827 0)
(0.497828 0.154409 0)
(0.55375 0.172616 0)
(0.581197 0.166053 0)
(0.543173 0.168318 0)
(0.465259 0.184305 0)
(0.374986 0.201268 0)
(0.296581 0.216115 0)
(0.21949 0.230239 0)
(0.13236 0.243283 0)
(0.0580451 0.25377 0)
(3 4.2005e-08 0)
(2.99999 3.24572e-07 0)
(2.99997 9.98908e-07 0)
(2.99994 3.00397e-06 0)
(2.99985 7.07798e-06 0)
(2.99966 1.88262e-05 0)
(2.99911 4.18834e-05 0)
(2.99804 0.000112189 0)
(2.99469 0.000233727 0)
(2.98877 0.000716705 0)
(2.96691 0.00136115 0)
(2.92436 0.00470177 0)
(2.7773 0.0113518 0)
(2.34339 0.0325043 0)
(1.38195 0.0958802 0)
(0.548283 0.202017 0)
(0.560467 0.21591 0)
(0.579155 0.211353 0)
(0.553212 0.21823 0)
(0.482371 0.237496 0)
(0.391235 0.260812 0)
(0.310853 0.281151 0)
(0.23227 0.300885 0)
(0.141976 0.31924 0)
(0.0622774 0.333336 0)
(3 5.33248e-08 0)
(2.99999 4.12781e-07 0)
(2.99998 1.27033e-06 0)
(2.99994 3.82286e-06 0)
(2.99985 9.03043e-06 0)
(2.99967 2.39948e-05 0)
(2.99915 5.3677e-05 0)
(2.99814 0.000141841 0)
(2.99497 0.000304414 0)
(2.98933 0.000874419 0)
(2.96868 0.00176395 0)
(2.92904 0.0056084 0)
(2.78954 0.0133435 0)
(2.3855 0.0403347 0)
(1.47107 0.110491 0)
(0.607067 0.250227 0)
(0.566002 0.255858 0)
(0.584228 0.257168 0)
(0.566012 0.270583 0)
(0.502303 0.2916 0)
(0.412828 0.320436 0)
(0.330416 0.347547 0)
(0.250254 0.374618 0)
(0.155901 0.400462 0)
(0.0689213 0.420784 0)
(3 6.54752e-08 0)
(2.99999 5.07159e-07 0)
(2.99998 1.56132e-06 0)
(2.99995 4.69625e-06 0)
(2.99986 1.11123e-05 0)
(2.99969 2.94446e-05 0)
(2.99921 6.60342e-05 0)
(2.99825 0.000172393 0)
(2.9953 0.000376292 0)
(2.98999 0.00103195 0)
(2.97076 0.00216475 0)
(2.93438 0.00639537 0)
(2.80387 0.0153184 0)
(2.43328 0.0461008 0)
(1.57605 0.121984 0)
(0.676894 0.296477 0)
(0.571358 0.298483 0)
(0.593679 0.301847 0)
(0.582487 0.321575 0)
(0.52471 0.346268 0)
(0.439482 0.380243 0)
(0.356882 0.41572 0)
(0.275684 0.452567 0)
(0.177015 0.489447 0)
(0.0801554 0.521177 0)
(3 7.98136e-08 0)
(2.99999 6.2035e-07 0)
(2.99998 1.9112e-06 0)
(2.99995 5.7604e-06 0)
(2.99987 1.36889e-05 0)
(2.99972 3.62786e-05 0)
(2.99927 8.19829e-05 0)
(2.99839 0.000210808 0)
(2.99568 0.000477587 0)
(2.99082 0.00120609 0)
(2.97306 0.00274514 0)
(2.94037 0.00715287 0)
(2.81994 0.0174298 0)
(2.48413 0.051241 0)
(1.69016 0.132291 0)
(0.752982 0.342556 0)
(0.572405 0.341363 0)
(0.603386 0.34506 0)
(0.601652 0.370406 0)
(0.550072 0.399983 0)
(0.47155 0.44017 0)
(0.391573 0.485772 0)
(0.311062 0.535592 0)
(0.209393 0.589015 0)
(0.0993059 0.643314 0)
(3 9.21488e-08 0)
(2.99999 7.12455e-07 0)
(2.99998 2.19444e-06 0)
(2.99996 6.59644e-06 0)
(2.99989 1.5694e-05 0)
(2.99975 4.14782e-05 0)
(2.99935 9.41408e-05 0)
(2.99858 0.000239607 0)
(2.99613 0.000549863 0)
(2.99189 0.00134682 0)
(2.97563 0.00309854 0)
(2.94698 0.0081227 0)
(2.83764 0.0188249 0)
(2.539 0.0563822 0)
(1.81564 0.143495 0)
(0.834533 0.389881 0)
(0.567803 0.38263 0)
(0.612111 0.385446 0)
(0.622628 0.416022 0)
(0.578413 0.45134 0)
(0.509692 0.498782 0)
(0.436441 0.556399 0)
(0.360728 0.621353 0)
(0.262632 0.70085 0)
(0.135484 0.801909 0)
(3 3.26696e-08 0)
(2.99999 1.00799e-06 0)
(2.99998 1.97868e-06 0)
(2.99996 8.90267e-06 0)
(2.9999 1.45306e-05 0)
(2.99978 5.66526e-05 0)
(2.99944 8.29881e-05 0)
(2.99877 0.000349792 0)
(2.9966 0.000393401 0)
(2.99296 0.00217379 0)
(2.97862 0.00148884 0)
(2.95382 0.0139465 0)
(2.85676 0.00958936 0)
(2.5996 0.0838982 0)
(1.95643 0.148635 0)
(0.93113 0.445454 0)
(0.567648 0.428547 0)
(0.62626 0.425983 0)
(0.649821 0.457517 0)
(0.613032 0.49972 0)
(0.55629 0.553975 0)
(0.493276 0.622632 0)
(0.431129 0.708962 0)
(0.354763 0.834507 0)
(0.205449 1.05511 0)
(3 7.15058e-08 0)
(2.99999 5.55014e-07 0)
(2.99999 1.70848e-06 0)
(2.99997 5.1438e-06 0)
(2.99993 1.21425e-05 0)
(2.99981 3.2303e-05 0)
(2.99959 7.18688e-05 0)
(2.99884 0.000193196 0)
(2.99764 0.000399086 0)
(2.99281 0.00124373 0)
(2.98521 0.00228359 0)
(2.95411 0.00850301 0)
(2.88754 0.0173964 0)
(2.68289 0.0628516 0)
(2.05548 0.172707 0)
(1.09217 0.474252 0)
(0.608817 0.472856 0)
(0.664852 0.473063 0)
(0.695684 0.498125 0)
(0.66258 0.543138 0)
(0.614466 0.601669 0)
(0.568826 0.679256 0)
(0.539593 0.785612 0)
(0.544471 0.943362 0)
(0.591821 1.20039 0)
(3 1.20275e-07 0)
(3 1.78267e-07 0)
(2.99999 1.67151e-06 0)
(2.99997 2.09927e-06 0)
(2.99993 1.15113e-05 0)
(2.99983 1.2612e-05 0)
(2.99957 7.24836e-05 0)
(2.99905 5.94453e-05 0)
(2.99748 0.000491742 0)
(2.99453 0.000332378 0)
(2.98466 0.00350913 0)
(2.96643 0.00262476 0)
(2.90192 0.0247302 0)
(2.73843 0.0373836 0)
(2.30034 0.153023 0)
(1.24627 0.432024 0)
(0.684603 0.503657 0)
(0.721535 0.530606 0)
(0.751745 0.542429 0)
(0.724829 0.583479 0)
(0.685628 0.642973 0)
(0.658689 0.724848 0)
(0.662984 0.83772 0)
(0.726749 0.992465 0)
(0.881902 1.19076 0)
(3 6.82696e-08 0)
(3 5.36358e-07 0)
(2.99999 1.64761e-06 0)
(2.99998 5.02466e-06 0)
(2.99994 1.19347e-05 0)
(2.99986 3.21953e-05 0)
(2.99963 7.29425e-05 0)
(2.99919 0.000191797 0)
(2.99787 0.00043668 0)
(2.99532 0.00112044 0)
(2.98717 0.00260889 0)
(2.97183 0.00663563 0)
(2.9185 0.0159143 0)
(2.78556 0.0438265 0)
(2.42606 0.115488 0)
(1.40392 0.335256 0)
(0.760562 0.540221 0)
(0.757827 0.586011 0)
(0.786091 0.594083 0)
(0.782568 0.626444 0)
(0.759331 0.681928 0)
(0.751738 0.759814 0)
(0.780256 0.86368 0)
(0.868702 0.992379 0)
(1.04547 1.12126 0)
(3 6.38561e-08 0)
(3 4.99233e-07 0)
(2.99999 1.53345e-06 0)
(2.99998 4.65311e-06 0)
(2.99995 1.10524e-05 0)
(2.99989 2.96407e-05 0)
(2.9997 6.7133e-05 0)
(2.99935 0.000175439 0)
(2.99825 0.000398713 0)
(2.99634 0.00101016 0)
(2.98923 0.0023995 0)
(2.97764 0.00584748 0)
(2.93181 0.0143423 0)
(2.82587 0.0381626 0)
(2.52393 0.101424 0)
(1.59942 0.29141 0)
(0.88043 0.596099 0)
(0.77995 0.630977 0)
(0.807082 0.643066 0)
(0.825353 0.665292 0)
(0.824147 0.714376 0)
(0.834883 0.783673 0)
(0.879237 0.87013 0)
(0.97445 0.968499 0)
(1.14241 1.05286 0)
(3 5.38872e-08 0)
(3 4.17752e-07 0)
(2.99999 1.28504e-06 0)
(2.99998 3.86838e-06 0)
(2.99996 9.15162e-06 0)
(2.99991 2.42818e-05 0)
(2.99976 5.44732e-05 0)
(2.99946 0.000142742 0)
(2.99857 0.000308452 0)
(2.99699 0.000859187 0)
(2.99117 0.00173778 0)
(2.98189 0.00542409 0)
(2.94428 0.0111869 0)
(2.8624 0.0360837 0)
(2.61627 0.0886724 0)
(1.83478 0.274745 0)
(1.04794 0.634321 0)
(0.810822 0.660855 0)
(0.829604 0.675351 0)
(0.860602 0.691126 0)
(0.880647 0.734587 0)
(0.905824 0.795623 0)
(0.959054 0.86616 0)
(1.05395 0.93974 0)
(1.20548 0.997889 0)
(3 4.78259e-08 0)
(3 3.70366e-07 0)
(2.99999 1.14047e-06 0)
(2.99999 3.43177e-06 0)
(2.99997 8.12424e-06 0)
(2.99992 2.15479e-05 0)
(2.9998 4.83159e-05 0)
(2.99956 0.000126608 0)
(2.99885 0.000273588 0)
(2.99753 0.000768488 0)
(2.99301 0.0015138 0)
(2.98558 0.00501498 0)
(2.95628 0.00969579 0)
(2.89447 0.0339916 0)
(2.70505 0.080116 0)
(2.09993 0.260309 0)
(1.25405 0.654271 0)
(0.873481 0.694779 0)
(0.870266 0.705131 0)
(0.901374 0.713719 0)
(0.93521 0.746664 0)
(0.968945 0.798938 0)
(1.02483 0.857401 0)
(1.11507 0.91344 0)
(1.24913 0.954829 0)
(3 4.20916e-08 0)
(3 3.26505e-07 0)
(3 1.00536e-06 0)
(2.99999 3.02826e-06 0)
(2.99997 7.17941e-06 0)
(2.99994 1.90514e-05 0)
(2.99984 4.28507e-05 0)
(2.99965 0.000111497 0)
(2.9991 0.000246045 0)
(2.99803 0.000660179 0)
(2.9947 0.00137839 0)
(2.98876 0.00417803 0)
(2.96761 0.00831206 0)
(2.92435 0.0270862 0)
(2.78973 0.0665721 0)
(2.37741 0.199918 0)
(1.54504 0.554662 0)
(0.999623 0.709971 0)
(0.941722 0.734483 0)
(0.955718 0.74498 0)
(0.992598 0.762691 0)
(1.03052 0.801937 0)
(1.08399 0.849035 0)
(1.16595 0.892332 0)
(1.28276 0.922595 0)
(3 3.61497e-08 0)
(3 2.79945e-07 0)
(3 8.62019e-07 0)
(2.99999 2.5925e-06 0)
(2.99998 6.15039e-06 0)
(2.99995 1.62779e-05 0)
(2.99988 3.67045e-05 0)
(2.99973 9.47969e-05 0)
(2.99931 0.000211077 0)
(2.99848 0.000546511 0)
(2.99593 0.00120315 0)
(2.99139 0.00322574 0)
(2.97491 0.00692874 0)
(2.94508 0.0196069 0)
(2.83635 0.0477332 0)
(2.53893 0.136208 0)
(1.84217 0.382052 0)
(1.12342 0.729591 0)
(0.995281 0.764802 0)
(1.00029 0.780269 0)
(1.03837 0.785945 0)
(1.08375 0.809975 0)
(1.13626 0.844392 0)
(1.21018 0.877002 0)
(1.31168 0.899311 0)
(3 2.00419e-08 0)
(3 2.66255e-07 0)
(3 6.55796e-07 0)
(2.99999 2.39204e-06 0)
(2.99998 4.75938e-06 0)
(2.99996 1.494e-05 0)
(2.99991 2.8528e-05 0)
(2.9998 8.71096e-05 0)
(2.99948 0.000163855 0)
(2.99886 0.000505909 0)
(2.99692 0.000910455 0)
(2.99356 0.0030821 0)
(2.98101 0.00475474 0)
(2.95925 0.0201153 0)
(2.87759 0.0304512 0)
(2.66519 0.133382 0)
(2.12825 0.297002 0)
(1.29393 0.765529 0)
(1.03866 0.806583 0)
(1.03535 0.81437 0)
(1.07291 0.812023 0)
(1.12651 0.819476 0)
(1.18065 0.842234 0)
(1.24872 0.866292 0)
(1.33776 0.882353 0)
(3 1.61315e-08 0)
(3 2.06231e-07 0)
(3 5.14878e-07 0)
(3 1.85748e-06 0)
(2.99999 3.73067e-06 0)
(2.99997 1.15856e-05 0)
(2.99994 2.22808e-05 0)
(2.99984 6.7306e-05 0)
(2.99966 0.000127426 0)
(2.9991 0.000388911 0)
(2.99808 0.000709293 0)
(2.99461 0.0023546 0)
(2.98888 0.00377255 0)
(2.96693 0.0153791 0)
(2.92283 0.0236938 0)
(2.78298 0.10034 0)
(2.3776 0.229992 0)
(1.59588 0.658509 0)
(1.15767 0.804281 0)
(1.1009 0.829296 0)
(1.11746 0.835126 0)
(1.16812 0.832499 0)
(1.22418 0.844173 0)
(1.28585 0.860568 0)
(1.36322 0.871407 0)
(3 2.87129e-08 0)
(3 1.11311e-07 0)
(3 5.07164e-07 0)
(3 1.10457e-06 0)
(2.99999 3.53818e-06 0)
(2.99998 7.00306e-06 0)
(2.99995 2.0977e-05 0)
(2.99988 4.05223e-05 0)
(2.99974 0.000120671 0)
(2.99934 0.00022679 0)
(2.99856 0.000711213 0)
(2.99611 0.00119331 0)
(2.99186 0.00444601 0)
(2.97602 0.00632796 0)
(2.94768 0.0278105 0)
(2.84478 0.0476443 0)
(2.56579 0.179887 0)
(1.91238 0.447229 0)
(1.27499 0.805298 0)
(1.15403 0.846108 0)
(1.15722 0.862267 0)
(1.20165 0.856798 0)
(1.26081 0.853944 0)
(1.32006 0.86037 0)
(1.38858 0.865976 0)
(3 1.68988e-08 0)
(3 9.21097e-08 0)
(3 3.42143e-07 0)
(3 8.77993e-07 0)
(2.99999 2.40857e-06 0)
(2.99999 5.51809e-06 0)
(2.99997 1.42636e-05 0)
(2.99993 3.18609e-05 0)
(2.99981 8.14623e-05 0)
(2.99959 0.000180445 0)
(2.99888 0.000466282 0)
(2.99771 0.00100718 0)
(2.99317 0.00278444 0)
(2.98606 0.00561697 0)
(2.95762 0.0177451 0)
(2.89898 0.0373044 0)
(2.71451 0.120639 0)
(2.17422 0.338533 0)
(1.49293 0.776218 0)
(1.22226 0.862879 0)
(1.20177 0.883668 0)
(1.22947 0.882326 0)
(1.28688 0.870282 0)
(1.34854 0.866452 0)
(1.41254 0.866035 0)
(3 9.26925e-09 0)
(3 7.18152e-08 0)
(3 2.21296e-07 0)
(3 6.64397e-07 0)
(3 1.57396e-06 0)
(2.99999 4.14562e-06 0)
(2.99998 9.3059e-06 0)
(2.99994 2.39046e-05 0)
(2.99987 5.27743e-05 0)
(2.99966 0.000137599 0)
(2.99925 0.000292063 0)
(2.99804 0.000827256 0)
(2.9957 0.00163897 0)
(2.98846 0.0051659 0)
(2.97401 0.010431 0)
(2.92884 0.0324187 0)
(2.81729 0.0811953 0)
(2.50461 0.22681 0)
(1.76022 0.650878 0)
(1.33765 0.856371 0)
(1.2609 0.890364 0)
(1.26699 0.901 0)
(1.31313 0.889345 0)
(1.37411 0.877412 0)
(1.43527 0.871181 0)
(3 9.35155e-09 0)
(3 5.01755e-08 0)
(3 1.87589e-07 0)
(3 4.80826e-07 0)
(3 1.32869e-06 0)
(2.99999 3.045e-06 0)
(2.99998 7.9479e-06 0)
(2.99996 1.77785e-05 0)
(2.99991 4.59864e-05 0)
(2.99979 0.000102251 0)
(2.99946 0.000265451 0)
(2.99883 0.000588776 0)
(2.99678 0.0015432 0)
(2.99338 0.00344606 0)
(2.98036 0.00903152 0)
(2.95782 0.021575 0)
(2.87299 0.0560083 0)
(2.65983 0.156878 0)
(2.11604 0.418523 0)
(1.47743 0.846303 0)
(1.31142 0.906644 0)
(1.30182 0.919689 0)
(1.33449 0.910955 0)
(1.39351 0.891502 0)
(1.45487 0.879174 0)
(3 3.67304e-09 0)
(3 4.18737e-08 0)
(3 1.09315e-07 0)
(3 3.79226e-07 0)
(3 7.89706e-07 0)
(3 2.36103e-06 0)
(2.99999 4.70535e-06 0)
(2.99997 1.36344e-05 0)
(2.99994 2.68504e-05 0)
(2.99984 7.76472e-05 0)
(2.99966 0.000151366 0)
(2.99911 0.000448798 0)
(2.99808 0.000833304 0)
(2.99471 0.00274168 0)
(2.98903 0.00460069 0)
(2.96787 0.0175428 0)
(2.92588 0.0297991 0)
(2.792 0.115609 0)
(2.40779 0.281788 0)
(1.76189 0.724378 0)
(1.41548 0.889939 0)
(1.357 0.920935 0)
(1.3661 0.926429 0)
(1.41413 0.908536 0)
(1.47477 0.888615 0)
(3 5.52583e-09 0)
(3 2.29447e-08 0)
(3 9.99391e-08 0)
(3 2.25565e-07 0)
(3 6.97473e-07 0)
(3 1.42664e-06 0)
(2.99999 4.12124e-06 0)
(2.99998 8.252e-06 0)
(2.99996 2.35108e-05 0)
(2.99989 4.67336e-05 0)
(2.99977 0.000133456 0)
(2.9994 0.00026279 0)
(2.9987 0.000769837 0)
(2.99651 0.00144746 0)
(2.9927 0.00469607 0)
(2.97884 0.00797922 0)
(2.95423 0.0297732 0)
(2.86656 0.0565941 0)
(2.63195 0.199484 0)
(2.08962 0.496973 0)
(1.54304 0.871078 0)
(1.41061 0.928478 0)
(1.40073 0.940724 0)
(1.43199 0.929587 0)
(1.48876 0.903057 0)
(3 3.19644e-09 0)
(3 1.74084e-08 0)
(3 6.4642e-08 0)
(3 1.65857e-07 0)
(3 4.5447e-07 0)
(3 1.04105e-06 0)
(2.99999 2.68493e-06 0)
(2.99999 6.00206e-06 0)
(2.99997 1.52756e-05 0)
(2.99994 3.39216e-05 0)
(2.99984 8.621e-05 0)
(2.99964 0.000190661 0)
(2.99906 0.000489467 0)
(2.99797 0.00106077 0)
(2.99448 0.00287983 0)
(2.98847 0.00588083 0)
(2.96667 0.0179478 0)
(2.92261 0.0375357 0)
(2.78458 0.11862 0)
(2.39009 0.328426 0)
(1.80098 0.752218 0)
(1.5007 0.910707 0)
(1.44942 0.940829 0)
(1.45794 0.944659 0)
(1.50283 0.923295 0)
(3 1.64745e-09 0)
(3 1.2806e-08 0)
(3 3.94323e-08 0)
(3 1.18587e-07 0)
(3 2.81105e-07 0)
(3 7.41092e-07 0)
(3 1.66842e-06 0)
(2.99999 4.27534e-06 0)
(2.99998 9.50983e-06 0)
(2.99995 2.42356e-05 0)
(2.9999 5.36746e-05 0)
(2.99974 0.000137109 0)
(2.99942 0.000302109 0)
(2.99851 0.000785865 0)
(2.99672 0.00168987 0)
(2.99136 0.00470678 0)
(2.98057 0.00966114 0)
(2.94808 0.0289061 0)
(2.87032 0.0683316 0)
(2.65141 0.195177 0)
(2.08719 0.550856 0)
(1.63835 0.876504 0)
(1.50864 0.939934 0)
(1.49375 0.954449 0)
(1.51817 0.944302 0)
(3 1.70138e-09 0)
(3 7.21824e-09 0)
(3 3.09921e-08 0)
(3 7.09655e-08 0)
(3 2.16858e-07 0)
(3 4.49834e-07 0)
(3 1.28384e-06 0)
(3 2.60954e-06 0)
(2.99999 7.33434e-06 0)
(2.99997 1.48386e-05 0)
(2.99993 4.16218e-05 0)
(2.99984 8.40018e-05 0)
(2.9996 0.000236678 0)
(2.99913 0.000475683 0)
(2.99775 0.00136012 0)
(2.9951 0.00270858 0)
(2.98684 0.0079811 0)
(2.9711 0.0162816 0)
(2.92007 0.0485556 0)
(2.79452 0.115889 0)
(2.45238 0.335584 0)
(1.85738 0.768924 0)
(1.58469 0.926331 0)
(1.5352 0.955759 0)
(1.54045 0.959749 0)
(3 6.10459e-10 0)
(3 6.27581e-09 0)
(3 1.70763e-08 0)
(3 5.69877e-08 0)
(3 1.22755e-07 0)
(3 3.54236e-07 0)
(3 7.2989e-07 0)
(3 2.03886e-06 0)
(2.99999 4.1628e-06 0)
(2.99998 1.15376e-05 0)
(2.99995 2.35004e-05 0)
(2.9999 6.5076e-05 0)
(2.99975 0.000132222 0)
(2.99944 0.000367834 0)
(2.99858 0.000742289 0)
(2.99688 0.00210895 0)
(2.99186 0.00415969 0)
(2.98185 0.0125883 0)
(2.95174 0.0246154 0)
(2.88016 0.0789256 0)
(2.68343 0.186361 0)
(2.15716 0.543388 0)
(1.72411 0.882421 0)
(1.59175 0.952248 0)
(1.57333 0.967514 0)
(3 4.1078e-10 0)
(3 4.1265e-09 0)
(3 1.13121e-08 0)
(3 3.74565e-08 0)
(3 8.11264e-08 0)
(3 2.32436e-07 0)
(3 4.81322e-07 0)
(3 1.33483e-06 0)
(3 2.73878e-06 0)
(2.99999 7.5337e-06 0)
(2.99997 1.5424e-05 0)
(2.99993 4.23614e-05 0)
(2.99986 8.65389e-05 0)
(2.99964 0.000238313 0)
(2.9992 0.000484929 0)
(2.99795 0.00135034 0)
(2.99553 0.0027169 0)
(2.9882 0.0078086 0)
(2.97385 0.0158727 0)
(2.92943 0.0470616 0)
(2.82091 0.110064 0)
(2.52169 0.319911 0)
(1.9595 0.742927 0)
(1.67484 0.925032 0)
(1.61668 0.961574 0)
(3 4.65619e-10 0)
(3 2.06312e-09 0)
(3 8.61282e-09 0)
(3 2.0105e-08 0)
(3 5.99906e-08 0)
(3 1.26419e-07 0)
(3 3.52119e-07 0)
(3 7.2621e-07 0)
(3 1.98942e-06 0)
(2.99999 4.08352e-06 0)
(2.99998 1.11393e-05 0)
(2.99996 2.28214e-05 0)
(2.99991 6.22497e-05 0)
(2.99977 0.000127188 0)
(2.9995 0.000348461 0)
(2.99874 0.000707245 0)
(2.99724 0.00197296 0)
(2.99282 0.00393972 0)
(2.98423 0.0114912 0)
(2.95789 0.0232166 0)
(2.89654 0.0703088 0)
(2.72726 0.167789 0)
(2.26347 0.486494 0)
(1.82669 0.853706 0)
(1.67474 0.945594 0)
(3 2.59194e-10 0)
(3 1.40934e-09 0)
(3 5.2287e-09 0)
(3 1.34109e-08 0)
(3 3.66427e-08 0)
(3 8.38169e-08 0)
(3 2.15201e-07 0)
(3 4.801e-07 0)
(3 1.21487e-06 0)
(3 2.69432e-06 0)
(2.99999 6.79404e-06 0)
(2.99998 1.50366e-05 0)
(2.99994 3.79079e-05 0)
(2.99987 8.37319e-05 0)
(2.99968 0.000211586 0)
(2.9993 0.000466292 0)
(2.99823 0.00118748 0)
(2.99611 0.00260702 0)
(2.98994 0.00676468 0)
(2.97724 0.0151576 0)
(2.94046 0.0397075 0)
(2.8513 0.101991 0)
(2.6024 0.273821 0)
(2.07671 0.687149 0)
(1.77166 0.905654 0)
(3 1.01443e-10 0)
(3 9.94429e-10 0)
(3 2.75687e-09 0)
(3 9.03597e-09 0)
(3 1.97246e-08 0)
(3 5.5842e-08 0)
(3 1.16311e-07 0)
(3 3.18293e-07 0)
(3 6.56127e-07 0)
(3 1.77982e-06 0)
(2.99999 3.65964e-06 0)
(2.99999 9.90467e-06 0)
(2.99997 2.03347e-05 0)
(2.99992 5.50737e-05 0)
(2.99982 0.00011281 0)
(2.99955 0.00030704 0)
(2.99902 0.000625664 0)
(2.99746 0.00172602 0)
(2.99468 0.00351377 0)
(2.98514 0.00986244 0)
(2.96845 0.0208749 0)
(2.91121 0.0589045 0)
(2.77094 0.145981 0)
(2.41406 0.401035 0)
(1.93511 0.810479 0)
(3 9.87451e-11 0)
(3 5.32269e-10 0)
(3 1.97661e-09 0)
(3 5.06665e-09 0)
(3 1.38279e-08 0)
(3 3.1601e-08 0)
(3 8.09607e-08 0)
(3 1.8037e-07 0)
(3 4.55103e-07 0)
(3 1.0078e-06 0)
(3 2.53217e-06 0)
(2.99999 5.59711e-06 0)
(2.99998 1.40434e-05 0)
(2.99995 3.09894e-05 0)
(2.99989 7.77816e-05 0)
(2.99973 0.000171131 0)
(2.99941 0.000432555 0)
(2.99851 0.000938659 0)
(2.99672 0.00246852 0)
(2.99165 0.00511066 0)
(2.9811 0.0147086 0)
(2.95125 0.0307559 0)
(2.87885 0.0909954 0)
(2.68436 0.229878 0)
(2.21383 0.602093 0)
(3 6.76512e-11 0)
(3 3.13928e-10 0)
(3 1.27616e-09 0)
(3 3.03403e-09 0)
(3 8.86091e-09 0)
(3 1.89572e-08 0)
(3 5.16812e-08 0)
(3 1.08094e-07 0)
(3 2.89732e-07 0)
(3 6.03027e-07 0)
(3 1.60861e-06 0)
(2.99999 3.34445e-06 0)
(2.99999 8.90744e-06 0)
(2.99997 1.85046e-05 0)
(2.99994 4.92959e-05 0)
(2.99985 0.000102216 0)
(2.99966 0.00027318 0)
(2.99916 0.000564399 0)
(2.99816 0.0015219 0)
(2.9953 0.00313823 0)
(2.98991 0.00861205 0)
(2.97292 0.0181287 0)
(2.93809 0.0513456 0)
(2.83551 0.119221 0)
(2.54095 0.352167 0)
(3 3.97094e-11 0)
(3 1.84439e-10 0)
(3 7.48241e-10 0)
(3 1.78229e-09 0)
(3 5.19015e-09 0)
(3 1.11187e-08 0)
(3 3.0199e-08 0)
(3 6.32116e-08 0)
(3 1.68706e-07 0)
(3 3.51282e-07 0)
(3 9.3277e-07 0)
(3 1.94005e-06 0)
(2.99999 5.14138e-06 0)
(2.99999 1.069e-05 0)
(2.99996 2.83064e-05 0)
(2.99992 5.88067e-05 0)
(2.9998 0.000155805 0)
(2.99955 0.00032294 0)
(2.99887 0.000860267 0)
(2.99754 0.00176813 0)
(2.99363 0.0048477 0)
(2.98607 0.00967295 0)
(2.9633 0.0283028 0)
(2.91157 0.0602416 0)
(2.76482 0.178363 0)
(3 1.42466e-11 0)
(3 1.32437e-10 0)
(3 3.75438e-10 0)
(3 1.20215e-09 0)
(3 2.66884e-09 0)
(3 7.38838e-09 0)
(3 1.5622e-08 0)
(3 4.17911e-08 0)
(3 8.73941e-08 0)
(3 2.31698e-07 0)
(3 4.83421e-07 0)
(3 1.27808e-06 0)
(3 2.66589e-06 0)
(2.99999 7.04029e-06 0)
(2.99998 1.46805e-05 0)
(2.99995 3.87668e-05 0)
(2.99988 8.07204e-05 0)
(2.99975 0.000213701 0)
(2.99937 0.00044327 0)
(2.99862 0.00118697 0)
(2.9965 0.00243501 0)
(2.99239 0.00674364 0)
(2.98006 0.0137495 0)
(2.95508 0.0396587 0)
(2.88068 0.0894383 0)
(3 9.5613e-12 0)
(3 7.3464e-11 0)
(3 2.26561e-10 0)
(3 6.7455e-10 0)
(3 1.59671e-09 0)
(3 4.15078e-09 0)
(3 9.30813e-09 0)
(3 2.34459e-08 0)
(3 5.19028e-08 0)
(3 1.29691e-07 0)
(3 2.86172e-07 0)
(3 7.13425e-07 0)
(3 1.57287e-06 0)
(3 3.91737e-06 0)
(2.99999 8.63288e-06 0)
(2.99997 2.14877e-05 0)
(2.99994 4.73102e-05 0)
(2.99985 0.000117775 0)
(2.99968 0.000258808 0)
(2.9992 0.000646454 0)
(2.99825 0.00141386 0)
(2.99551 0.00358892 0)
(2.99045 0.00778033 0)
(2.97437 0.020558 0)
(2.94174 0.0463055 0)
(3 7.4434e-12 0)
(3 3.47439e-11 0)
(3 1.40154e-10 0)
(3 3.35738e-10 0)
(3 9.71009e-10 0)
(3 2.08945e-09 0)
(3 5.62795e-09 0)
(3 1.18218e-08 0)
(3 3.12645e-08 0)
(3 6.52955e-08 0)
(3 1.71751e-07 0)
(3 3.58225e-07 0)
(3 9.40265e-07 0)
(3 1.96045e-06 0)
(2.99999 5.14013e-06 0)
(2.99999 1.07122e-05 0)
(2.99996 2.80793e-05 0)
(2.99992 5.84451e-05 0)
(2.99981 0.000153416 0)
(2.99958 0.000318605 0)
(2.99895 0.000842743 0)
(2.9977 0.00173153 0)
(2.99415 0.00473733 0)
(2.98701 0.00944149 0)
(2.96668 0.0273525 0)
(3 2.6651e-12 0)
(3 2.43526e-11 0)
(3 6.96302e-11 0)
(3 2.21072e-10 0)
(3 4.93853e-10 0)
(3 1.35441e-09 0)
(3 2.8783e-09 0)
(3 7.62193e-09 0)
(3 1.60106e-08 0)
(3 4.19934e-08 0)
(3 8.79799e-08 0)
(3 2.30019e-07 0)
(3 4.8168e-07 0)
(3 1.25757e-06 0)
(3 2.63312e-06 0)
(2.99999 6.87196e-06 0)
(2.99998 1.43832e-05 0)
(2.99996 3.75721e-05 0)
(2.9999 7.85698e-05 0)
(2.99977 0.000205858 0)
(2.99943 0.000429631 0)
(2.99875 0.00113511 0)
(2.99686 0.00235631 0)
(2.9932 0.0063463 0)
(2.98229 0.0133543 0)
(3 1.71919e-12 0)
(3 1.3098e-11 0)
(3 4.04535e-11 0)
(3 1.20298e-10 0)
(3 2.84675e-10 0)
(3 7.38126e-10 0)
(3 1.65376e-09 0)
(3 4.15104e-09 0)
(3 9.17742e-09 0)
(3 2.28406e-08 0)
(3 5.03226e-08 0)
(3 1.24922e-07 0)
(3 2.74955e-07 0)
(3 6.81882e-07 0)
(3 1.50025e-06 0)
(3 3.71892e-06 0)
(2.99999 8.17966e-06 0)
(2.99998 2.02752e-05 0)
(2.99995 4.45666e-05 0)
(2.99987 0.000110541 0)
(2.99972 0.000242641 0)
(2.9993 0.000603699 0)
(2.99849 0.00132039 0)
(2.99618 0.00332957 0)
(2.99165 0.00722705 0)
(3 1.20168e-12 0)
(3 6.33023e-12 0)
(3 2.35323e-11 0)
(3 6.02146e-11 0)
(3 1.63329e-10 0)
(3 3.72333e-10 0)
(3 9.44915e-10 0)
(3 2.09582e-09 0)
(3 5.22811e-09 0)
(3 1.15137e-08 0)
(3 2.85791e-08 0)
(3 6.28138e-08 0)
(3 1.55623e-07 0)
(3 3.41793e-07 0)
(3 8.45874e-07 0)
(3 1.85673e-06 0)
(2.99999 4.59161e-06 0)
(2.99999 1.00701e-05 0)
(2.99997 2.48987e-05 0)
(2.99994 5.453e-05 0)
(2.99984 0.000135002 0)
(2.99965 0.00029497 0)
(2.99914 0.000734681 0)
(2.99812 0.00159662 0)
(2.99525 0.00403816 0)
(3 4.2589e-13 0)
(3 4.01062e-12 0)
(3 1.1462e-11 0)
(3 3.61654e-11 0)
(3 8.10449e-11 0)
(3 2.20763e-10 0)
(3 4.7024e-10 0)
(3 1.2362e-09 0)
(3 2.60144e-09 0)
(3 6.77117e-09 0)
(3 1.42066e-08 0)
(3 3.68537e-08 0)
(3 7.72688e-08 0)
(3 2.0013e-07 0)
(3 4.19546e-07 0)
(3 1.08553e-06 0)
(3 2.27547e-06 0)
(2.99999 5.88344e-06 0)
(2.99999 1.23275e-05 0)
(2.99996 3.18727e-05 0)
(2.99992 6.67053e-05 0)
(2.9998 0.000172775 0)
(2.99957 0.0003607 0)
(2.99893 0.000941402 0)
(2.99767 0.00195294 0)
(3 3.64024e-13 0)
(3 1.77513e-12 0)
(3 7.10406e-12 0)
(3 1.72679e-11 0)
(3 4.93405e-11 0)
(3 1.07104e-10 0)
(3 2.84264e-10 0)
(3 6.01961e-10 0)
(3 1.56743e-09 0)
(3 3.29904e-09 0)
(3 8.5406e-09 0)
(3 1.79492e-08 0)
(3 4.63603e-08 0)
(3 9.74084e-08 0)
(3 2.51285e-07 0)
(3 5.28017e-07 0)
(3 1.36107e-06 0)
(3 2.86008e-06 0)
(2.99999 7.36995e-06 0)
(2.99998 1.54824e-05 0)
(2.99996 3.99162e-05 0)
(2.9999 8.37829e-05 0)
(2.99978 0.000216552 0)
(2.99945 0.000453597 0)
(2.99879 0.0011809 0)
(3 2.05586e-13 0)
(3 9.47725e-13 0)
(3 3.79697e-12 0)
(3 9.2433e-12 0)
(3 2.63156e-11 0)
(3 5.72834e-11 0)
(3 1.51731e-10 0)
(3 3.21833e-10 0)
(3 8.36001e-10 0)
(3 1.76177e-09 0)
(3 4.54874e-09 0)
(3 9.57159e-09 0)
(3 2.46549e-08 0)
(3 5.18728e-08 0)
(3 1.33436e-07 0)
(3 2.8082e-07 0)
(3 7.21606e-07 0)
(3 1.51926e-06 0)
(3 3.90014e-06 0)
(2.99999 8.21421e-06 0)
(2.99998 2.10702e-05 0)
(2.99995 4.43709e-05 0)
(2.99988 0.00011381 0)
(2.99974 0.000239388 0)
(2.99935 0.000615708 0)
(3 4.49945e-14 0)
(3 6.07826e-13 0)
(3 1.76192e-12 0)
(3 5.32718e-12 0)
(3 1.26147e-11 0)
(3 3.25965e-11 0)
(3 7.27917e-11 0)
(3 1.81752e-10 0)
(3 4.00384e-10 0)
(3 9.90534e-10 0)
(3 2.17408e-09 0)
(3 5.36292e-09 0)
(3 1.17574e-08 0)
(3 2.89641e-08 0)
(3 6.34678e-08 0)
(3 1.56209e-07 0)
(3 3.42178e-07 0)
(3 8.41513e-07 0)
(3 1.84261e-06 0)
(3 4.52837e-06 0)
(2.99999 9.90866e-06 0)
(2.99997 2.43424e-05 0)
(2.99994 5.31973e-05 0)
(2.99986 0.000130764 0)
(2.99967 0.00028524 0)
(3 2.8585e-14 0)
(3 2.87133e-13 0)
(3 9.05861e-13 0)
(3 2.82159e-12 0)
(3 6.37954e-12 0)
(3 1.73413e-11 0)
(3 3.70057e-11 0)
(3 9.6702e-11 0)
(3 2.03529e-10 0)
(3 5.25716e-10 0)
(3 1.10238e-09 0)
(3 2.83638e-09 0)
(3 5.94249e-09 0)
(3 1.52596e-08 0)
(3 3.19631e-08 0)
(3 8.19578e-08 0)
(3 1.71658e-07 0)
(3 4.39557e-07 0)
(3 9.20528e-07 0)
(3 2.35392e-06 0)
(2.99999 4.92784e-06 0)
(2.99999 1.25848e-05 0)
(2.99997 2.63196e-05 0)
(2.99993 6.71676e-05 0)
(2.99983 0.000140157 0)
(3 2.24429e-14 0)
(3 1.22988e-13 0)
(3 4.22053e-13 0)
(3 1.29635e-12 0)
(3 2.97625e-12 0)
(3 7.77036e-12 0)
(3 1.7351e-11 0)
(3 4.31439e-11 0)
(3 9.50377e-11 0)
(3 2.33773e-10 0)
(3 5.12428e-10 0)
(3 1.25622e-09 0)
(3 2.74992e-09 0)
(3 6.73013e-09 0)
(3 1.47222e-08 0)
(3 3.59837e-08 0)
(3 7.8673e-08 0)
(3 1.92046e-07 0)
(3 4.19661e-07 0)
(3 1.02309e-06 0)
(3 2.2342e-06 0)
(2.99999 5.43991e-06 0)
(2.99998 1.18671e-05 0)
(2.99996 2.88696e-05 0)
(2.99991 6.28678e-05 0)
(3 1.18661e-14 0)
(3 4.23416e-14 0)
(3 1.37927e-13 0)
(3 3.33221e-13 0)
(3 1.06137e-12 0)
(3 1.88113e-12 0)
(3 5.91087e-12 0)
(3 1.00479e-11 0)
(3 3.15648e-11 0)
(3 5.35652e-11 0)
(3 1.6852e-10 0)
(3 2.85983e-10 0)
(3 8.99391e-10 0)
(3 1.52388e-09 0)
(3 4.79128e-09 0)
(3 8.09547e-09 0)
(3 2.54668e-08 0)
(3 4.28611e-08 0)
(3 1.35055e-07 0)
(3 2.2612e-07 0)
(3 7.14609e-07 0)
(3 1.18819e-06 0)
(2.99999 3.77306e-06 0)
(2.99997 6.21358e-06 0)
(2.99993 1.98868e-05 0)
(1.28516 1.10913 0)
(1.72707 0.910085 0)
(1.93431 0.640458 0)
(1.96998 0.365529 0)
(1.91891 0.136516 0)
(1.81499 -0.0161971 0)
(1.70825 -0.0562361 0)
(1.65385 -0.0245948 0)
(1.64496 0.0188022 0)
(1.64876 0.0411919 0)
(1.6529 0.039562 0)
(1.65435 0.0277913 0)
(1.65355 0.0167883 0)
(1.65144 0.00844833 0)
(1.64871 0.00591504 0)
(1.64849 0.00720504 0)
(1.65069 0.00909869 0)
(1.65355 0.0105854 0)
(1.65698 0.011318 0)
(1.66135 0.0110944 0)
(1.66622 0.0095741 0)
(1.67111 0.00748363 0)
(1.67624 0.00589772 0)
(1.6818 0.00506814 0)
(1.68781 0.00465995 0)
(1.69419 0.004346 0)
(1.70085 0.00396571 0)
(1.70776 0.00350278 0)
(1.7149 0.00300799 0)
(1.72227 0.00253538 0)
(1.72987 0.00211618 0)
(1.73769 0.00175816 0)
(1.74572 0.00145415 0)
(1.75391 0.00119578 0)
(1.76219 0.000984452 0)
(1.77048 0.000816217 0)
(1.77809 0.000738433 0)
(1.78413 0.00093416 0)
(1.78878 0.00113382 0)
(1.79155 0.00143132 0)
(1.78975 0.00206812 0)
(1.77723 0.00355942 0)
(1.74015 0.00716427 0)
(1.6468 0.0151692 0)
(1.42203 0.0328826 0)
(0.914625 0.0744057 0)
(0.274716 0.159375 0)
(-0.0297852 0.0963009 0)
(0.0440447 -0.0992875 0)
(0.198583 -0.155564 0)
(0.339548 -0.138042 0)
(0.454875 -0.107512 0)
(0.55829 -0.0848513 0)
(0.652079 -0.0706521 0)
(0.734359 -0.0595277 0)
(0.804827 -0.0480661 0)
(0.873388 -0.040139 0)
(0.941662 -0.03823 0)
(1.00425 -0.0358789 0)
(1.06087 -0.0323326 0)
(1.11252 -0.0288706 0)
(1.16029 -0.0258299 0)
(1.20513 -0.0232145 0)
(1.24762 -0.0209615 0)
(1.28811 -0.0190335 0)
(1.32689 -0.0173685 0)
(1.36416 -0.015923 0)
(1.40009 -0.0146344 0)
(1.43481 -0.0134665 0)
(1.46842 -0.0123799 0)
(1.50102 -0.0113698 0)
(1.53267 -0.0104158 0)
(1.56349 -0.00952203 0)
(1.59352 -0.00866934 0)
(1.62284 -0.00786772 0)
(1.65145 -0.00710166 0)
(1.67942 -0.00638503 0)
(1.70676 -0.00569863 0)
(1.73355 -0.00505593 0)
(1.75976 -0.00442523 0)
(1.78546 -0.00387179 0)
(1.81067 -0.00338204 0)
(1.83545 -0.00295669 0)
(1.85981 -0.00258284 0)
(1.88378 -0.002275 0)
(1.90734 -0.00204046 0)
(1.93051 -0.00186842 0)
(1.95333 -0.00167421 0)
(1.97585 -0.00144357 0)
(1.99809 -0.00119359 0)
(2.02005 -0.000951525 0)
(2.0417 -0.000726496 0)
(2.06305 -0.000510472 0)
(2.08406 -0.000307026 0)
(2.10471 -9.13958e-05 0)
(2.12489 0.000140721 0)
(2.14437 0.000405293 0)
(2.16244 0.000821829 0)
(2.17783 0.00120224 0)
(2.18949 0.00232299 0)
(1.36548 1.01972 0)
(1.69372 0.740332 0)
(1.87891 0.425061 0)
(1.96922 0.150754 0)
(2.01833 -0.0462527 0)
(2.04578 -0.151773 0)
(2.05484 -0.162226 0)
(2.05383 -0.124566 0)
(2.04145 -0.0781176 0)
(2.02079 -0.0410429 0)
(2.00413 -0.0202984 0)
(1.99973 -0.0140874 0)
(2.00135 -0.0159574 0)
(2.00392 -0.0204408 0)
(2.00654 -0.0223244 0)
(2.00827 -0.0219325 0)
(2.00959 -0.0206513 0)