/*--------------------------------*- C++ -*----------------------------------*\
| =========                 |                                                 |
| \\      /  F ield         | OpenFOAM: The Open Source CFD Toolbox           |
|  \\    /   O peration     | Version:  2412                                  |
|   \\  /    A nd           | Website:  www.openfoam.com                      |
|    \\/     M anipulation  |                                                 |
\*---------------------------------------------------------------------------*/
FoamFile
{
    version     2.0;
    format      ascii;
    arch        "LSB;label=32;scalar=64";
    class       volScalarField;
    location    "10";
    object      p;
}
// * * * * * * * * * * * * * * * * * * * * * * * * * * * * * * * * * * * * * //

dimensions      [1 -1 -2 0 0 0 0];

internalField   nonuniform List<scalar> 
200
(
101419
101552
101830
102423
103721
106454
112286
124731
154051
217851
101376
101448
101597
101909
102574
103981
106918
112972
126081
154996
101351
101388
101463
101619
101947
102631
104055
106995
113104
125976
101338
101355
101391
101467
101624
101949
102622
104022
106929
113002
101331
101340
101358
101395
101472
101631
101960
102644
104070
107071
101328
101333
101342
101360
101399
101481
101648
101997
102724
104266
101327
101329
101334
101344
101365
101408
101498
101686
102078
102910
101326
101327
101330
101336
101348
101373
101425
101534
101760
102242
101326
101326
101328
101332
101339
101355
101389
101458
101604
101914
101325
101326
101327
101330
101336
101348
101373
101425
101535
101769
402457
554220
650954
686255
678743
654308
631805
616734
609110
606546
242970
351035
465430
556919
607516
622058
619741
614149
610702
610662
165548
229120
327040
445909
551852
617203
639286
640015
635059
631129
131292
162693
220936
313994
429527
534060
599541
625605
631383
629969
116019
131464
162056
219508
312712
427870
531944
595152
623061
630096
108871
116877
132886
164970
225310
321534
436901
536903
597287
620934
105407
109807
118657
136643
172739
240237
342864
459659
551882
599189
103692
106281
111549
122276
144288
188501
268327
381757
495959
569682
102846
104527
107990
115090
129742
160048
219960
320286
444363
542509
102470
103749
106416
111951
123431
147590
197281
289072
417340
536041
)
;

boundaryField
{
    inlet
    {
        type            fixedValue;
        value           uniform 101325;
    }
    sym
    {
        type            slip;
    }
    wedge
    {
        type            slip;
    }
    top
    {
        type            slip;
    }
    back
    {
        type            empty;
    }
    front
    {
        type            empty;
    }
    outlet
    {
        type            zeroGradient;
    }
}


// ************************************************************************* //
