/*--------------------------------*- C++ -*----------------------------------*\
| =========                 |                                                 |
| \\      /  F ield         | OpenFOAM: The Open Source CFD Toolbox           |
|  \\    /   O peration     | Version:  2412                                  |
|   \\  /    A nd           | Website:  www.openfoam.com                      |
|    \\/     M anipulation  |                                                 |
\*---------------------------------------------------------------------------*/
FoamFile
{
    version     2.0;
    format      ascii;
    arch        "LSB;label=32;scalar=64";
    class       volScalarField;
    location    "3";
    object      p;
}
// * * * * * * * * * * * * * * * * * * * * * * * * * * * * * * * * * * * * * //

dimensions      [1 -1 -2 0 0 0 0];

internalField   nonuniform List<scalar> 
50
(
144122
156275
174904
208102
254674
133893
142296
155142
176369
209056
125714
131333
139674
152993
173776
118462
121904
126813
134336
145981
114463
116874
120226
125246
132950
384722
389595
386148
379371
376126
282635
325529
342920
351662
356476
222217
275967
333413
362297
376956
172789
210997
277964
351912
388126
151023
180187
243171
357656
451773
)
;

boundaryField
{
    inlet
    {
        type            fixedValue;
        value           uniform 101325;
    }
    sym
    {
        type            slip;
    }
    wedge
    {
        type            slip;
    }
    top
    {
        type            slip;
    }
    back
    {
        type            empty;
    }
    front
    {
        type            empty;
    }
    outlet
    {
        type            zeroGradient;
    }
}


// ************************************************************************* //
