/*--------------------------------*- C++ -*----------------------------------*\
| =========                 |                                                 |
| \\      /  F ield         | OpenFOAM: The Open Source CFD Toolbox           |
|  \\    /   O peration     | Version:  2412                                  |
|   \\  /    A nd           | Website:  www.openfoam.com                      |
|    \\/     M anipulation  |                                                 |
\*---------------------------------------------------------------------------*/
FoamFile
{
    version     2.0;
    format      ascii;
    arch        "LSB;label=32;scalar=64";
    class       surfaceScalarField;
    location    "3";
    object      phi;
}
// * * * * * * * * * * * * * * * * * * * * * * * * * * * * * * * * * * * * * //

dimensions      [1 0 -1 0 0 0 0];

oriented        oriented;

internalField   nonuniform List<scalar> 
85
(
1.92141e+08
658435
1.87995e+08
1.62814e+06
1.81633e+08
3.18423e+06
1.71715e+08
6.31153e+06
1.14896e+07
1.5539e+08
1.93035e+08
674131
1.90352e+08
1.65872e+06
1.87022e+08
3.19779e+06
1.8308e+08
5.96393e+06
1.08567e+07
1.78515e+08
1.93663e+08
510155
1.91692e+08
1.2014e+06
1.89601e+08
2.22438e+06
1.87613e+08
3.91967e+06
6.89841e+06
1.865e+08
1.94234e+08
265765
1.92709e+08
606435
1.91193e+08
1.07823e+06
1.89842e+08
1.79639e+06
2.97798e+06
1.89188e+08
1.9456e+08
1.93255e+08
1.91957e+08
1.90686e+08
1.89583e+08
1.80489e+08
-3.19229e+07
1.86989e+08
-9.29344e+06
1.73662e+08
1.25428e+07
1.46773e+08
2.65293e+07
3.46214e+07
1.63781e+08
-2.98397e+07
1.54972e+08
-8.13565e+06
1.3672e+08
2.64187e+07
1.17357e+08
4.08552e+07
4.77452e+07
1.66599e+08
-2.40886e+07
1.54474e+08
-9.95963e+06
1.50796e+08
2.38243e+07
1.36001e+08
5.00278e+07
5.40636e+07
1.65308e+08
-1.34001e+07
1.45019e+08
-6.48674e+06
1.36042e+08
1.05839e+07
1.35437e+08
3.37725e+07
4.47953e+07
1.64228e+08
1.41384e+08
1.28842e+08
1.39515e+08
)
;

boundaryField
{
    inlet
    {
        type            calculated;
        value           nonuniform List<scalar> 5(-1.94799e+08 -1.95138e+08 -1.95429e+08 -1.95704e+08 -1.95863e+08);
    }
    sym
    {
        type            calculated;
        value           uniform 0;
    }
    wedge
    {
        type            calculated;
        value           nonuniform List<scalar> 5(2.0095e-08 2.04601e-08 0 -2.07115e-08 -2.1078e-08);
    }
    top
    {
        type            calculated;
        value           uniform 0;
    }
    back
    {
        type            empty;
    }
    front
    {
        type            empty;
    }
    outlet
    {
        type            calculated;
        value           nonuniform List<scalar> 5(1.11561e+08 1.00176e+08 1.22377e+08 1.34753e+08 1.66978e+08);
    }
}


// ************************************************************************* //
