/*--------------------------------*- C++ -*----------------------------------*\
| =========                 |                                                 |
| \\      /  F ield         | OpenFOAM: The Open Source CFD Toolbox           |
|  \\    /   O peration     | Version:  2412                                  |
|   \\  /    A nd           | Website:  www.openfoam.com                      |
|    \\/     M anipulation  |                                                 |
\*---------------------------------------------------------------------------*/
FoamFile
{
    version     2.0;
    format      ascii;
    arch        "LSB;label=32;scalar=64";
    class       volScalarField;
    location    "3";
    object      T;
}
// * * * * * * * * * * * * * * * * * * * * * * * * * * * * * * * * * * * * * //

dimensions      [0 0 0 1 0 0 0];

internalField   nonuniform List<scalar> 
50
(
341.417
352.639
374.089
399.635
455.561
331.344
339.52
353.13
373.522
406.99
323.324
328.778
337.482
350.916
372.781
316.243
319.527
324.551
332.317
344.439
312.37
314.619
317.972
323.066
330.933
495.808
493.127
484.432
474.357
462.123
457.329
472.865
478.621
483.762
481.551
412.911
446.632
463.664
468.925
472.471
370.777
402.738
448.464
471.122
477.338
349.084
376.661
431.105
484.771
484.693
)
;

boundaryField
{
    inlet
    {
        type            fixedValue;
        value           uniform 300;
    }
    sym
    {
        type            slip;
    }
    wedge
    {
        type            slip;
    }
    top
    {
        type            slip;
    }
    back
    {
        type            empty;
    }
    front
    {
        type            empty;
    }
    outlet
    {
        type            inletOutlet;
        inletValue      uniform 300;
        value           nonuniform List<scalar> 5(461.831 481.381 472.203 476.945 484.182);
    }
}


// ************************************************************************* //
