/*--------------------------------*- C++ -*----------------------------------*\
| =========                 |                                                 |
| \\      /  F ield         | OpenFOAM: The Open Source CFD Toolbox           |
|  \\    /   O peration     | Version:  2412                                  |
|   \\  /    A nd           | Website:  www.openfoam.com                      |
|    \\/     M anipulation  |                                                 |
\*---------------------------------------------------------------------------*/
FoamFile
{
    version     2.0;
    format      ascii;
    arch        "LSB;label=32;scalar=64";
    class       volVectorField;
    location    "3";
    object      U;
}
// * * * * * * * * * * * * * * * * * * * * * * * * * * * * * * * * * * * * * //

dimensions      [0 1 -1 0 0 0 0];

internalField   nonuniform List<vector> 
50
(
(604.565 2.60898 0)
(589.748 6.18593 0)
(562.553 11.3138 0)
(518.215 19.9025 0)
(432.149 33.2251 0)
(619.988 4.61385 0)
(610.822 10.7635 0)
(594.748 19.3382 0)
(567.148 32.7693 0)
(519.82 52.5761 0)
(631.788 3.7867 0)
(626.443 8.63155 0)
(617.255 15.21 0)
(601.497 24.9437 0)
(574.519 39.8647 0)
(641.966 2.74409 0)
(639.347 6.13371 0)
(634.837 10.5436 0)
(627.089 16.7174 0)
(614.039 25.8362 0)
(647.461 0.974159 0)
(646.044 2.15229 0)
(643.506 3.64545 0)
(639.08 5.66701 0)
(631.569 8.57399 0)
(311.004 109.215 0)
(320.586 156.036 3.04711e-17)
(336.968 186.071 0)
(355.161 209.838 3.90293e-17)
(370.254 232.996 -4.8936e-17)
(430.369 134.383 2.20817e-17)
(389.687 208.268 2.69913e-17)
(368.34 257.938 3.38401e-17)
(362.049 283.523 -1.00279e-18)
(365.688 296.517 -5.23352e-17)
(521.788 83.4935 -2.52851e-17)
(472.292 136.505 -3.00225e-17)
(430.643 190.065 -3.36776e-17)
(417.63 223.732 -3.93679e-17)
(414.547 248.698 4.84376e-17)
(586.683 51.9211 0)
(550.722 93.2649 0)
(492.322 154.92 0)
(451.499 195.712 0)
(447.584 208.981 0)
(616.176 16.8225 0)
(591.473 29.7725 0)
(537.146 50.6389 0)
(481.065 84.6022 0)
(483.234 111.968 0)
)
;

boundaryField
{
    inlet
    {
        type            fixedValue;
        value           uniform (664 0 0);
    }
    sym
    {
        type            slip;
    }
    wedge
    {
        type            slip;
    }
    top
    {
        type            slip;
    }
    back
    {
        type            empty;
    }
    front
    {
        type            empty;
    }
    outlet
    {
        type            inletOutlet;
        inletValue      uniform (664 0 0);
        value           nonuniform List<vector> 5((370.254 232.996 -4.8936e-17) (365.688 296.517 -5.23352e-17) (414.547 248.698 4.84376e-17) (447.584 208.981 0) (483.234 111.968 0));
    }
}


// ************************************************************************* //
