/*--------------------------------*- C++ -*----------------------------------*\
| =========                 |                                                 |
| \\      /  F ield         | OpenFOAM: The Open Source CFD Toolbox           |
|  \\    /   O peration     | Version:  2412                                  |
|   \\  /    A nd           | Website:  www.openfoam.com                      |
|    \\/     M anipulation  |                                                 |
\*---------------------------------------------------------------------------*/
FoamFile
{
    version     2.0;
    format      ascii;
    arch        "LSB;label=32;scalar=64";
    class       volVectorField;
    location    "120";
    object      U;
}
// * * * * * * * * * * * * * * * * * * * * * * * * * * * * * * * * * * * * * //

dimensions      [0 1 -1 0 0 0 0];

internalField   nonuniform List<vector> 
200
(
(1041.22 0.00274979 0)
(1041.17 0.00930844 0)
(1041.06 0.0244608 0)
(1040.82 0.0570288 0)
(1040.31 0.130802 0)
(1039.2 0.287401 0)
(1036.91 0.636649 0)
(1031.67 1.36352 0)
(1020.32 3.09965 0)
(994.427 6.85337 0)
(1041.25 0.00390105 0)
(1041.22 0.0132378 0)
(1041.18 0.0346004 0)
(1041.08 0.0803648 0)
(1040.89 0.182251 0)
(1040.47 0.398928 0)
(1039.62 0.875492 0)
(1037.87 1.86614 0)
(1034.11 4.14885 0)
(1026.14 9.06784 0)
(1041.26 0.00167405 0)
(1041.25 0.00570727 0)
(1041.23 0.0147062 0)
(1041.19 0.0337902 0)
(1041.11 0.0741985 0)
(1040.95 0.159777 0)
(1040.61 0.339794 0)
(1039.93 0.712917 0)
(1038.53 1.48838 0)
(1035.77 3.14243 0)
(1041.26 0.000724688 0)
(1041.26 0.00246367 0)
(1041.25 0.00632143 0)
(1041.23 0.0144539 0)
(1041.2 0.031406 0)
(1041.14 0.0664699 0)
(1041.02 0.138484 0)
(1040.76 0.286446 0)
(1040.23 0.589867 0)
(1039.18 1.20971 0)
(1041.26 0.000281321 0)
(1041.26 0.000955488 0)
(1041.26 0.00244513 0)
(1041.25 0.00557285 0)
(1041.24 0.0120663 0)
(1041.22 0.0254447 0)
(1041.17 0.0527037 0)
(1041.07 0.108319 0)
(1040.86 0.222094 0)
(1040.45 0.456068 0)
(1041.26 0.000110308 0)
(1041.26 0.000374609 0)
(1041.26 0.000958078 0)
(1041.26 0.00218089 0)
(1041.25 0.00471342 0)
(1041.24 0.00992326 0)
(1041.23 0.0205242 0)
(1041.19 0.0421029 0)
(1041.1 0.0860723 0)
(1040.94 0.176409 0)
(1041.26 4.31055e-05 0)
(1041.26 0.000146389 0)
(1041.26 0.000374417 0)
(1041.26 0.000852397 0)
(1041.26 0.00184235 0)
(1041.26 0.0038793 0)
(1041.25 0.00802694 0)
(1041.23 0.0164822 0)
(1041.2 0.0337312 0)
(1041.13 0.0691981 0)
(1041.26 1.69379e-05 0)
(1041.26 5.75263e-05 0)
(1041.26 0.000147163 0)
(1041.26 0.000335149 0)
(1041.26 0.000724751 0)
(1041.26 0.00152695 0)
(1041.26 0.00316168 0)
(1041.25 0.00649747 0)
(1041.24 0.0133121 0)
(1041.21 0.0273419 0)
(1041.26 6.43398e-06 0)
(1041.26 2.18557e-05 0)
(1041.26 5.59299e-05 0)
(1041.26 0.000127452 0)
(1041.26 0.00027584 0)
(1041.26 0.000581782 0)
(1041.26 0.00120608 0)
(1041.26 0.00248205 0)
(1041.25 0.00509297 0)
(1041.24 0.0104785 0)
(1041.26 1.67703e-06 0)
(1041.26 5.6981e-06 0)
(1041.26 1.45881e-05 0)
(1041.26 3.32707e-05 0)
(1041.26 7.20841e-05 0)
(1041.26 0.000152244 0)
(1041.26 0.000316067 0)
(1041.26 0.000651619 0)
(1041.26 0.00133972 0)
(1041.25 0.00276279 0)
(939.073 30.4084 -2.02374e-17)
(900.628 61.1877 0)
(865.857 96.4518 0)
(836.494 132.91 0)
(813.663 166.972 3.12099e-16)
(798.815 194.839 0)
(792.035 216.789 0)
(790.612 232.966 0)
(791.542 244.714 0)
(791.05 253.984 -1.90802e-16)
(1002.12 33.418 -9.61243e-17)
(974.104 70.5487 8.10836e-17)
(940.037 118.119 0)
(901.629 172.343 0)
(861.896 228.613 -6.57376e-17)
(824.586 281.929 0)
(793.661 324.171 0)
(775.773 347.06 0)
(768.8 355.342 0)
(767.119 355.838 0)
(1027.56 10.5606 0)
(1016.3 23.3488 -8.27748e-17)
(999.602 42.5201 0)
(976.618 68.6023 0)
(947.12 101.194 -2.38994e-16)
(912.504 138.434 1.18322e-16)
(876.396 177.108 0)
(841.212 218.56 1.55475e-16)
(816.563 253.456 0)
(803.177 280.425 1.63523e-16)
(1036.09 3.8641 0)
(1031.67 8.77899 0)
(1024.5 17.2525 0)
(1013.38 30.9411 0)
(996.802 51.8508 1.07364e-16)
(973.527 81.8835 -1.29834e-16)
(943.348 121.959 0)
(909.263 170.563 -3.20703e-16)
(874.614 225.338 0)
(849.681 275.962 -1.93639e-16)
(1039.24 1.48637 3.12666e-17)
(1037.46 3.4322 3.23998e-17)
(1034.48 6.8989 0)
(1029.67 12.8001 3.56392e-17)
(1022.1 22.4826 3.81028e-17)
(1010.6 37.8069 0)
(994.028 60.9085 0)
(972.675 93.5556 1.42107e-16)
(950.275 135.273 0)
(930.282 187.506 0)
(1040.46 0.585953 -3.2063e-17)
(1039.74 1.37667 -3.32558e-17)
(1038.51 2.82636 0)
(1036.47 5.375 -3.67179e-17)
(1033.2 9.71312 -3.93937e-17)
(1028.16 16.8973 0)
(1020.67 28.4662 0)
(1010.64 46.3126 0)
(999.256 71.6509 0)
(991.467 102.678 0)
(1040.94 0.234141 3.25953e-17)
(1040.65 0.558021 0)
(1040.14 1.16455 0)
(1039.29 2.25633 0)
(1037.9 4.15351 3.71137e-17)
(1035.77 7.35339 0)
(1032.6 12.5694 0)
(1028.36 20.7993 0)
(1023.51 32.7319 0)
(1020.23 48.1181 4.77314e-17)
(1041.13 0.094181 -1.67561e-17)
(1041.01 0.227021 1.72025e-17)
(1040.8 0.479376 0)
(1040.44 0.940654 1.82872e-17)
(1039.86 1.75478 -1.9356e-17)
(1038.96 3.14477 1.96127e-17)
(1037.62 5.42665 2.04069e-17)
(1035.85 9.03252 0)
(1033.85 14.294 2.2286e-17)
(1032.54 21.2011 -2.71302e-17)
(1041.21 0.0366939 -2.57745e-17)
(1041.16 0.089271 -2.65349e-17)
(1041.06 0.19008 0)
(1040.91 0.376053 -2.8241e-17)
(1040.66 0.707153 -9.7995e-18)
(1040.26 1.27699 -3.03085e-17)
(1039.67 2.21746 -2.11117e-17)
(1038.9 3.70595 0)
(1038.03 5.87844 -2.31785e-17)
(1037.49 8.74782 -3.60446e-17)
(1041.23 0.00990792 8.83486e-18)
(1041.21 0.0243575 9.10057e-18)
(1041.16 0.0522578 0)
(1041.08 0.104044 9.69083e-18)
(1040.95 0.196741 -1.00228e-17)
(1040.74 0.357046 1.03864e-17)
(1040.42 0.622726 0)
(1040.01 1.04442 0)
(1039.55 1.66162 0)
(1039.29 2.48159 1.22132e-17)
)
;

boundaryField
{
    inlet
    {
        type            fixedValue;
        value           uniform (1041.26 0 0);
    }
    sym
    {
        type            slip;
    }
    wedge
    {
        type            slip;
    }
    top
    {
        type            slip;
    }
    back
    {
        type            empty;
    }
    front
    {
        type            empty;
    }
    outlet
    {
        type            inletOutlet;
        inletValue      uniform (1041.26 0 0);
        value           nonuniform List<vector> 10((791.05 253.984 -1.90802e-16) (767.119 355.838 0) (803.177 280.425 1.63523e-16) (849.681 275.962 -1.93639e-16) (930.282 187.506 0) (991.467 102.678 0) (1020.23 48.1181 4.77314e-17) (1032.54 21.2011 -2.71302e-17) (1037.49 8.74782 -3.60446e-17) (1039.29 2.48159 1.22132e-17));
    }
}


// ************************************************************************* //
