/*--------------------------------*- C++ -*----------------------------------*\
| =========                 |                                                 |
| \\      /  F ield         | OpenFOAM: The Open Source CFD Toolbox           |
|  \\    /   O peration     | Version:  2412                                  |
|   \\  /    A nd           | Website:  www.openfoam.com                      |
|    \\/     M anipulation  |                                                 |
\*---------------------------------------------------------------------------*/
FoamFile
{
    version     2.0;
    format      ascii;
    arch        "LSB;label=32;scalar=64";
    class       surfaceScalarField;
    location    "5.5";
    object      phi;
}
// * * * * * * * * * * * * * * * * * * * * * * * * * * * * * * * * * * * * * //

dimensions      [1 0 -1 0 0 0 0];

oriented        oriented;

internalField   nonuniform List<scalar> 
10325
(
0.00840003
7.88668e-11
0.00840003
6.13821e-10
0.00840003
1.87204e-09
0.00840002
5.69777e-09
0.00840001
1.34198e-08
0.00839996
3.67346e-08
0.00839988
8.05864e-08
0.0083996
2.29125e-07
0.0083991
4.80437e-07
0.00839723
1.52111e-06
0.00839379
3.29562e-06
0.00838004
1.20032e-05
0.00834556
3.26057e-05
0.00819822
0.000138778
0.00751318
0.000657665
0.00679431
0.000726288
0.00613962
0.000658067
0.00547717
0.000663501
0.00479489
0.000683018
0.00407876
0.00071695
0.00332318
0.000755987
0.0025321
0.000791567
0.00170981
0.000822153
0.000861699
0.000848612
0.00086272
0.00840003
1.45267e-10
0.00840003
1.12656e-09
0.00840003
3.46458e-09
0.00840002
1.04872e-08
0.00840001
2.45394e-08
0.00839997
6.84965e-08
0.00839991
1.40495e-07
0.00839963
4.56435e-07
0.00839927
8.1989e-07
0.00839723
3.22576e-06
0.00839401
6.34364e-06
0.00837969
2.46224e-05
0.00834403
6.63667e-05
0.00819735
0.000277037
0.00753288
0.00129448
0.00679734
0.00146943
0.00615427
0.0013046
0.00550302
0.00131582
0.00482638
0.00136041
0.00410364
0.00144052
0.00334101
0.00151903
0.00254302
0.00159007
0.0017114
0.00165367
0.000855178
0.00170538
0.00171892
0.00840003
2.12976e-10
0.00840003
1.65146e-09
0.00840003
5.06413e-09
0.00840002
1.53492e-08
0.00840001
3.59051e-08
0.00839997
1.00256e-07
0.0083999
2.06088e-07
0.00839964
6.68344e-07
0.00839926
1.19306e-06
0.0083974
4.74385e-06
0.00839437
9.27069e-06
0.00838123
3.6052e-05
0.00834847
9.71622e-05
0.00821796
0.000399351
0.00764134
0.00184289
0.00689413
0.00222459
0.00624739
0.00195502
0.00560109
0.00196326
0.00492833
0.00203396
0.00420259
0.0021671
0.00343042
0.00229161
0.00261782
0.00240311
0.0017665
0.00250487
0.000885199
0.00258717
0.00260506
0.00840003
2.71661e-10
0.00840003
2.10664e-09
0.00840003
6.4505e-09
0.00840002
1.95647e-08
0.00840001
4.58409e-08
0.00839998
1.27557e-07
0.00839991
2.64975e-07
0.00839969
8.44496e-07
0.00839936
1.51687e-06
0.00839782
5.94431e-06
0.00839539
1.15953e-05
0.00838505
4.46891e-05
0.00835994
0.000120284
0.00826453
0.00048691
0.00786516
0.00221345
0.00711545
0.00298258
0.00644796
0.00262649
0.00579292
0.00261949
0.00512005
0.00270756
0.00438772
0.0029002
0.00360238
0.00307739
0.00276771
0.00323838
0.001878
0.00339431
0.000946012
0.00351991
0.00355208
0.00840003
3.09248e-10
0.00840003
2.39861e-09
0.00840003
7.33309e-09
0.00840002
2.22521e-08
0.00840002
5.22015e-08
0.00839999
1.44528e-07
0.00839995
3.03581e-07
0.0083998
9.4587e-07
0.0083996
1.70983e-06
0.00839866
6.56579e-06
0.00839743
1.27121e-05
0.00839171
4.87643e-05
0.00838015
0.000129869
0.00834157
0.000518561
0.00825059
0.00227602
0.00750725
0.00373388
0.00677895
0.00335925
0.00610172
0.00329805
0.00541865
0.00339138
0.00467424
0.00364498
0.00386391
0.00388807
0.00299352
0.00410937
0.00205922
0.0043284
0.00105051
0.00452893
0.00460353
0.00840003
3.13671e-10
0.00840003
2.42691e-09
0.00840003
7.45603e-09
0.00840003
2.24858e-08
0.00840003
5.30937e-08
0.00840002
1.42746e-07
0.00840001
3.14634e-07
0.00840002
8.88728e-07
0.00839998
1.74066e-06
0.00840015
6.11688e-06
0.00840107
1.16888e-05
0.00840383
4.45105e-05
0.0084115
0.000120353
0.00846293
0.00046164
0.00892722
0.00178443
0.00818179
0.00448442
0.00728495
0.00426025
0.00656372
0.00402162
0.00585674
0.00410022
0.00509275
0.00441042
0.00424952
0.00473162
0.00332631
0.00503303
0.00231102
0.00534347
0.00120247
0.00563759
0.00580679
0.00840003
3.04266e-10
0.00840003
2.35596e-09
0.00840003
7.28616e-09
0.00840003
2.18657e-08
0.00840003
5.16927e-08
0.00840003
1.36942e-07
0.00840004
3.04017e-07
0.00840008
8.22072e-07
0.00840012
1.68176e-06
0.00840064
5.39552e-06
0.00840196
1.02989e-05
0.00840829
3.71213e-05
0.00842275
0.000104586
0.00855112
0.000331802
0.00891905
0.00140091
0.00849959
0.00489758
0.0076324
0.00512611
0.00697318
0.00468121
0.00628303
0.00479009
0.0055343
0.00515975
0.00468462
0.00558133
0.00373541
0.00598228
0.00266721
0.0064114
0.00143275
0.00687191
0.00724009
0.00840003
3.29497e-10
0.00840003
2.54865e-09
0.00840003
7.89897e-09
0.00840003
2.36298e-08
0.00840002
5.585e-08
0.00840001
1.46828e-07
0.00839998
3.27272e-07
0.00839992
8.59936e-07
0.00839979
1.80458e-06
0.00839965
5.39147e-06
0.00839951
1.03916e-05
0.0083995
3.63921e-05
0.00841095
9.19234e-05
0.00842382
0.000316693
0.00862932
0.00118264
0.0083697
0.00514301
0.00795751
0.00553494
0.00731087
0.00532998
0.00660361
0.00549827
0.00593301
0.00583022
0.0051399
0.00637384
0.00420403
0.00691789
0.00309925
0.00751551
0.00176808
0.00820276
0.00900851
0.00840003
3.44607e-10
0.00840003
3.2394e-09
0.00840003
9.77743e-09
0.00840002
2.9763e-08
0.00840001
6.98882e-08
0.00839996
1.87384e-07
0.00839988
4.10061e-07
0.00839962
1.09552e-06
0.00839916
2.26041e-06
0.00839814
6.28998e-06
0.00839647
1.20207e-05
0.00839269
3.9505e-05
0.00839814
8.58361e-05
0.00838036
0.000332097
0.00850044
0.0010546
0.00834722
0.0052799
0.00800954
0.00587132
0.00748818
0.0058532
0.00691337
0.00607421
0.00628527
0.00645875
0.00558608
0.00707265
0.00474134
0.00776197
0.00372771
0.00852814
0.00231938
0.00961031
0.011328
0.00840003
1.5511e-10
0.00840003
4.7906e-09
0.00840003
7.33566e-09
0.00840002
4.14513e-08
0.00840004
5.26847e-08
0.00839995
2.66864e-07
0.00840008
2.81545e-07
0.0083995
1.65814e-06
0.00840048
1.26821e-06
0.00839657
1.00963e-05
0.00840328
5.28099e-06
0.0083758
6.6344e-05
0.00842193
3.93378e-05
0.00829137
0.000460227
0.00847791
0.000862291
0.0084187
0.00532277
0.00805209
0.00623764
0.00764121
0.00626495
0.00720619
0.00650985
0.00667761
0.00698771
0.0060994
0.00765103
0.00544745
0.00841356
0.00453736
0.00943772
0.00319284
0.0109541
0.0145206
0.00840003
5.39711e-10
0.00840003
8.2255e-10
0.00840003
8.01462e-09
0.00840006
9.01592e-09
0.00840006
5.72103e-08
0.00840027
5.37829e-08
0.00840016
3.8431e-07
0.00840156
2.72006e-07
0.00840003
2.7456e-06
0.0084086
1.46767e-06
0.00839406
1.94744e-05
0.0084489
1.06176e-05
0.00834026
0.000146337
0.00862853
0.000170923
0.0083176
0.00116781
0.00850074
0.0051224
0.00816835
0.00657055
0.00779465
0.00663951
0.00746032
0.00684444
0.00709534
0.00735274
0.0067149
0.00803124
0.00626183
0.00886617
0.00583541
0.00986346
0.00580122
0.0109873
0.0116966
0.00862474
0.00840003
2.91863e-10
0.00840003
1.56113e-09
0.00840003
5.37773e-09
0.00840003
1.48639e-08
0.00840004
3.78583e-08
0.0084
9.2294e-08
0.00840016
2.3153e-07
0.00839986
5.51313e-07
0.00840123
1.39678e-06
0.00839875
3.93671e-06
0.00840935
9.00301e-06
0.00839018
3.01988e-05
0.00846221
7.42082e-05
0.00831967
0.000311242
0.00862501
0.000858435
0.00894893
0.00478091
0.00850962
0.00701043
0.00806093
0.00708845
0.00774173
0.00716369
0.00747303
0.00762097
0.00721522
0.00828919
0.0069935
0.00908787
0.00691394
0.00994266
0.00730783
0.0105926
0.0106944
0.00830811
0.00840003
2.72385e-10
0.00840003
2.11854e-09
0.00840003
6.47342e-09
0.00840002
1.96442e-08
0.00840001
4.64641e-08
0.00839998
1.25009e-07
0.00839993
2.81428e-07
0.00839972
7.47858e-07
0.00839946
1.65187e-06
0.00839875
4.57126e-06
0.00839793
9.80431e-06
0.00839588
3.17776e-05
0.00840326
6.66061e-05
0.0084371
0.000275494
0.00854222
0.00074991
0.00960278
0.00370368
0.00905547
0.00755827
0.00846687
0.00767726
0.00811593
0.00751485
0.00788855
0.00784818
0.00773183
0.00844499
0.00768225
0.00913713
0.00783746
0.00978693
0.00831232
0.0101167
0.0100575
0.00894828
0.00840003
2.77959e-10
0.00840003
2.16174e-09
0.00840003
6.61465e-09
0.00840003
2.00308e-08
0.00840003
4.74177e-08
0.00840002
1.27068e-07
0.00840002
2.86547e-07
0.0084
7.52265e-07
0.00839996
1.68364e-06
0.00840009
4.38836e-06
0.00839962
1.0225e-05
0.00840552
2.55222e-05
0.00840347
6.83498e-05
0.00848237
0.000194869
0.00866203
0.000570071
0.00997933
0.00237419
0.0096284
0.00790194
0.00918846
0.00811389
0.0086299
0.00807416
0.00834266
0.00813581
0.00824605
0.00854132
0.00831394
0.00906824
0.0085306
0.00956965
0.00892541
0.00972055
0.00955243
0.00942778
0.00840003
2.52076e-10
0.00840003
1.95805e-09
0.00840003
5.99239e-09
0.00840003
1.81145e-08
0.00840004
4.29614e-08
0.00840005
1.14506e-07
0.00840007
2.59075e-07
0.00840015
6.66724e-07
0.00840029
1.54066e-06
0.00840091
3.70955e-06
0.00840188
9.19713e-06
0.00840561
2.15468e-05
0.00841846
5.50138e-05
0.00845615
0.000155934
0.00853477
0.000489479
0.00908589
0.00181721
0.00971146
0.00725927
0.0094409
0.0083805
0.0090274
0.00848597
0.00878457
0.00837894
0.00870807
0.00861744
0.00880776
0.00896775
0.00905402
0.00932198
0.00938326
0.00939045
0.00915423
0.00977808
0.00840003
1.95012e-10
0.00840003
1.50894e-09
0.00840003
4.68855e-09
0.00840004
1.40305e-08
0.00840005
3.32899e-08
0.00840007
8.745e-08
0.00840013
1.96078e-07
0.00840028
5.10854e-07
0.00840074
1.08493e-06
0.00840128
3.12938e-06
0.00840451
5.96571e-06
0.00840536
2.04224e-05
0.00842071
3.96308e-05
0.00843083
0.000144588
0.00854038
0.000378596
0.00879572
0.00155739
0.00966874
0.00636975
0.0095684
0.00847882
0.00937934
0.00867378
0.00916905
0.00858907
0.00910209
0.00868436
0.00917665
0.00889239
0.00941164
0.00908514
0.00971077
0.00909059
0.00883741
0.0100242
0.00840003
1.72281e-10
0.00840003
1.33428e-09
0.00840003
4.1048e-09
0.00840003
1.23465e-08
0.00840004
2.92117e-08
0.00840005
7.73602e-08
0.00840007
1.73407e-07
0.00840012
4.51481e-07
0.00840022
9.87553e-07
0.00840062
2.6939e-06
0.00840108
5.49044e-06
0.00840363
1.76459e-05
0.0084087
3.44916e-05
0.00842545
0.000126702
0.00847527
0.000327622
0.00872241
0.00130527
0.0101953
0.00488033
0.0100012
0.00867012
0.00977958
0.00889369
0.00955186
0.00881739
0.00951052
0.00872481
0.00956598
0.00883727
0.0097201
0.00892942
0.00994736
0.00886246
0.00858466
0.0101971
0.00840003
1.41009e-10
0.00840003
1.14257e-09
0.00840003
3.54377e-09
0.00840003
1.05511e-08
0.00840004
2.52574e-08
0.00840005
6.60251e-08
0.00840007
1.50292e-07
0.00840013
3.83377e-07
0.00840026
8.60275e-07
0.00840071
2.2168e-06
0.00840132
4.86024e-06
0.00840539
1.3416e-05
0.00841155
2.82671e-05
0.00844925
8.81207e-05
0.0085481
0.000227836
0.0090706
0.000781553
0.0112795
0.00266081
0.0108939
0.0090465
0.0105371
0.00924864
0.0101192
0.00923453
0.00992296
0.00892127
0.00993661
0.0088222
0.0100488
0.0088159
0.0101945
0.00871567
0.0084249
0.0103514
0.00840003
5.65097e-11
0.00840003
1.1781e-09
0.00840003
2.25402e-09
0.00840003
1.03214e-08
0.00840004
1.65856e-08
0.00840004
6.41918e-08
0.00840009
9.94714e-08
0.0084001
3.74842e-07
0.00840039
5.6052e-07
0.00840036
2.2287e-06
0.00840233
2.87597e-06
0.00840143
1.41874e-05
0.00841593
1.36976e-05
0.00840794
9.53691e-05
0.00853069
0.000104571
0.00860056
0.000708811
0.00950992
0.00174442
0.0110143
0.00752329
0.0108935
0.00936608
0.0106227
0.00950291
0.0103307
0.00921337
0.0102458
0.00890668
0.0103121
0.00874812
0.0104272
0.00859911
0.00832019
0.0105292
0.00840003
1.01134e-10
0.00840003
5.8907e-10
0.00840003
2.15886e-09
0.00840004
5.61099e-09
0.00840004
1.52115e-08
0.00840007
3.4984e-08
0.00840007
8.94873e-08
0.00840025
1.9985e-07
0.00840028
5.21685e-07
0.00840141
1.10042e-06
0.00840099
3.24633e-06
0.00840893
6.24236e-06
0.00840153
2.0782e-05
0.00845458
4.22348e-05
0.008411
0.000146667
0.00873182
0.000385977
0.00891893
0.00155247
0.0108768
0.0055438
0.0110892
0.00915126
0.0110035
0.00958711
0.0107489
0.00946701
0.0105863
0.00907008
0.0105531
0.00878038
0.0106121
0.00853854
0.00824309
0.0106865
0.00840003
1.22237e-10
0.00840003
3.54438e-10
0.00840003
2.07851e-09
0.00840003
3.62094e-09
0.00840003
1.43526e-08
0.00840004
2.29429e-08
0.00840005
8.44725e-08
0.00840012
1.31505e-07
0.00840016
4.83136e-07
0.00840053
7.27856e-07
0.00840098
2.8215e-06
0.00840325
3.9003e-06
0.00840585
1.78938e-05
0.00842679
2.19927e-05
0.0084474
0.000123623
0.00863279
0.000202835
0.00925612
0.000917624
0.0116252
0.00315447
0.0116996
0.00907411
0.0116031
0.00968512
0.0113072
0.00976261
0.0110371
0.00934007
0.0108968
0.00891956
0.0108529
0.00858122
0.00823942
0.0108542
0.00840003
4.24733e-11
0.00840003
4.72505e-10
0.00840003
1.07184e-09
0.00840003
4.26002e-09
0.00840004
7.74554e-09
0.00840003
2.66109e-08
0.00840007
4.63351e-08
0.00840005
1.54685e-07
0.00840026
2.66105e-07
0.00840009
8.89888e-07
0.00840139
1.51463e-06
0.00840002
5.2045e-06
0.00840919
8.64498e-06
0.00839834
3.24208e-05
0.00846863
5.27765e-05
0.00844078
0.000228316
0.00886592
0.000493774
0.0100262
0.00198641
0.0116807
0.00740597
0.0117418
0.00962258
0.0116297
0.00987379
0.011337
0.00963311
0.0112171
0.00903852
0.0111432
0.00865302
0.00829006
0.0110905
0.00840003
6.16018e-11
0.00840003
2.37979e-10
0.00840003
1.18197e-09
0.00840003
2.34869e-09
0.00840003
8.27573e-09
0.00840004
1.49489e-08
0.00840004
4.923e-08
0.00840011
8.72825e-08
0.00840009
2.83867e-07
0.00840047
5.00307e-07
0.00840033
1.64267e-06
0.00840269
2.83176e-06
0.00840128
9.94153e-06
0.00841787
1.58761e-05
0.00840444
6.54449e-05
0.00852729
0.000105346
0.00851894
0.000499706
0.00924371
0.00125777
0.0117928
0.0048362
0.0119563
0.00945172
0.0119424
0.00988537
0.0117692
0.00980521
0.0114727
0.00933452
0.0113739
0.00874979
0.00834299
0.0113184
0.00840003
2.22269e-11
0.00840003
2.59499e-10
0.00840003
5.90343e-10
0.00840003
2.33433e-09
0.00840003
4.2843e-09
0.00840004
1.4543e-08
0.00840006
2.56417e-08
0.00840006
8.417e-08
0.0084002
1.46975e-07
0.00840021
4.8086e-07
0.00840102
8.32366e-07
0.00840102
2.79288e-06
0.0084063
4.63107e-06
0.00840472
1.72624e-05
0.00844396
2.60604e-05
0.0084323
0.000116009
0.00873385
0.000196821
0.00907971
0.000908518
0.0113259
0.00258045
0.0124814
0.00828307
0.0124235
0.00993965
0.0121756
0.0100511
0.0117853
0.00972466
0.0116183
0.00891566
0.00844754
0.0115114
0.00840003
2.45764e-11
0.00840003
1.40899e-10
0.00840003
5.23476e-10
0.00840003
1.34286e-09
0.00840003
3.69399e-09
0.00840004
8.42215e-09
0.00840004
2.18327e-08
0.00840008
4.84985e-08
0.0084001
1.24191e-07
0.0084003
2.73626e-07
0.00840042
7.05509e-07
0.00840168
1.52321e-06
0.00840212
4.156e-06
0.00841094
8.47393e-06
0.00841033
2.61689e-05
0.00847444
5.24561e-05
0.00848326
0.000184945
0.00894239
0.000450252
0.00961376
0.00189668
0.0120268
0.00584866
0.0124592
0.00950393
0.012564
0.00994436
0.0123896
0.00989555
0.011969
0.00933588
0.00867531
0.0117394
0.00840003
2.52231e-11
0.00840003
8.35649e-11
0.00840003
4.41561e-10
0.00840003
8.41715e-10
0.00840003
3.05043e-09
0.00840003
5.32281e-09
0.00840004
1.78847e-08
0.00840006
3.05955e-08
0.00840008
1.01376e-07
0.00840017
1.71999e-07
0.00840027
5.73034e-07
0.00840082
9.6061e-07
0.00840156
3.28385e-06
0.00840481
5.3043e-06
0.00841141
1.97139e-05
0.00843323
3.00163e-05
0.00848401
0.000128438
0.00868821
0.000244443
0.0095975
0.000979607
0.0122043
0.00322589
0.0128954
0.00880479
0.0129253
0.00991113
0.01273
0.0100873
0.0123893
0.00967568
0.00895311
0.012111
0.00840003
8.86438e-12
0.00840003
9.06357e-11
0.00840003
2.18465e-10
0.00840003
8.19465e-10
0.00840003
1.57021e-09
0.00840003
5.089e-09
0.00840004
9.3231e-09
0.00840004
2.92566e-08
0.00840009
5.30349e-08
0.00840009
1.65589e-07
0.00840036
2.9896e-07
0.00840036
9.3824e-07
0.00840194
1.68673e-06
0.00840174
5.39041e-06
0.00841176
9.61361e-06
0.00840907
3.23702e-05
0.00847784
5.85072e-05
0.00850076
0.000219396
0.00896917
0.00051243
0.010304
0.00188033
0.0126345
0.00644551
0.0129242
0.00961637
0.0131061
0.00990252
0.0128475
0.00993339
0.00930292
0.0124987
0.00840003
1.09229e-11
0.00840003
4.21643e-11
0.00840003
2.0547e-10
0.00840003
4.17687e-10
0.00840003
1.43324e-09
0.00840003
2.64764e-09
0.00840003
8.45483e-09
0.00840005
1.53344e-08
0.00840005
4.81433e-08
0.00840013
8.70131e-08
0.00840015
2.72557e-07
0.00840059
4.91848e-07
0.00840071
1.54989e-06
0.0084033
2.77555e-06
0.0084037
9.05493e-06
0.0084204
1.56338e-05
0.00842119
5.67526e-05
0.00854314
9.70768e-05
0.00864342
0.000408265
0.0095357
0.000982306
0.0124637
0.00348822
0.01321
0.00886309
0.0132858
0.00982659
0.0131606
0.0100579
0.00968436
0.012777
0.00840003
5.09649e-12
0.00840003
3.61882e-11
0.00840003
1.12719e-10
0.00840003
3.37445e-10
0.00840003
8.01246e-10
0.00840003
2.1035e-09
0.00840004
4.73311e-09
0.00840004
1.20537e-08
0.00840006
2.68118e-08
0.00840008
6.77318e-08
0.0084002
1.50247e-07
0.0084003
3.79021e-07
0.00840101
8.40201e-07
0.0084016
2.14645e-06
0.00840594
4.67196e-06
0.00840856
1.2798e-05
0.00843869
2.64323e-05
0.0084518
8.27931e-05
0.00868057
0.000178347
0.00899308
0.000665732
0.0106267
0.00184512
0.0129956
0.0064753
0.0132618
0.00955588
0.0134387
0.00987753
0.00986395
0.0132567
0.00840003
2.13251e-12
0.00840003
2.9649e-11
0.00840003
6.74167e-11
0.00840003
2.63206e-10
0.00840003
4.88951e-10
0.00840003
1.62351e-09
0.00840003
2.90652e-09
0.00840004
9.29332e-09
0.00840005
1.65285e-08
0.00840006
5.23448e-08
0.00840012
9.29469e-08
0.0084002
2.9419e-07
0.00840051
5.2047e-07
0.00840097
1.66184e-06
0.00840272
2.88967e-06
0.00840572
9.66395e-06
0.00841622
1.5764e-05
0.00843814
6.00539e-05
0.00851814
9.75019e-05
0.00876307
0.000417255
0.00958505
0.00101848
0.0125731
0.00346041
0.0134838
0.00863427
0.01358
0.00977708
0.00993434
0.0135062
0.00840003
2.54949e-12
0.00840003
1.47189e-11
0.00840003
5.43112e-11
0.00840003
1.40355e-10
0.00840003
3.82539e-10
0.00840003
8.76836e-10
0.00840003
2.24539e-09
0.00840004
5.01891e-09
0.00840004
1.26517e-08
0.00840006
2.81382e-08
0.00840008
7.05773e-08
0.00840022
1.56807e-07
0.00840034
3.92876e-07
0.00840112
8.72559e-07
0.00840176
2.21293e-06
0.00840656
4.82671e-06
0.00840899
1.30925e-05
0.00844174
2.71113e-05
0.00845414
8.38661e-05
0.00868996
0.000180209
0.00904099
0.000663269
0.0106813
0.00180955
0.0131833
0.00610939
0.0135718
0.00938232
0.00976527
0.0137378
0.00840003
2.27507e-12
0.00840003
8.34127e-12
0.00840003
4.08105e-11
0.00840003
8.31265e-11
0.00840003
2.8217e-10
0.00840003
5.2438e-10
0.00840003
1.64941e-09
0.00840003
3.0113e-09
0.00840004
9.29327e-09
0.00840005
1.6917e-08
0.00840007
5.19421e-08
0.00840013
9.44588e-08
0.00840023
2.90133e-07
0.00840057
5.25746e-07
0.00840112
1.62917e-06
0.00840302
2.89871e-06
0.00840656
9.40579e-06
0.00841779
1.57145e-05
0.00844346
5.73416e-05
0.00852606
9.67341e-05
0.00879824
0.000387358
0.00966408
0.000938295
0.0126677
0.00307696
0.0137497
0.00828942
0.00970688
0.0138054
0.00840003
7.47738e-13
0.00840003
7.5129e-12
0.00840003
1.87658e-11
0.00840003
6.79397e-11
0.00840003
1.34628e-10
0.00840003
4.19102e-10
0.00840003
7.94174e-10
0.00840003
2.38399e-09
0.00840004
4.47853e-09
0.00840004
1.3307e-08
0.00840007
2.49698e-08
0.00840009
7.39455e-08
0.00840024
1.38647e-07
0.00840035
4.11034e-07
0.0084012
7.68111e-07
0.00840175
2.31375e-06
0.00840691
4.21203e-06
0.00840875
1.36708e-05
0.00844264
2.32488e-05
0.00845124
8.72002e-05
0.00868341
0.000153277
0.00896923
0.000649763
0.0102883
0.0017481
0.0132782
0.00527599
0.00908332
0.0138933
0.00840003
6.35615e-13
0.00840003
3.77884e-12
0.00840003
1.38641e-11
0.00840003
3.58408e-11
0.00840003
9.74891e-11
0.00840003
2.23017e-10
0.00840003
5.70278e-10
0.00840003
1.26956e-09
0.00840003
3.1982e-09
0.00840004
7.072e-09
0.00840005
1.77478e-08
0.00840008
3.9151e-08
0.00840012
9.82006e-08
0.00840031
2.16248e-07
0.00840053
5.43335e-07
0.00840164
1.19796e-06
0.00840277
3.0262e-06
0.00840968
6.71438e-06
0.00841522
1.74097e-05
0.00846321
3.90371e-05
0.00850733
0.000107629
0.00888179
0.000273921
0.00975274
0.000874299
0.0125156
0.00249733
0.00755905
0.0140249
0.00840003
4.4248e-13
0.00840003
2.40393e-12
0.00840003
8.86726e-12
0.00840003
2.29118e-11
0.00840003
6.20227e-11
0.00840003
1.42547e-10
0.00840003
3.61843e-10
0.00840003
8.10064e-10
0.00840003
2.02473e-09
0.00840003
4.50464e-09
0.00840004
1.12114e-08
0.00840006
2.49023e-08
0.00840009
6.18807e-08
0.00840017
1.37278e-07
0.00840037
3.4114e-07
0.0084008
7.54867e-07
0.00840191
1.89038e-06
0.00840447
4.12065e-06
0.00841082
1.08612e-05
0.00842774
2.21426e-05
0.00846574
6.83396e-05
0.00860188
0.000137741
0.00896172
0.000510421
0.0101077
0.0013455
0.00450645
0.0131306
0.00840003
3.4861e-13
0.00840003
1.29413e-12
0.00840003
6.21549e-12
0.00840003
1.2916e-11
0.00840003
4.28789e-11
0.00840003
8.1123e-11
0.00840003
2.49102e-10
0.00840003
4.62352e-10
0.00840003
1.39219e-09
0.00840003
2.57478e-09
0.00840004
7.71009e-09
0.00840005
1.42534e-08
0.00840007
4.26132e-08
0.00840012
7.87172e-08
0.00840023
2.35599e-07
0.00840054
4.3394e-07
0.00840111
1.30695e-06
0.00840282
2.38858e-06
0.00840623
7.33889e-06
0.00841498
1.32603e-05
0.00844019
4.25327e-05
0.00849687
8.01254e-05
0.00872973
0.000274756
0.00939348
0.000679612
0.0022135
0.0116734
0.00840003
1.41114e-13
0.00840003
9.99659e-13
0.00840003
3.12829e-12
0.00840003
9.30574e-12
0.00840003
2.21044e-11
0.00840003
5.75429e-11
0.00840003
1.2916e-10
0.00840003
3.25904e-10
0.00840003
7.22074e-10
0.00840003
1.80731e-09
0.00840004
3.99288e-09
0.00840004
9.96802e-09
0.00840006
2.20127e-08
0.00840008
5.48846e-08
0.0084002
1.21209e-07
0.00840032
3.02068e-07
0.00840096
6.67227e-07
0.00840164
1.66696e-06
0.00840527
3.67725e-06
0.00840896
9.37148e-06
0.00843092
2.04282e-05
0.00845341
5.64368e-05
0.00860432
0.000122946
0.00888639
0.000392501
0.00106859
0.0100238
0.00840003
6.10793e-14
0.00840003
7.00565e-13
0.00840003
1.72513e-12
0.00840003
6.25606e-12
0.00840003
1.23675e-11
0.00840003
3.82712e-11
0.00840003
7.2497e-11
0.00840003
2.15944e-10
0.00840003
4.05444e-10
0.00840003
1.19528e-09
0.00840003
2.24106e-09
0.00840004
6.58472e-09
0.00840005
1.23466e-08
0.00840006
3.62363e-08
0.00840012
6.79071e-08
0.00840021
1.99484e-07
0.0084005
3.72918e-07
0.00840105
1.10079e-06
0.00840265
2.04621e-06
0.00840577
6.13145e-06
0.00841471
1.1329e-05
0.00843549
3.49571e-05
0.00848999
6.76739e-05
0.00866421
0.000214584
0.000536693
0.00919718
0.00840003
6.74337e-14
0.00840003
2.93725e-13
0.00840003
1.3073e-12
0.00840003
2.86729e-12
0.00840003
9.06272e-12
0.00840003
1.7884e-11
0.00840003
5.25217e-11
0.00840003
1.01357e-10
0.00840003
2.92063e-10
0.00840003
5.61064e-10
0.00840003
1.60747e-09
0.00840004
3.0866e-09
0.00840004
8.82226e-09
0.00840006
1.69459e-08
0.00840008
4.83783e-08
0.00840018
9.29305e-08
0.00840028
2.65378e-07
0.00840087
5.09524e-07
0.00840142
1.46096e-06
0.00840473
2.7977e-06
0.00840773
8.15176e-06
0.00842701
1.55467e-05
0.00844635
4.74033e-05
0.00856692
9.32601e-05
0.000305661
0.00879453
0.00840003
2.92418e-14
0.00840003
2.06407e-13
0.00840003
6.4496e-13
0.00840003
1.91797e-12
0.00840003
4.54825e-12
0.00840003
1.1818e-11
0.00840003
2.64589e-11
0.00840003
6.65689e-11
0.00840003
1.47007e-10
0.00840003
3.66708e-10
0.00840003
8.07131e-10
0.00840003
2.00783e-09
0.00840004
4.41606e-09
0.00840004
1.097e-08
0.00840007
2.4126e-08
0.0084001
5.98646e-08
0.00840023
1.3166e-07
0.0084004
3.26455e-07
0.00840114
7.18124e-07
0.0084021
1.78438e-06
0.00840629
3.91817e-06
0.00841158
9.97785e-06
0.00843745
2.13846e-05
0.00846891
6.00977e-05
0.000127613
0.00864612
0.00840003
1.15997e-14
0.00840003
1.36783e-13
0.00840003
3.34766e-13
0.00840003
1.21699e-12
0.00840003
2.39618e-12
0.00840003
7.41007e-12
0.00840003
1.39601e-11
0.00840003
4.1523e-11
0.00840003
7.74107e-11
0.00840003
2.27955e-10
0.00840003
4.23769e-10
0.00840003
1.24469e-09
0.00840003
2.31139e-09
0.00840004
6.78561e-09
0.00840005
1.25887e-08
0.00840007
3.69782e-08
0.00840013
6.84732e-08
0.00840025
2.01608e-07
0.00840059
3.71874e-07
0.00840124
1.10184e-06
0.0084031
2.01762e-06
0.00840682
6.07932e-06
0.00841696
1.10304e-05
0.00844169
3.43587e-05
6.52724e-05
0.00850291
0.00840003
1.22432e-14
0.00840003
5.25325e-14
0.00840003
2.37571e-13
0.00840003
5.10761e-13
0.00840003
1.63747e-12
0.00840003
3.15679e-12
0.00840003
9.40246e-12
0.00840003
1.76586e-11
0.00840003
5.16613e-11
0.00840003
9.6222e-11
0.00840003
2.80444e-10
0.00840003
5.20172e-10
0.00840003
1.5161e-09
0.00840004
2.80274e-09
0.00840004
8.17824e-09
0.00840006
1.50664e-08
0.00840008
4.40438e-08
0.0084002
8.08057e-08
0.00840033
2.36993e-07
0.00840099
4.32671e-07
0.00840168
1.27828e-06
0.00840538
2.31588e-06
0.00840914
6.99542e-06
0.0084307
1.2494e-05
4.01565e-05
0.00845433
0.00840003
3.39035e-15
0.00840003
3.8615e-14
0.00840003
8.89874e-14
0.00840003
3.44608e-13
0.00840003
6.3097e-13
0.00840003
2.08528e-12
0.00840003
3.61832e-12
0.00840003
1.15474e-11
0.00840003
1.96225e-11
0.00840003
6.24093e-11
0.00840003
1.04559e-10
0.00840003
3.34551e-10
0.00840003
5.52914e-10
0.00840003
1.78599e-09
0.00840004
2.90825e-09
0.00840004
9.50395e-09
0.00840007
1.52143e-08
0.0084001
5.04392e-08
0.00840025
7.90696e-08
0.0084004
2.67379e-07
0.00840125
4.0768e-07
0.00840205
1.42253e-06
0.00840687
2.0601e-06
0.00841091
7.90215e-06
9.63797e-06
0.00844093
0.00840003
2.72265e-15
0.00840003
1.52818e-14
0.00840003
5.59723e-14
0.00840003
1.45066e-13
0.00840003
3.87319e-13
0.00840003
8.83855e-13
0.00840003
2.19777e-12
0.00840003
4.85765e-12
0.00840003
1.18307e-11
0.00840003
2.5913e-11
0.00840003
6.25981e-11
0.00840003
1.36665e-10
0.00840003
3.28483e-10
0.00840003
7.15867e-10
0.00840003
1.71274e-09
0.00840004
3.72658e-09
0.00840004
8.87222e-09
0.00840007
1.92655e-08
0.0084001
4.56231e-08
0.00840026
9.87751e-08
0.0084004
2.32437e-07
0.00840128
5.01336e-07
0.00840199
1.16447e-06
0.00840708
2.53914e-06
5.68066e-06
0.00840979
0.00840003
2.69682e-15
0.00840003
3.54046e-15
0.00840003
4.02621e-14
0.00840003
4.27807e-14
0.00840003
2.70332e-13
0.00840003
2.64686e-13
0.00840003
1.5329e-12
0.00840003
1.40102e-12
0.00840003
8.33017e-12
0.00840003
7.0126e-12
0.00840003
4.4673e-11
0.00840003
3.40074e-11
0.00840003
2.38188e-10
0.00840003
1.59908e-10
0.00840003
1.2644e-09
0.00840003
7.20367e-10
0.00840003
6.6802e-09
0.00840005
3.01607e-09
0.00840005
3.51285e-08
0.00840013
1.08859e-08
0.00840015
1.84491e-07
0.00840059
1.52084e-08
0.00840053
1.02997e-06
0.00840336
-5.68339e-07
7.19215e-06
0.00840052
0.00840003
8.15808e-16
0.00840003
3.29852e-15
0.00840003
1.34941e-14
0.00840003
3.29352e-14
0.00840003
9.29725e-14
0.00840003
1.9869e-13
0.00840003
5.23032e-13
0.00840003
1.05471e-12
0.00840003
2.78107e-12
0.00840003
5.35452e-12
0.00840003
1.4496e-11
0.00840003
2.64951e-11
0.00840003
7.47779e-11
0.00840003
1.28114e-10
0.00840003
3.82722e-10
0.00840003
6.04844e-10
0.00840003
1.94876e-09
0.00840003
2.78627e-09
0.00840005
9.93267e-09
0.00840002
1.23606e-08
0.00840012
5.12208e-08
0.00839993
4.88807e-08
0.00840057
2.73823e-07
0.00839931
5.49008e-08
1.66161e-06
0.00840319
0.00840003
2.2424e-16
0.00840003
3.31844e-15
0.00840003
7.80452e-15
0.00840003
2.82261e-14
0.00840003
5.35109e-14
0.00840003
1.69226e-13
0.00840003
3.02165e-13
0.00840003
9.44707e-13
0.00840003
1.62413e-12
0.00840003
5.2045e-12
0.00840003
8.66075e-12
0.00840003
2.87865e-11
0.00840003
4.65278e-11
0.00840003
1.60849e-10
0.00840003
2.54147e-10
0.00840003
9.09758e-10
0.00840003
1.4191e-09
0.00840002
5.19609e-09
0.00840002
8.06953e-09
0.00839998
2.96888e-08
0.00839996
4.43273e-08
0.00839972
1.64923e-07
0.00839964
2.08225e-07
0.00839818
8.79786e-07
4.08454e-07
0.00839875
0.00840003
-7.62113e-16
0.00840003
4.47808e-15
0.00840003
-1.24729e-15
0.00840003
3.32627e-14
0.00840003
-4.67863e-15
0.00840003
1.98182e-13
0.00840003
-3.08869e-14
0.00840003
1.12563e-12
0.00840003
-2.27693e-13
0.00840003
6.36082e-12
0.00840003
-1.55953e-12
0.00840003
3.61376e-11
0.00840003
-9.82556e-12
0.00840003
2.07265e-10
0.00840003
-5.74536e-11
0.00840003
1.20425e-09
0.00840003
-3.16914e-10
0.00840002
7.12206e-09
0.00840003
-1.72431e-09
0.00839999
4.299e-08
0.00840002
-1.21444e-08
0.00839975
2.79132e-07
0.00839998
-1.7225e-07
0.00839803
2.05232e-06
-2.7656e-06
0.00839952
0.00840003
1.04756e-15
0.00840003
-2.46862e-15
0.00840003
8.46626e-15
0.00840003
-1.3872e-14
0.00840003
5.29085e-14
0.00840003
-8.05907e-14
0.00840003
3.05461e-13
0.00840003
-4.73693e-13
0.00840003
1.7399e-12
0.00840003
-2.8072e-12
0.00840003
9.86634e-12
0.00840003
-1.66784e-11
0.00840003
5.57732e-11
0.00840003
-9.94859e-11
0.00840003
3.14181e-10
0.00840003
-5.99764e-10
0.00840003
1.7675e-09
0.00840004
-3.69519e-09
0.00840002
1.00191e-08
0.00840008
-2.34612e-08
0.00839998
6.06991e-08
0.00840039
-1.72651e-07
0.0083995
4.89103e-07
0.00840304
-1.58163e-06
4.58346e-06
0.00839423
0.00840003
0.00840003
0.00840003
0.00840003
0.00840003
0.00840003
0.00840003
0.00840003
0.00840003
0.00840003
0.00840003
0.00840003
0.00840003
0.00840003
0.00840003
0.00840003
0.00840003
0.00840002
0.00840003
0.00839999
0.00840002
0.00839972
0.00840007
0.00839776
0.008401
0.0044125
0.00420997
0.00239732
0.0020107
0.00128187
0.00110855
-0.000308268
0.00158258
-0.00116593
0.000852221
-0.00173943
0.000562137
-0.00212529
0.000374329
-0.00232458
0.00018774
-0.00237362
3.75042e-05
-0.00243261
4.90812e-05
-0.00253662
9.51966e-05
-0.00265442
0.000110115
-0.00275024
8.85906e-05
-0.00281806
6.09639e-05
-0.00287457
5.18334e-05
-0.00293401
5.51133e-05
-0.00299273
5.5778e-05
-0.00304878
5.36941e-05
-0.00309858
4.83894e-05
-0.00313964
3.95748e-05
-0.00316699
2.77456e-05
-0.00318504
1.8554e-05
-0.00321293
2.9413e-05
-0.00324731
3.60624e-05
-0.0032787
3.32037e-05
-0.00330131
2.44836e-05
-0.0033145
1.45214e-05
-0.00330693
-6.95978e-06
-0.00326418
-4.31125e-05
-0.00317618
-8.91237e-05
-0.00304587
-0.000131896
-0.00287852
-0.000169394
-0.00267901
-0.00020172
-0.00245116
-0.000230224
-0.00220235
-0.000251013
-0.00194226
-0.000262287
-0.00167525
-0.000269075
-0.00140685
-0.000270714
-0.00113008
-0.000279535
-0.000852153
-0.000280687
-0.000577927
-0.000277209
-0.000303105
-0.000278176
-1.37874e-05
-0.000293033
0.000254493
-0.000272314
0.000503395
-0.000253466
0.000742154
-0.000243861
0.000971098
-0.000234494
0.00118937
-0.000224491
0.00139771
-0.000215047
0.00159454
-0.000204163
0.00178329
-0.000196766
0.00196678
-0.000192845
0.00214324
-0.000186601
0.00230936
-0.00017746
0.00246671