/*--------------------------------*- C++ -*----------------------------------*\
| =========                 |                                                 |
| \\      /  F ield         | OpenFOAM: The Open Source CFD Toolbox           |
|  \\    /   O peration     | Version:  2412                                  |
|   \\  /    A nd           | Website:  www.openfoam.com                      |
|    \\/     M anipulation  |                                                 |
\*---------------------------------------------------------------------------*/
FoamFile
{
    version     2.0;
    format      ascii;
    arch        "LSB;label=32;scalar=64";
    class       volScalarField;
    location    "5.5";
    object      T;
}
// * * * * * * * * * * * * * * * * * * * * * * * * * * * * * * * * * * * * * //

dimensions      [0 0 0 1 0 0 0];

internalField   nonuniform List<scalar> 
5250
(
1.00001
1.00002
1.00006
1.00011
1.00035
1.00066
1.00192
1.00406
1.01039
1.02764
1.06201
1.19185
1.44122
2.2039
2.66108
2.7493
2.74365
2.74074
2.75476
2.76628
2.77805
2.7851
2.79134
2.79711
2.79733
1.00001
1.00002
1.00006
1.00011
1.00035
1.00064
1.00189
1.00399
1.01022
1.02714
1.06096
1.18819
1.43269
2.18746
2.65619
2.74911
2.74335
2.73981
2.75374
2.76502
2.77667
2.78348
2.78946
2.79435
2.79423
1.00001
1.00002
1.00006
1.00011
1.00034
1.00062
1.00185
1.00384
1.00994
1.02596
1.05877
1.18014
1.41409
2.14993
2.64285
2.74716
2.74146
2.73683
2.75095
2.76217
2.77393
2.78093
2.78728
2.79223
2.79158
1.00001
1.00002
1.00006
1.0001
1.00032
1.00059
1.00178
1.00362
1.00955
1.0242
1.05555
1.16814
1.38628
2.08944
2.62082
2.74292
2.73743
2.73066
2.74543
2.75632
2.76853
2.77537
2.781
2.78745
2.78776
1.00001
1.00001
1.00005
1.00009
1.0003
1.00055
1.0017
1.00334
1.00904
1.02199
1.05151
1.15309
1.35127
2.00488
2.58932
2.73597
2.73105
2.7214
2.73682
2.74772
2.76051
2.76891
2.77559
2.77934
2.77904
1.00001
1.00001
1.00005
1.00009
1.00028
1.00051
1.00159
1.00304
1.00844
1.01957
1.04699
1.13634
1.31179
1.90845
2.54167
2.72178
2.71728
2.70802
2.72541
2.73517
2.74771
2.7546
2.76146
2.77043
2.77051
1.00001
1.00001
1.00004
1.00008
1.00026
1.00047
1.00147
1.00276
1.00793
1.01739
1.04337
1.12046
1.27982
1.75097
2.54554
2.70323
2.69618
2.68948
2.71079
2.72153
2.7357
2.74377
2.74913
2.75202
2.75155
1.00001
1.00001
1.00004
1.00007
1.00024
1.00043
1.00136
1.00252
1.00745
1.01561
1.04039
1.10774
1.25266
1.69524
2.54098
2.69244
2.67463
2.67343
2.68544
2.70163
2.71485
2.7215
2.72733
2.73338
2.72937
1
1.00001
1.00004
1.00007
1.00022
1.00039
1.00124
1.00227
1.0069
1.01396
1.03728
1.09555
1.22735
1.6377
2.50167
2.67063
2.66838
2.66554
2.66736
2.67891
2.69632
2.70086
2.69931
2.69564
2.67802
1
1.00001
1.00003
1.00006
1.00019
1.00034
1.00106
1.00202
1.00584
1.01251
1.03223
1.08754
1.19817
1.58742
2.43446
2.63825
2.66094
2.65261
2.6489
2.65489
2.66245
2.67163
2.6671
2.65034
2.5998
1
1.00001
1.00002
1.00006
1.00012
1.00032
1.00071
1.00174
1.0046
1.01028
1.03009
1.06273
1.20619
1.46774
2.23579
2.60784
2.66307
2.65016
2.63537
2.63506
2.63573
2.63301
2.61752
2.57202
2.39095
1
1.00001
1.00002
1.00004
1.00014
1.00026
1.00079
1.00154
1.00426
1.0097
1.02367
1.06663
1.14397
1.45519
2.1554
2.52315
2.64906
2.6407
2.62299
2.61315
2.60697
2.59695
2.5717
2.51592
2.33108
1
1.00001
1.00002
1.00004
1.00013
1.00023
1.00073
1.00132
1.0041
1.00786
1.02222
1.05142
1.12543
1.35008
1.98947
2.45234
2.62792
2.62236
2.61236
2.59702
2.58042
2.55488
2.52029
2.47053
2.32605
1
1.00001
1.00002
1.00003
1.00011
1.00019
1.00061
1.0011
1.00343
1.00647
1.01879
1.04052
1.10585
1.26692
1.80347
2.35464
2.58431
2.58015
2.58499
2.57885
2.56377
2.53331
2.48153
2.43786
2.32877
1
1
1.00001
1.00003
1.00009
1.00015
1.00049
1.00089
1.00275
1.00524
1.01462
1.0339
1.0806
1.22927
1.58227
2.30284
2.55574
2.55585
2.55237
2.54738
2.53682
2.51344
2.45455
2.40951
2.32682
1
1
1.00001
1.00002
1.00007
1.00012
1.00038
1.0007
1.00206
1.00424
1.01095
1.02814
1.06365
1.19302
1.44082
2.14122
2.49717
2.54758
2.53118
2.52344
2.50747
2.49314
2.44872
2.39389
2.32225
1
1
1.00001
1.00002
1.00005
1.0001
1.00031
1.00056
1.00174
1.00332
1.00916
1.0213
1.05081
1.14781
1.3377
1.9462
2.39059
2.52731
2.52072
2.50587
2.47852
2.45286
2.42896
2.38457
2.32193
1
1
1.00001
1.00001
1.00004
1.00008
1.00024
1.00043
1.00136
1.0025
1.00737
1.01537
1.03944
1.10414
1.24074
1.64496
2.26682
2.46736
2.48986
2.4867
2.46999
2.43635
2.40078
2.36211
2.31645
1
1
1.00001
1.00001
1.00003
1.00006
1.00018
1.00033
1.00101
1.0019
1.00551
1.01163
1.0298
1.07978
1.17782
1.525
2.22144
2.41109
2.44567
2.44182
2.43781
2.42204
2.38994
2.3465
2.30182
1
1
1
1.00001
1.00002
1.00005
1.0001
1.0003
1.00058
1.0016
1.00354
1.00867
1.02335
1.05157
1.15596
1.35136
1.97286
2.35581
2.43195
2.4267
2.4097
2.39066
2.37327
2.33844
2.29516
1
1
1
1.00001
1.00001
1.00004
1.00008
1.00024
1.00043
1.00134
1.0025
1.00714
1.01548
1.03844
1.10478
1.23759
1.63242
2.19947
2.40343
2.40175
2.39068
2.36497
2.33911
2.31742
2.28631
1
1
1
1
1.00001
1.00002
1.00007
1.00013
1.00041
1.00077
1.00229
1.00451
1.0125
1.02818
1.0698
1.1805
1.50018
2.01484
2.33747
2.38323
2.37613
2.3581
2.32397
2.29387
2.26363
1
1
1
1
1.00001
1.00002
1.00004
1.00012
1.00023
1.0007
1.00132
1.00381
1.00797
1.02056
1.0527
1.12041
1.34019
1.90939
2.18908
2.32485
2.34564
2.34064
2.3215
2.28958
2.25458
1
1
1
1
1.00001
1.00001
1.00004
1.00007
1.0002
1.00038
1.00112
1.00217
1.006
1.01326
1.03281
1.08788
1.19982
1.53616
2.13662
2.26931
2.29184
2.2954
2.29353
2.28004
2.25075
1
1
1
1
1
1.00001
1.00002
1.00006
1.00011
1.00033
1.00062
1.0018
1.00367
1.00951
1.02345
1.054
1.15496
1.3518
1.90305
2.22478
2.27976
2.27632
2.26307
2.25297
2.23794
1
1
1
1
1
1.00001
1.00001
1.00004
1.00008
1.00023
1.00043
1.00132
1.00241
1.00725
1.01437
1.03773
1.09339
1.22254
1.56947
2.0691
2.25203
2.25471
2.24758
2.22849
2.20707
1
1
1
1
1
1
1.00001
1.00002
1.00007
1.00012
1.00037
1.00069
1.00205
1.00399
1.01111
1.02424
1.06109
1.15118
1.41473
1.8593
2.17825
2.23728
2.23507
2.22063
2.19879
1
1
1
1
1
1
1.00001
1.00002
1.00003
1.0001
1.00019
1.00058
1.00109
1.0032
1.00635
1.01718
1.03916
1.09613
1.2448
1.68745
2.02183
2.18676
2.20554
2.20104
2.18803
1
1
1
1
1
1
1.00001
1.00001
1.00003
1.00005
1.00016
1.00029
1.00088
1.00167
1.0047
1.00996
1.02488
1.06513
1.14068
1.40849
1.91149
2.11955
2.17628
2.17867
2.17199
1
1
1
1
1
1
1
1.00001
1.00002
1.00003
1.00011
1.00019
1.0006
1.00109
1.00329
1.00625
1.01756
1.0381
1.09575
1.23785
1.67364
1.98506
2.13362
2.14928
2.14714
1
1
1
1
1
1
1
1.00001
1.00001
1.00003
1.00005
1.00015
1.00028
1.00085
1.00161
1.00451
1.00952
1.02381
1.06182
1.13394
1.38562
1.86283
2.06508
2.12535
2.12493
1
1
1
1
1
1
1
1
1.00001
1.00002
1.00003
1.0001
1.00018
1.00056
1.00102
1.00305
1.00579
1.01624
1.03478
1.08806
1.21315
1.6067
1.92169
2.08223
2.10451
1
1
1
1
1
1
1
1
1
1.00001
1.00003
1.00005
1.00014
1.00026
1.00076
1.00146
1.00397
1.00867
1.02103
1.05588
1.11864
1.35329
1.80504
2.00582
2.06824
1
1
1
1
1
1
1
1
1
1.00001
1.00001
1.00004
1.00007
1.0002
1.00038
1.00111
1.00211
1.0059
1.01237
1.03096
1.07731
1.17785
1.44968
1.883
2.03366
1
1
1
1
1
1
1
1
1
1
1.00001
1.00002
1.00004
1.00013
1.00023
1.0007
1.00127
1.00376
1.00736
1.01927
1.04678
1.10385
1.29375
1.69666
1.95547
1
1
1
1
1
1
1
1
1
1
1
1.00001
1.00003
1.00008
1.00014
1.00042
1.00077
1.0023
1.00434
1.01235
1.02498
1.0674
1.14788
1.44685
1.76337
1
1
1
1
1
1
1
1
1
1
1
1.00001
1.00002
1.00004
1.0001
1.00019
1.00057
1.00106
1.00309
1.00601
1.01612
1.03646
1.08524
1.22249
1.56357
1
1
1
1
1
1
1
1
1
1
1
1
1.00001
1.00002
1.00006
1.00011
1.00034
1.00063
1.00186
1.00349
1.00991
1.01994
1.05332
1.11691
1.33336
1
1
1
1
1
1
1
1
1
1
1
1
1.00001
1.00001
1.00003
1.00008
1.00015
1.00044
1.00084
1.00238
1.00468
1.01255
1.02691
1.06817
1.15609
1
1
1
1
1
1
1
1
1
1
1
1
1
1.00001
1.00002
1.00004
1.00011
1.0002
1.0006
1.00112
1.00323
1.00632
1.01659
1.0384
1.08708
1
1
1
1
1
1
1
1
1
1
1
1
1
1
1.00001
1.00002
1.00007
1.00012
1.00036
1.00065
1.00193
1.00363
1.01029
1.02053
1.0554
1
1
1
1
1
1
1
1
1
1
1
1
1
1
1.00001
1.00002
1.00003
1.00009
1.00017
1.00048
1.00091
1.0026
1.00509
1.01371
1.02937
1
1
1
1
1
1
1
1
1
1
1
1
1
1
1
1.00001
1.00003
1.00005
1.00014
1.00027
1.00079
1.00147
1.00428
1.00845
1.02246
1
1
1
1
1
1
1
1
1
1
1
1
1
1
1
1.00001
1.00002
1.00005
1.00009
1.00027
1.0005
1.00153
1.00289
1.00823
1.01765
1
1
1
1
1
1
1
1
1
1
1
1
1
1
1
1.00001
1.00001
1.00004
1.00008
1.00024
1.00045
1.00137
1.00261
1.0074
1.01633
1
1
1
1
1
1
1
1
1
1
1
1
1
1
1
1.00001
1.00002
1.00003
1.0001
1.00018
1.00056
1.00104
1.00315
1.00631
1.01728
1
1
1
1
1
1
1
1
1
1
1
1
1
1
1
1.00001
1.00002
1.00003
1.0001
1.00018
1.00057
1.00102
1.00324
1.00613
1.01786
1
1
1
1
1
1
1
1
1
1
1
1
1
1
1
1
1.00002
1.00003
1.00009
1.00017
1.00052
1.00099
1.0029
1.00615
1.01624
1
1
1
1
1
1
1
1
1
1
1
1
1
1
1
1.00001
1.00001
1.00004
1.00007
1.00021
1.0004
1.00114
1.00246
1.00623
1.01624
1
1
1
1
1
1
1
1
1
1
1
1
1
1
1
1
1.00002
1.00003
1.00009
1.00016
1.00051
1.00097
1.00283
1.0061
1.01583
2.41403
2.46089
2.96697
2.95868
2.97776
2.97485
2.91727
2.89157
2.87792
2.86259
2.8467
2.82319
2.80599
2.78664
2.77327
2.75733
2.74161
2.72603
2.71133
2.69906
2.68552
2.67509
2.66185
2.65565
2.65089
2.64903
2.65429
2.66699
2.69181
2.72061
2.75456
2.7854
2.81615
2.84171
2.86576
2.88354
2.89941
2.91056
2.9195
2.92507
2.92874
2.93015
2.92956
2.93003
2.92653
2.92432
2.91841
2.91503
2.90762
2.90333
2.89447
2.89001
2.88031
2.87531
2.86593
2.85982
2.85203
2.84513
2.8386
2.83195
2.82609
2.8206
2.81544
2.81099
2.80701
2.80346
2.80044
2.7978
2.79542
2.79326
2.79116
2.78909
2.78664
2.78436
2.78098
2.77817
2.77347
2.76991
2.76364
2.75921
2.75171
2.74559
2.73772
2.73036
2.72154
2.71349
2.70421
2.69536
2.68572
2.67667
2.66678
2.65734
2.64758
2.6385
2.62928
2.62086
2.61289
2.60643
2.60129
2.59774
2.28349
2.32018
2.56528
2.79944
2.897
2.96769
3.02979
3.10497
3.09262
2.98872
2.97604
2.96512
2.9486
2.94087
2.92577
2.91825
2.90551
2.89714
2.88333
2.87705
2.86685
2.8555
2.84691
2.84006
2.83758
2.83729
2.8432
2.85523
2.87612
2.89774
2.91988
2.93558
2.94608
2.95071
2.95185
2.9497
2.94636
2.94205
2.93167
2.92468
2.90733
2.89759
2.8819
2.87203
2.85764
2.84685
2.83315
2.82141
2.80848
2.79671
2.78404
2.7721
2.76002
2.74772
2.73633
2.72506
2.71421
2.70385
2.69386
2.68446
2.6756
2.66738
2.65974
2.65277
2.64641
2.64067
2.63541
2.63075
2.62623
2.62237
2.61802
2.61461
2.60999
2.60657
2.60144
2.59736
2.59167
2.58652
2.58003
2.5739
2.56644
2.55941
2.55116
2.54345
2.53458
2.52632
2.51701
2.50852
2.49886
2.49019
2.48037
2.4718
2.462
2.4537
2.44437
2.43701
2.42885
2.42324
2.41792
2.41552
2.27548
2.23686
2.30232
2.43792
2.56857
2.685
2.7847
2.89902
3.00497
3.01739
3.04963
3.0878
3.1177
3.1077
3.08457
3.08423
3.06413
3.05284
3.05007
3.04542
3.03748
3.03212
3.02714
3.02182
3.02059
3.02214
3.02451
3.03285
3.03814
3.041
3.04082
3.02925
3.01545
2.99533
2.9714
2.94928
2.92654
2.90298
2.8812
2.85998
2.83983
2.82222
2.80433
2.78906
2.77339
2.75935
2.74513
2.7317
2.71883
2.70649
2.69439
2.68272
2.671
2.65957
2.64827
2.63768
2.62718
2.61737
2.60764
2.5987
2.58992
2.582
2.57427
2.5675
2.56085
2.55525
2.54955
2.54504
2.53997
2.53624
2.53135
2.52801
2.52292
2.51944
2.51402
2.50995
2.5039
2.49894
2.49215
2.48611
2.47853
2.47158
2.46326
2.45545
2.44675
2.43833
2.42921
2.42033
2.41112
2.40185
2.39247
2.38307
2.37388
2.36469
2.35593
2.34729
2.33977
2.33276
2.32785
2.32375
2.26229
2.21561
2.21232
2.25689
2.32746
2.39324
2.4808
2.56339
2.67861
2.79919
2.88539
2.95174
3.0132
3.04899
3.05919
3.07308
3.09313
3.10482
3.11021
3.1149
3.12606
3.1331
3.13395
3.13267
3.13266
3.13481
3.13504
3.13416
3.12176
3.08789
3.05976
3.02684
2.98614
2.94367
2.90299
2.86536
2.83005
2.79846
2.76941
2.74268
2.71891
2.69678
2.67736
2.65935
2.64313
2.62804
2.6137
2.60066
2.58799
2.57687
2.56612
2.5563
2.54627
2.53716
2.5279
2.52005
2.51179
2.50476
2.49722
2.49094
2.48412
2.47863
2.47256
2.46788
2.46259
2.45875
2.45424
2.45112
2.44725
2.44453
2.441
2.43826
2.43484
2.43173
2.42822
2.4246
2.42066
2.41638
2.41192
2.40669
2.40153
2.39547
2.38956
2.38278
2.37627
2.36894
2.36194
2.35425
2.34686
2.3389
2.33143
2.32341
2.31586
2.30795
2.3007
2.29342
2.28695
2.28116
2.2768
2.27404
2.25199
2.204
2.17499
2.18035
2.20799
2.2383
2.28442
2.33588
2.40052
2.4753
2.55255
2.6339
2.72117
2.81103
2.89919
2.95351
2.98925
3.01505
3.03356
3.04674
3.05873
3.07566
3.09252
3.10832
3.11684
3.12096
3.11687
3.09931
3.07434
3.02658
2.98226
2.92413
2.87076
2.81973
2.77634
2.73708
2.70431
2.67456
2.64894
2.62573
2.60497
2.58643
2.56945
2.55457
2.54053
2.52796
2.51551
2.50442
2.49291
2.48316
2.47308
2.46472
2.45518
2.44732
2.43835
2.43144
2.42366
2.41777
2.41091
2.4059
2.39992
2.39572
2.39059
2.38717
2.38272
2.37999
2.37606
2.37388
2.37021
2.36833
2.36473
2.36281
2.35901
2.35671
2.35251
2.34964
2.34494
2.34142
2.33609
2.33184
2.32586
2.32082
2.31424
2.30853
2.3014
2.29515
2.2876
2.28102
2.27302
2.26626
2.258
2.25117
2.2428
2.23619
2.22815
2.22218
2.21504
2.21044
2.20559
2.20396
2.25093
2.19605
2.16032
2.14346
2.14647
2.15845
2.17708
2.20464
2.23772
2.2789
2.3245
2.37575
2.43232
2.49757
2.56345
2.64161
2.71173
2.78521
2.84166
2.89728
2.93658
2.96446
2.98808
3.00771
3.02257
3.02285
3.01771
2.99191
2.94707
2.88511
2.82028
2.75461
2.69654
2.64957
2.61141
2.58138
2.55557
2.53494
2.51622
2.50122
2.48728
2.47573
2.46471
2.4555
2.44613
2.43826
2.42954
2.42229
2.41382
2.407
2.39894
2.39283
2.38534
2.37925
2.37152
2.36568
2.35885
2.35393
2.34775
2.34352
2.33792
2.3344
2.32945
2.32657
2.32228
2.31994
2.31608
2.31402
2.31044
2.30848
2.30502
2.30289
2.29941
2.29695
2.29325
2.29041
2.28639
2.28303
2.2786
2.27465
2.26961
2.26505
2.25941
2.25422
2.2481
2.24236
2.23589
2.22965
2.22283
2.21612
2.20901
2.20205
2.19486
2.18799
2.18091
2.17449
2.16804
2.16282
2.15824
2.1559
2.25306
2.19589
2.15403
2.12566
2.11426
2.11027
2.11539
2.12623
2.14308
2.16441
2.18931
2.21858
2.2511
2.28834
2.33112
2.3769
2.42977
2.47951
2.53943
2.59072
2.65308
2.70475
2.75498
2.79642
2.82769
2.85052
2.84531
2.8222
2.7666
2.69193
2.62346
2.55571
2.50361
2.462
2.43695
2.41947
2.40801
2.3984
2.39045
2.38359
2.37686
2.37154
2.36575
2.36123
2.35608
2.35176
2.34652
2.34214
2.33684
2.33248
2.32724
2.32323
2.3183
2.31418
2.3084
2.30396
2.29831
2.29457
2.28949
2.28626
2.28163
2.27901
2.27476
2.27262
2.26863
2.26671
2.26285
2.26098
2.25724
2.2553
2.25156
2.24937
2.24545
2.24283
2.2387
2.23558
2.23117
2.22766
2.22291
2.21906
2.21388
2.20956
2.20386
2.19901
2.19275
2.18742
2.18068
2.17494
2.16777
2.16186
2.15449
2.14857
2.14125
2.13546
2.12837
2.12295
2.11654
2.11217
2.10753
2.10597
2.25801
2.20029
2.15468
2.11915
2.09741
2.0835
2.07815
2.07769
2.08281
2.09302
2.10574
2.1208
2.13999
2.16046
2.18552
2.21337
2.24367
2.27906
2.31306
2.35757
2.39605
2.45106
2.48811
2.54282
2.57245
2.6192
2.62284
2.60668
2.55572
2.4917
2.42925
2.3734
2.33258
2.30351
2.28571
2.28179
2.28448
2.28827
2.29189
2.29334
2.295
2.29454
2.2935
2.29232
2.29025
2.28816
2.28527
2.28262
2.27899
2.27597
2.27175
2.26873
2.26443
2.26171
2.25706
2.25393
2.24912
2.24625
2.24186
2.23948
2.23538
2.23323
2.22939
2.22747
2.2238
2.22194
2.21828
2.21631
2.21263
2.21035
2.20665
2.20422
2.20036
2.19785
2.19384
2.1912
2.18699
2.18414
2.17978
2.17663
2.17211
2.16852
2.16372
2.15957
2.15435
2.14964
2.14384
2.13862
2.13231
2.1268
2.12017
2.11443
2.10772
2.10181
2.09523
2.08937
2.08329
2.07808
2.07351
2.07086
2.25521
2.20367
2.15866
2.11956
2.09164
2.07087
2.05764
2.05008
2.04645
2.04748
2.05115
2.05932
2.06615
2.08033
2.09032
2.11073
2.1239
2.15063
2.16794
2.20271
2.22822
2.27163
2.30362
2.35159
2.39472
2.447
2.46121
2.44759
2.40532
2.35299
2.30091
2.25601
2.226
2.20154
2.19019
2.18465
2.19015
2.20243
2.21181
2.22301
2.22847
2.23371
2.23526
2.2371
2.23694
2.23643
2.23518
2.23397
2.23137
2.2294
2.2262
2.22393
2.2206
2.21861
2.2153
2.21292
2.20932
2.2069
2.2033
2.20144
2.19806
2.19637
2.19298
2.19121
2.18764
2.18572
2.18188
2.17958
2.17562
2.17293
2.16882
2.16582
2.16155
2.15832
2.15392
2.15062
2.14622
2.14285
2.13847
2.13502
2.13062
2.12707
2.1225
2.11873
2.1138
2.10968
2.10421
2.09964
2.09376
2.08876
2.08263
2.07729
2.07103
2.06557
2.05935
2.05409
2.04821
2.04373
2.03916
2.0373
2.24945
2.2035
2.1604
2.1214
2.0897
2.06528
2.04651
2.03395
2.02488
2.02013
2.01772
2.01813
2.02033
2.02605
2.03061
2.0412
2.04852
2.06442
2.0764
2.10183
2.12235
2.1561
2.18553
2.23305
2.2901
2.34804
2.36542
2.34994
2.31505
2.27176
2.22547
2.18548
2.15261
2.13494
2.12007
2.11425
2.11214
2.11946
2.13078
2.14623
2.15945
2.17051
2.17828
2.18343
2.18712
2.18852
2.19016
2.18984
2.18919
2.18843
2.18689
2.18538
2.18349
2.18191
2.17937
2.17798
2.1751
2.17317
2.1701
2.16822
2.16517
2.1635
2.16056
2.15898
2.15582
2.15403
2.15048
2.14822
2.14426
2.14157
2.13725
2.13422
2.1297
2.12642
2.12181
2.11837
2.1138
2.11032
2.10589
2.1024
2.09806
2.09458
2.09023
2.08669
2.08216
2.07839
2.07347
2.06925
2.06396
2.05924
2.05358
2.04843
2.0425
2.03705
2.03101
2.02549
2.01969
2.01462
2.01001
2.00732
2.2463
2.2029
2.16178
2.12408
2.09038
2.06314
2.04096
2.02412
2.01129
2.00218
1.9957
1.99181
1.98963
1.98943
1.99077
1.995
1.99908
2.0088
2.01827
2.03817
2.05769
2.08448
2.12059
2.17334
2.24826
2.3012
2.31522
2.29484
2.26625
2.22675
2.18573
2.14304
2.11352
2.08968
2.07676
2.06704
2.06355
2.06278
2.06819
2.08002
2.09516
2.11029
2.12346
2.13286
2.14034
2.1439
2.14728
2.14811
2.14939
2.14932
2.14899
2.14858
2.14771
2.14685
2.14574
2.14482
2.14311
2.1421
2.14009
2.13894
2.13663
2.1352
2.13243
2.13084
2.12764
2.12567
2.12188
2.11935
2.115
2.1119
2.10714
2.10361
2.09868
2.09498
2.0901
2.08643
2.08174
2.07818
2.07371
2.0703
2.06604
2.0628
2.05871
2.05553
2.05145
2.04812
2.04384
2.04008
2.03548
2.03125
2.02625
2.02156
2.01618
2.0112
2.00559
2.00058
1.99505
1.99051
1.98597
1.98375
2.23546
2.19943
2.16199
2.12561
2.09302
2.06351
2.03917
2.01928
2.00325
1.99086
1.98118
1.9738
1.96863
1.96471
1.96313
1.96239
1.96443
1.97029
1.98218
1.99599
2.01867
2.04381
2.09119
2.16143
2.24545
2.28622
2.28873
2.26918
2.23884
2.20262
2.15901
2.12118
2.09006
2.06564
2.04792
2.03586
2.02787
2.02395
2.02182
2.02518
2.03401
2.04784
2.06428
2.07921
2.09212
2.1008
2.10809
2.1118
2.11533
2.11675
2.11828
2.11928
2.11955
2.11992
2.11991
2.11976
2.11928
2.11865
2.11723
2.11627
2.11433
2.11302
2.11031
2.10849
2.10512
2.10278
2.09876
2.09586
2.09128
2.08786
2.08279
2.07889
2.07348
2.06926
2.06375
2.05952
2.05419
2.05015
2.04506
2.04123
2.03637
2.03277
2.02818
2.0248
2.02047
2.01714
2.0129
2.00944
2.00511
2.00134
1.99674
1.99264
1.98768
1.9833
1.97802
1.97351
1.96818
1.96395
1.95948
1.95735
2.22013
2.18824
2.15629
2.12475
2.09302
2.06487
2.03881
2.01754
1.99904
1.98408
1.972
1.96206
1.95432
1.94837
1.94388
1.94206
1.94132
1.9473
1.95956
1.97406
1.99618
2.03269
2.09434
2.1878
2.26116
2.28363
2.27358
2.25312
2.22344
2.18511
2.14413
2.1101
2.07915
2.05396
2.0325
2.0154
2.00384
1.99552
1.99213
1.99009
1.99177
1.9987
2.01007
2.02541
2.04143
2.05544
2.06702
2.07524
2.08105
2.085
2.08733
2.08938
2.09034
2.09175
2.09234
2.09276
2.09277
2.09253
2.09184
2.09091
2.08923
2.08809
2.0858
2.0838
2.0805
2.07782
2.0736
2.07022
2.06537
2.06152
2.05616
2.05191
2.04621
2.04178
2.03599
2.0316
2.026
2.02184
2.01656
2.01266
2.00771
2.00408
1.99948
1.99612
1.99183
1.98861
1.98448
1.9813
1.97716
1.97387
1.96956
1.96606
1.96147
1.95769
1.95283
1.94881
1.94386
1.93992
1.93568
1.93359
2.21687
2.18252
2.14971
2.11839
2.09038
2.06385
2.03866
2.01571
1.99687
1.97951
1.96574
1.95386
1.94393
1.93639
1.93017
1.92731
1.9277
1.93492
1.94722
1.96433
1.99307
2.04475
2.13306
2.23107
2.27678
2.28061
2.26635
2.24434
2.21261
2.17445
2.13746
2.10585
2.0753
2.05019
2.02626
2.00766
1.99185
1.97997
1.9719
1.96648
1.96517
1.96366
1.9674
1.97599
1.98904
2.00485
2.02029
2.03361
2.04415
2.0518
2.05729
2.06087
2.0637
2.06554
2.0671
2.06827
2.06916
2.06948
2.06929
2.06865
2.06724
2.06623
2.06407
2.06218
2.05872
2.05569
2.05126
2.04758
2.04258
2.03835
2.03275
2.02817
2.0222
2.01749
2.01132
2.00659
2.00046
1.99587
1.99001
1.98568
1.98022
1.97626
1.97126
1.9677
1.96316
1.95991
1.95571
1.95269
1.94869
1.9457
1.94171
1.93859
1.93445
1.93111
1.92674
1.92317
1.91866
1.9151
1.91117
1.90922
2.2121
2.18079
2.14855
2.11719
2.08685
2.05953
2.03635
2.0141
1.99408
1.97746
1.9613
1.94939
1.93749
1.92899
1.92194
1.91879
1.9221
1.93154
1.94526
1.96869
2.01086
2.09191
2.19567
2.26658
2.28401
2.27676
2.26
2.2368
2.20208
2.167
2.13498
2.10512
2.07732
2.05238
2.02886
2.00844
1.989
1.9733
1.95929
1.95105
1.94338
1.94113
1.93843
1.93939
1.94506
1.9546
1.96951
1.98536
2.00076
2.01341
2.02339
2.03061
2.03558
2.0396
2.04203
2.04458
2.0457
2.04736
2.04753
2.04724
2.0462
2.04517
2.0432
2.04149
2.03795
2.03462
2.02994
2.02609
2.0208
2.0164
2.01067
2.00595
1.99992
1.99498
1.98873
1.98372
1.97745
1.97257
1.9665
1.96188
1.95616
1.95186
1.94658
1.94267
1.93786
1.93438
1.93003
1.92701
1.92305
1.92029
1.91648
1.91372
1.90985
1.9069
1.90285
1.89964
1.89551
1.89225
1.88868
1.88678
2.19185
2.17262
2.14537
2.11596
2.08649
2.05847
2.03222
2.01017
1.98953
1.97243
1.95729
1.9435
1.93341
1.92323
1.91864
1.91723
1.92459
1.93477
1.95447
1.99053
2.06052
2.16433
2.25195
2.28348
2.28295
2.27148
2.25323
2.22597
2.19422
2.16381
2.13517
2.10772
2.08189
2.05707
2.03341
2.01116
1.99047
1.97179
1.95505
1.94087
1.92997
1.92243
1.9176
1.91601
1.91482
1.91793
1.92609
1.93908
1.95494
1.97215
1.98655
1.99889
2.00812
2.01474
2.01957
2.02242
2.02507
2.0259
2.02693
2.02657
2.02549
2.02421
2.02255
2.02081
2.01735
2.0139
2.00948
2.00537
1.99998
1.99521
1.98927
1.98433
1.97807
1.97297
1.96644
1.96131
1.9547
1.94966
1.94321
1.93837
1.93224
1.92771
1.922
1.91784
1.91254
1.90881
1.90408
1.90089
1.89673
1.894
1.8903
1.88782
1.88433
1.88184
1.87833
1.87567
1.8721
1.86937
1.8663
1.86468
2.17279
2.15221
2.1343
2.1114
2.08507
2.05828
2.03236
2.00858
1.98766
1.96795
1.95287
1.93762
1.92769
1.91844
1.91597
1.92034
1.93087
1.94901
1.97902
2.04033
2.1387
2.23695
2.28098
2.28658
2.27986
2.26497
2.24457
2.2167
2.1896
2.163
2.13712
2.11149
2.08679
2.06176
2.03816
2.01477
1.99327
1.97261
1.95438
1.93762
1.92364
1.91228
1.9037
1.89894
1.89608
1.89555
1.89626
1.90132
1.91181
1.9262
1.94292
1.95858
1.97292
1.98361
1.9914
1.99746
2.00043
2.0025
2.00403
2.00366
2.00248
2.0011
1.99942
1.9975
1.99412
1.99075
1.98644
1.9824
1.97716
1.97249
1.96673
1.96184
1.95566
1.95052
1.94405
1.9389
1.93241
1.92737
1.92094
1.91603
1.90973
1.90501
1.89896
1.89455
1.88888
1.88493
1.87988
1.87651
1.8721
1.86927
1.86542
1.86305
1.85961
1.85747
1.85426
1.85212
1.84905
1.8469
1.84439
1.84312
2.16264
2.13773
2.11568
2.09614
2.07786
2.05579
2.03214
2.00861
1.98756
1.96758
1.95054
1.93608
1.92402
1.91875
1.92012
1.92935
1.94476
1.97144
2.02661
2.11593
2.22097
2.27723
2.28819
2.28407
2.27231
2.25698
2.2331
2.20854
2.18473
2.16068
2.13735
2.11303
2.08866
2.06442
2.04081
2.01778
1.99599
1.97515
1.9559
1.93811
1.92214
1.90822
1.89677
1.88747
1.88172
1.8781
1.8764
1.87602
1.8784
1.88613
1.89726
1.9133
1.9297
1.944
1.9571
1.96606
1.97207
1.97667
1.97788
1.97898
1.97791
1.97649
1.97489
1.97302
1.9703
1.96726
1.96335
1.95931
1.95425
1.94949
1.94386
1.93888
1.93286
1.92757
1.92116
1.91578
1.90927
1.90401
1.8975
1.8924
1.88596
1.8811
1.87485
1.87031
1.86445
1.86045
1.85515
1.85171
1.84697
1.8441
1.83997
1.83765
1.83413
1.83223
1.8292
1.82754
1.82486
1.82338
1.82138
1.82065
2.15688
2.13069
2.10664
2.08369
2.06292
2.04385
2.02614
2.00634
1.98673
1.96776
1.95052
1.93693
1.92592
1.9248
1.93205
1.94447
1.96832
2.01776
2.10005
2.20364
2.26823
2.28524
2.28272
2.27489
2.26069
2.24103
2.21952
2.19897
2.17783
2.15675
2.1344
2.1122
2.0892
2.06681
2.04382
2.02199
2.00019
1.97971
1.95989
1.94134
1.92388
1.90791
1.89382
1.88134
1.87165
1.86385
1.86002
1.85694
1.85627
1.85648
1.86081
1.87035
1.88347
1.89929
1.91468
1.92743
1.93875
1.94527
1.95049
1.9522
1.95311
1.95184
1.95026
1.94871
1.94643
1.94354
1.93973
1.93584
1.93119
1.92666
1.92132
1.91628
1.91041
1.90509
1.89887
1.89347
1.88709
1.8818
1.87536
1.87023
1.86374
1.85876
1.8523
1.84764
1.84158
1.83743
1.8319
1.82829
1.82332
1.82024
1.8159
1.81338
1.80975
1.8078
1.80486
1.80342
1.80105
1.80004
1.79856
1.79823
2.139
2.12175
2.10101
2.07957
2.05804
2.03768
2.01819
1.99962
1.98268
1.96626
1.95135
1.93918
1.93418
1.93919
1.95099
1.97215
2.01608
2.09237
2.19298
2.25932
2.28165
2.28121
2.27479
2.26281
2.24552
2.22698
2.20908
2.19123
2.17266
2.15334
2.13294
2.11212
2.09041
2.06904
2.04698
2.02597
2.00423
1.98385
1.96326
1.94432
1.92574
1.90877
1.89268
1.87848
1.86555
1.85541
1.84709
1.84177
1.83852
1.83655
1.83607
1.83797
1.84474
1.85546
1.86873
1.88402
1.89705
1.90901
1.91708
1.92319
1.92563
1.92659
1.92532
1.92399
1.92204
1.91963
1.91613
1.91245
1.90812
1.90379
1.89872
1.89386
1.88828
1.88323
1.87735
1.87216
1.86604
1.8608
1.85453
1.84933
1.8429
1.83775
1.83136
1.82654
1.82043
1.81604
1.81033
1.80645
1.80121
1.79791
1.79329
1.79062
1.78673
1.78474
1.78164
1.78031
1.77801
1.77731
1.77619
1.77613
2.11842
2.10606
2.08633
2.0678
2.05013
2.03058
2.01254
1.99454
1.9775
1.96296
1.95079
1.9456
1.94898
1.9611
1.98082
2.02195
2.09256
2.18871
2.25739
2.28225
2.2819
2.27606
2.26527
2.24906
2.23302
2.2175
2.20243
2.18653
2.16915
2.15095
2.13146
2.1117
2.09088
2.07023
2.04845
2.02758
2.00584
1.98565
1.96506
1.94599
1.92697
1.90925
1.89255
1.877
1.86315
1.85049
1.83978
1.83119
1.82465
1.82082
1.81766
1.81686
1.81637
1.81995
1.82821
1.83897
1.85241
1.8654
1.87778
1.88711
1.89395
1.89759
1.89881
1.8981
1.89659
1.89472
1.89209
1.88861
1.88461
1.88052
1.876
1.8715
1.86639
1.8615
1.85591
1.85085
1.8449
1.83973
1.83349
1.82829
1.82192
1.81693
1.81062
1.80588
1.79972
1.79533
1.78949
1.78551
1.78014
1.77661
1.7719
1.76892
1.76504
1.76275
1.75979
1.75835
1.75632
1.75584
1.75522
1.75525
2.10512
2.09538
2.08012
2.05982
2.04096
2.02333
2.00528
1.98901
1.97395
1.96135
1.95493
1.95766
1.97072
1.99003
2.0298
2.0976
2.19015
2.25704
2.28217
2.28247
2.27745
2.2671
2.25178
2.2366
2.22255
2.20965
2.19554
2.18107
2.1644
2.14752
2.12859
2.10974
2.08917
2.0691
2.04769
2.02743
2.00615
1.98641
1.96584
1.94697
1.92772
1.91011
1.89301
1.87671
1.86231
1.84773
1.83642
1.82416
1.81615
1.80769
1.80306
1.79918
1.79655
1.79516
1.79573
1.80052
1.80863
1.81971
1.83209
1.84392
1.85438
1.86186
1.86687
1.86861
1.86856
1.86716
1.86535
1.86301
1.85961
1.85578
1.85141
1.84711
1.84224
1.83768
1.83234
1.82755
1.8218
1.81683
1.8107
1.80573
1.79954
1.79476
1.78861
1.78406
1.77802
1.77374
1.76796
1.76405
1.75871
1.7552
1.75057
1.74748
1.7438
1.74131
1.73866
1.73713
1.73553
1.73534
1.7355
1.73548
2.07827
2.07502
2.06745
2.05161
2.03469
2.01671
2.00045
1.98331
1.97105
1.96373
1.96593
1.97938
1.99877
2.03898
2.10533
2.19529
2.25989
2.28463
2.28452
2.27906
2.26779
2.25193
2.23706
2.22448
2.21257
2.20081
2.18759
2.17362
2.15777
2.14139
2.12325
2.10492
2.08511
2.06557
2.04495
2.02512
2.00452
1.98513
1.96514
1.94665
1.9277
1.91042
1.89282
1.87693
1.86124
1.84683
1.83351
1.82057
1.81035
1.79913
1.79223
1.78405
1.78029
1.77517
1.77324
1.77126
1.7726
1.77777
1.78625
1.79693
1.80836
1.81901
1.82764
1.83363
1.83685
1.83764
1.83676
1.8356
1.83351
1.83072
1.82655
1.82241
1.8177
1.81337
1.80835
1.80383
1.7984
1.79366
1.78793
1.78317
1.77723
1.77254
1.7665
1.76198
1.75604
1.75171
1.74608
1.74191
1.73684
1.73288
1.72859
1.72506
1.72158
1.71896
1.71626
1.71491
1.71354
1.7137
1.71485
1.71445
2.05136
2.0534
2.04517
2.03707
2.02376
2.0103
1.99615
1.98494
1.97399
1.97583
1.98852
2.00765
2.04789
2.11352
2.20092
2.26142
2.28408
2.2831
2.27719
2.26478
2.24751
2.23255
2.22063
2.21011
2.19959
2.18837
2.1758
2.16215
2.14707
2.13103
2.11387
2.09605
2.0776
2.05868
2.03963
2.02018
2.00104
1.98177
1.96296
1.94452
1.9264
1.90927
1.89205
1.87647
1.86027
1.84628
1.83126
1.81881
1.8055
1.79418
1.78349
1.77341
1.76588
1.75831
1.75367
1.74799
1.74649
1.74434
1.74635
1.75183
1.76073
1.77134
1.78208
1.79181
1.79925
1.80401
1.80616
1.80626
1.80524
1.80381
1.80131
1.79789
1.79362
1.78954
1.78479
1.78053
1.7754
1.77106
1.76567
1.76126
1.75571
1.7512
1.74565
1.74106
1.73568
1.73114
1.72604
1.72171
1.71695
1.71304
1.7087
1.70543
1.70179
1.69927
1.69683
1.69525
1.69463
1.69495
1.69689
1.69626
2.03649
2.0362
2.03186
2.01974
2.00564
1.99341
1.98524
1.98125
1.98487
2.00012
2.02004
2.06196
2.12851
2.21387
2.27043
2.28839
2.28597
2.27837
2.26376
2.24486
2.22932
2.21785
2.20752
2.19819
2.18769
2.17685
2.16426
2.15119
2.13649
2.12137
2.10495
2.08812
2.07044
2.05235
2.03404
2.01543
1.99718
1.97867
1.96085
1.94285
1.92562
1.90838
1.89187
1.87563
1.85991
1.84469
1.82982
1.81575
1.80149
1.78892
1.77544
1.76448
1.75269
1.74381
1.73497
1.72864
1.72224
1.71837
1.71637
1.71634
1.71918
1.72534
1.73485
1.74558
1.75606
1.765
1.7715
1.77533
1.77679
1.77651
1.77561
1.77412
1.77107
1.76743
1.76264
1.75848
1.75342
1.74918
1.74398
1.7396
1.73421
1.72972
1.72424
1.71976
1.71437
1.70997
1.70489
1.70061
1.69611
1.69203
1.68829
1.68465
1.68184
1.67904
1.67743
1.67615
1.67634
1.67715
1.67947
1.67907
1.98156
2.02061
2.01974
2.01327
2.00118
1.98732
1.97968
1.98599
2.00607
2.02862
2.0744
2.14561
2.2297
2.28128
2.29585
2.29214
2.28092
2.26464
2.24475
2.22931
2.21695
2.20748
2.19795
2.18855
2.17779
2.16654
2.15397
2.14083
2.1266
2.1118
2.0961
2.07984
2.06303
2.04578
2.02839
2.01065
1.99299
1.97517
1.95753
1.93995
1.92273
1.90561
1.88904
1.87242
1.85654
1.84047
1.82501
1.80962
1.79487
1.78049
1.76677
1.75395
1.74176
1.73083
1.72081
1.71234
1.705
1.6986
1.69363
1.69117
1.69076
1.69208
1.6966
1.70412
1.71427
1.72518
1.73521
1.74345
1.74902
1.75194
1.75269
1.75219
1.7511
1.74875
1.74504
1.7408
1.73628
1.73177
1.72723
1.72264
1.71806
1.71331
1.70867
1.70381
1.69916
1.69437
1.6898
1.68526
1.6809
1.67683
1.67289
1.66958
1.66643
1.66431
1.66255
1.66234
1.66294
1.66417
1.66669
1.66715
1.859
1.98763
2.0036
2.0024
1.99537
1.98841
1.98877
2.00379
2.03272
2.08349
2.16077
2.24619
2.29311
2.30325
2.29809
2.28443
2.26434
2.24375
2.22744
2.21488
2.20491
2.19596
2.18676
2.17693
2.1661
2.15453
2.14199
2.12883
2.11481
2.10014
2.08472
2.06876
2.05227
2.03549
2.01838
2.00104
1.98368
1.96611
1.94891
1.93152
1.91466
1.89766
1.88119
1.86478
1.84886
1.83322
1.81819
1.80343
1.78922
1.77537
1.76199
1.74918
1.73665
1.72514
1.71383
1.7042
1.69506
1.6878
1.68062
1.67523
1.67145
1.67046
1.67086
1.67313
1.67859
1.68683
1.69723
1.70768
1.71706
1.7241
1.72867
1.73052
1.73048
1.72987
1.72811
1.7254
1.72116
1.71689
1.71232
1.70795
1.70341