/*--------------------------------*- C++ -*----------------------------------*\
| =========                 |                                                 |
| \\      /  F ield         | OpenFOAM: The Open Source CFD Toolbox           |
|  \\    /   O peration     | Version:  2412                                  |
|   \\  /    A nd           | Website:  www.openfoam.com                      |
|    \\/     M anipulation  |                                                 |
\*---------------------------------------------------------------------------*/
FoamFile
{
    version     2.0;
    format      ascii;
    arch        "LSB;label=32;scalar=64";
    class       volVectorField;
    location    "5.5";
    object      U;
}
// * * * * * * * * * * * * * * * * * * * * * * * * * * * * * * * * * * * * * //

dimensions      [0 1 -1 0 0 0 0];

internalField   nonuniform List<vector> 
5250
(
(3 1.17924e-08 0)
(2.99999 9.2249e-08 0)
(2.99996 2.83295e-07 0)
(2.99991 8.63056e-07 0)
(2.99976 2.04299e-06 0)
(2.99948 5.57801e-06 0)
(2.99857 1.23364e-05 0)
(2.99705 3.47805e-05 0)
(2.99106 7.27709e-05 0)
(2.98172 0.000224103 0)
(2.9431 0.000465749 0)
(2.8579 0.00156103 0)
(2.60339 0.00368702 0)
(1.78702 0.0120456 0)
(0.855831 0.0302628 0)
(0.43127 0.026885 0)
(0.519722 0.025967 0)
(0.540546 0.0272694 0)
(0.482569 0.0286734 0)
(0.391154 0.0302318 0)
(0.309824 0.0320886 0)
(0.244331 0.0341528 0)
(0.178445 0.0362372 0)
(0.104914 0.0383876 0)
(0.0430984 0.0402843 0)
(3 3.3409e-08 0)
(2.99999 2.59819e-07 0)
(2.99996 7.9816e-07 0)
(2.99991 2.4212e-06 0)
(2.99977 5.68512e-06 0)
(2.99949 1.57354e-05 0)
(2.9986 3.31446e-05 0)
(2.9971 0.000102115 0)
(2.99122 0.000193808 0)
(2.98205 0.000692143 0)
(2.94417 0.00137261 0)
(2.86076 0.00482405 0)
(2.61125 0.0114663 0)
(1.80959 0.0374543 0)
(0.868559 0.0920918 0)
(0.427584 0.076987 0)
(0.520124 0.0705679 0)
(0.542608 0.0717839 0)
(0.484598 0.0734837 0)
(0.393433 0.0758013 0)
(0.31206 0.0783681 0)
(0.245966 0.0809672 0)
(0.179171 0.0831985 0)
(0.104503 0.0849834 0)
(0.0419696 0.0851002 0)
(3 5.33223e-08 0)
(2.99999 4.13738e-07 0)
(2.99996 1.27111e-06 0)
(2.99991 3.85034e-06 0)
(2.99977 9.00838e-06 0)
(2.9995 2.51236e-05 0)
(2.99864 5.16044e-05 0)
(2.99719 0.000166724 0)
(2.99155 0.000298658 0)
(2.98271 0.00116153 0)
(2.94639 0.00224184 0)
(2.86692 0.00808989 0)
(2.62827 0.0193541 0)
(1.86032 0.0634083 0)
(0.899491 0.158003 0)
(0.425613 0.130809 0)
(0.525783 0.118448 0)
(0.551713 0.120799 0)
(0.493882 0.124462 0)
(0.40312 0.129751 0)
(0.321275 0.13477 0)
(0.253903 0.139687 0)
(0.185402 0.14416 0)
(0.1084 0.147581 0)
(0.043159 0.147459 0)
(3 7.21847e-08 0)
(2.99999 5.60777e-07 0)
(2.99996 1.7227e-06 0)
(2.99992 5.22387e-06 0)
(2.99978 1.22454e-05 0)
(2.99952 3.40788e-05 0)
(2.99871 7.05639e-05 0)
(2.99731 0.000225436 0)
(2.99204 0.000404499 0)
(2.98368 0.00156563 0)
(2.94969 0.0030149 0)
(2.87606 0.0108605 0)
(2.65369 0.0261037 0)
(1.93832 0.0854547 0)
(0.949716 0.217712 0)
(0.428986 0.183254 0)
(0.538678 0.165262 0)
(0.569696 0.168526 0)
(0.512141 0.174394 0)
(0.421583 0.183607 0)
(0.338291 0.191781 0)
(0.268821 0.19964 0)
(0.197595 0.207203 0)
(0.116451 0.21329 0)
(0.0462217 0.213647 0)
(3 8.66139e-08 0)
(2.99999 6.73641e-07 0)
(2.99997 2.06933e-06 0)
(2.99992 6.27953e-06 0)
(2.9998 1.47536e-05 0)
(2.99955 4.08898e-05 0)
(2.9988 8.56708e-05 0)
(2.99747 0.000268278 0)
(2.99266 0.000486019 0)
(2.98491 0.00184384 0)
(2.95383 0.00355428 0)
(2.8875 0.0127331 0)
(2.68568 0.0306817 0)
(2.03941 0.100467 0)
(1.02092 0.264798 0)
(0.446027 0.238259 0)
(0.561478 0.217713 0)
(0.59778 0.219176 0)
(0.54094 0.225378 0)
(0.450447 0.238121 0)
(0.364345 0.249789 0)
(0.291541 0.26119 0)
(0.216449 0.272568 0)
(0.129483 0.282317 0)
(0.0517344 0.284149 0)
(3 9.28332e-08 0)
(2.99999 7.2083e-07 0)
(2.99997 2.21655e-06 0)
(2.99993 6.70718e-06 0)
(2.99981 1.58139e-05 0)
(2.99958 4.31102e-05 0)
(2.9989 9.29262e-05 0)
(2.99764 0.000274863 0)
(2.99335 0.000517626 0)
(2.98627 0.00186927 0)
(2.95844 0.00356815 0)
(2.90014 0.0127841 0)
(2.72144 0.0311551 0)
(2.15789 0.0999678 0)
(1.12214 0.267753 0)
(0.498506 0.279463 0)
(0.601546 0.270207 0)
(0.638117 0.271131 0)
(0.582547 0.278011 0)
(0.492418 0.294728 0)
(0.402191 0.310815 0)
(0.324474 0.32674 0)
(0.24386 0.343407 0)
(0.148653 0.358904 0)
(0.0603575 0.364562 0)
(3 9.18538e-08 0)
(2.99999 7.10287e-07 0)
(2.99997 2.18634e-06 0)
(2.99993 6.57627e-06 0)
(2.99983 1.55262e-05 0)
(2.99961 4.14374e-05 0)
(2.999 9.15476e-05 0)
(2.99782 0.000252932 0)
(2.99398 0.000503275 0)
(2.98747 0.00167746 0)
(2.96263 0.00315498 0)
(2.91184 0.0110578 0)
(2.75295 0.0279405 0)
(2.25627 0.0793733 0)
(1.23753 0.227321 0)
(0.542578 0.309631 0)
(0.628594 0.325703 0)
(0.667546 0.323176 0)
(0.620958 0.331287 0)
(0.537164 0.352688 0)
(0.446127 0.375243 0)
(0.365396 0.397438 0)
(0.2804 0.421398 0)
(0.176595 0.445963 0)
(0.0742622 0.46056 0)
(3 9.39198e-08 0)
(2.99999 7.24211e-07 0)
(2.99997 2.23022e-06 0)
(2.99994 6.67792e-06 0)
(2.99984 1.57392e-05 0)
(2.99965 4.15356e-05 0)
(2.99908 9.21162e-05 0)
(2.99799 0.000245314 0)
(2.99453 0.000504991 0)
(2.98849 0.00155317 0)
(2.96603 0.00293039 0)
(2.92184 0.00988434 0)
(2.77387 0.0246211 0)
(2.33158 0.0651058 0)
(1.37028 0.196884 0)
(0.599781 0.353088 0)
(0.640276 0.381673 0)
(0.674479 0.37517 0)
(0.647867 0.386056 0)
(0.577947 0.409748 0)
(0.491729 0.440504 0)
(0.411906 0.471913 0)
(0.326001 0.506931 0)
(0.215843 0.546103 0)
(0.0968224 0.581383 0)
(3 1.09476e-07 0)
(2.99999 8.3906e-07 0)
(2.99998 2.58787e-06 0)
(2.99994 7.72273e-06 0)
(2.99986 1.82966e-05 0)
(2.99968 4.79628e-05 0)
(2.99917 0.000107666 0)
(2.99816 0.000276418 0)
(2.99507 0.000606902 0)
(2.9895 0.00161125 0)
(2.96939 0.00343426 0)
(2.9307 0.00963254 0)
(2.79525 0.0238445 0)
(2.40629 0.0655721 0)
(1.52356 0.182381 0)
(0.683515 0.396138 0)
(0.647182 0.420175 0)
(0.677299 0.419075 0)
(0.66815 0.437039 0)
(0.614122 0.463686 0)
(0.539205 0.503255 0)
(0.464855 0.547117 0)
(0.383538 0.596577 0)
(0.275225 0.66049 0)
(0.137014 0.741609 0)
(3 5.16644e-08 0)
(2.99999 1.3475e-06 0)
(2.99998 2.73574e-06 0)
(2.99995 1.19733e-05 0)
(2.99987 1.98483e-05 0)
(2.99972 7.70015e-05 0)
(2.99927 0.000109633 0)
(2.9984 0.000470844 0)
(2.99564 0.000505077 0)
(2.99086 0.00276317 0)
(2.97257 0.00190515 0)
(2.93946 0.0167381 0)
(2.81662 0.0116587 0)
(2.47349 0.094967 0)
(1.67117 0.167477 0)
(0.77888 0.437714 0)
(0.651469 0.45166 0)
(0.684202 0.456241 0)
(0.688755 0.48062 0)
(0.649185 0.513903 0)
(0.589977 0.561241 0)
(0.52596 0.617524 0)
(0.458685 0.688423 0)
(0.371698 0.797164 0)
(0.211556 0.996472 0)
(3 9.51392e-08 0)
(2.99999 7.43003e-07 0)
(2.99998 2.28568e-06 0)
(2.99996 6.91198e-06 0)
(2.99991 1.63936e-05 0)
(2.99975 4.36492e-05 0)
(2.99949 9.87076e-05 0)
(2.9985 0.000255346 0)
(2.99697 0.00057638 0)
(2.99068 0.00149545 0)
(2.98067 0.00329546 0)
(2.93949 0.00949451 0)
(2.84861 0.0223935 0)
(2.5723 0.0651567 0)
(1.73578 0.18987 0)
(0.897883 0.471217 0)
(0.656207 0.479649 0)
(0.694746 0.487837 0)
(0.713062 0.515681 0)
(0.686743 0.556645 0)
(0.643492 0.61004 0)
(0.599303 0.677101 0)
(0.566469 0.768234 0)
(0.561271 0.907773 0)
(0.593188 1.1409 0)
(3 1.38514e-07 0)
(2.99999 1.27028e-07 0)
(2.99998 1.80393e-06 0)
(2.99996 1.70065e-06 0)
(2.9999 1.25427e-05 0)
(2.99979 9.00767e-06 0)
(2.99945 8.36952e-05 0)
(2.9988 3.47437e-05 0)
(2.99667 0.000601958 0)
(2.99312 0.000281663 0)
(2.97923 0.00438795 0)
(2.95525 0.00274446 0)
(2.86243 0.0316716 0)
(2.62106 0.0470822 0)
(2.0016 0.195045 0)
(1.02351 0.514367 0)
(0.673649 0.516562 0)
(0.71412 0.522851 0)
(0.743453 0.546698 0)
(0.728931 0.59106 0)
(0.70102 0.648373 0)
(0.679799 0.722611 0)
(0.68291 0.822219 0)
(0.737019 0.959156 0)
(0.869988 1.13379 0)
(3 7.50121e-08 0)
(2.99999 5.85804e-07 0)
(2.99999 1.79954e-06 0)
(2.99997 5.4624e-06 0)
(2.99992 1.28827e-05 0)
(2.99981 3.47259e-05 0)
(2.99952 7.72498e-05 0)
(2.99893 0.000211888 0)
(2.99718 0.000435342 0)
(2.99384 0.00139726 0)
(2.98283 0.00250896 0)
(2.96231 0.00970755 0)
(2.88928 0.0186181 0)
(2.69994 0.0726161 0)
(2.21019 0.17833 0)
(1.18447 0.526378 0)
(0.719576 0.55718 0)
(0.748575 0.568472 0)
(0.782268 0.580098 0)
(0.77833 0.620832 0)
(0.762779 0.678804 0)
(0.761459 0.753308 0)
(0.790297 0.848003 0)
(0.86914 0.96251 0)
(1.02191 1.07282 0)
(3 8.21544e-08 0)
(3 6.4114e-07 0)
(2.99999 1.97028e-06 0)
(2.99997 5.97418e-06 0)
(2.99993 1.41722e-05 0)
(2.99984 3.80129e-05 0)
(2.99959 8.58428e-05 0)
(2.9991 0.00022612 0)
(2.99766 0.000504043 0)
(2.99485 0.00134354 0)
(2.98607 0.0029845 0)
(2.9689 0.0083053 0)
(2.9122 0.0188292 0)
(2.7688 0.0579248 0)
(2.39011 0.146368 0)
(1.38243 0.44542 0)
(0.814313 0.577999 0)
(0.80075 0.609775 0)
(0.825651 0.619257 0)
(0.833994 0.651027 0)
(0.828098 0.704148 0)
(0.838518 0.772506 0)
(0.880736 0.85319 0)
(0.965991 0.941617 0)
(1.1116 1.01476 0)
(3 7.91113e-08 0)
(3 6.17122e-07 0)
(2.99999 1.89822e-06 0)
(2.99998 5.7464e-06 0)
(2.99994 1.36518e-05 0)
(2.99987 3.64588e-05 0)
(2.99967 8.25325e-05 0)
(2.99928 0.00021415 0)
(2.99811 0.00048792 0)
(2.99591 0.00121804 0)
(2.98859 0.00290844 0)
(2.97572 0.00687262 0)
(2.92867 0.0173615 0)
(2.81492 0.0443174 0)
(2.50405 0.117517 0)
(1.58058 0.336598 0)
(0.912708 0.611693 0)
(0.83728 0.64912 0)
(0.858575 0.663258 0)
(0.880332 0.682152 0)
(0.888013 0.725466 0)
(0.90698 0.784085 0)
(0.954613 0.849934 0)
(1.03904 0.916796 0)
(1.17073 0.968995 0)
(3 6.64616e-08 0)
(3 5.1514e-07 0)
(2.99999 1.58659e-06 0)
(2.99998 4.77343e-06 0)
(2.99995 1.13177e-05 0)
(2.9999 2.99586e-05 0)
(2.99974 6.74558e-05 0)
(2.99944 0.000174385 0)
(2.99849 0.000387563 0)
(2.99687 0.00100899 0)
(2.99076 0.00221339 0)
(2.98109 0.00604671 0)
(2.94207 0.0133273 0)
(2.85683 0.0389092 0)
(2.60278 0.0999804 0)
(1.80974 0.296518 0)
(1.06549 0.653156 0)
(0.866789 0.681579 0)
(0.881684 0.696152 0)
(0.913127 0.706318 0)
(0.938166 0.740738 0)
(0.965775 0.789686 0)
(1.01567 0.84386 0)
(1.09619 0.895613 0)
(1.21308 0.934288 0)
(3 5.4458e-08 0)
(3 4.20215e-07 0)
(2.99999 1.29488e-06 0)
(2.99999 3.88056e-06 0)
(2.99996 9.17281e-06 0)
(2.99992 2.41745e-05 0)
(2.99979 5.40415e-05 0)
(2.99954 0.000140844 0)
(2.9988 0.000300991 0)
(2.99743 0.000849488 0)
(2.99276 0.0016507 0)
(2.98507 0.0054769 0)
(2.95489 0.0106315 0)
(2.89124 0.0364451 0)
(2.69694 0.0865737 0)
(2.07691 0.277279 0)
(1.26204 0.679267 0)
(0.918108 0.714831 0)
(0.915257 0.722466 0)
(0.946861 0.727003 0)
(0.983559 0.750755 0)
(1.01739 0.790856 0)
(1.06769 0.836089 0)
(1.14292 0.87741 0)
(1.24609 0.90719 0)
(3 4.77896e-08 0)
(3 3.6928e-07 0)
(3 1.1381e-06 0)
(2.99999 3.41752e-06 0)
(2.99997 8.10388e-06 0)
(2.99994 2.14118e-05 0)
(2.99984 4.81829e-05 0)
(2.99964 0.000124633 0)
(2.99908 0.000275199 0)
(2.998 0.000730317 0)
(2.99459 0.0015397 0)
(2.98863 0.00453008 0)
(2.96698 0.00915952 0)
(2.92358 0.0289755 0)
(2.78684 0.0708417 0)
(2.36886 0.212886 0)
(1.55301 0.579714 0)
(1.03702 0.7237 0)
(0.981627 0.744912 0)
(0.995717 0.752954 0)
(1.03278 0.764056 0)
(1.0692 0.793618 0)
(1.11608 0.830026 0)
(1.18367 0.862937 0)
(1.27422 0.886023 0)
(3 2.6237e-08 0)
(3 3.50959e-07 0)
(3 8.62471e-07 0)
(2.99999 3.15143e-06 0)
(2.99998 6.25572e-06 0)
(2.99995 1.96713e-05 0)
(2.99988 3.74152e-05 0)
(2.99973 0.000114695 0)
(2.99931 0.000212447 0)
(2.99849 0.000673251 0)
(2.99591 0.00113337 0)
(2.99145 0.0041359 0)
(2.97474 0.00569665 0)
(2.9448 0.0257418 0)
(2.83553 0.0401783 0)
(2.53782 0.161706 0)
(1.84489 0.38824 0)
(1.14873 0.739027 0)
(1.02975 0.771493 0)
(1.03554 0.784749 0)
(1.0726 0.786194 0)
(1.11527 0.802382 0)
(1.16066 0.828749 0)
(1.22087 0.854083 0)
(1.2998 0.871509 0)
(3 1.94661e-08 0)
(3 2.63264e-07 0)
(3 6.4387e-07 0)
(2.99999 2.36203e-06 0)
(2.99999 4.66052e-06 0)
(2.99996 1.46851e-05 0)
(2.99992 2.77335e-05 0)
(2.99979 8.50817e-05 0)
(2.99955 0.000158214 0)
(2.99876 0.000492678 0)
(2.99747 0.000876767 0)
(2.99245 0.00301843 0)
(2.98457 0.00466182 0)
(2.9531 0.0198647 0)
(2.88629 0.0310865 0)
(2.68082 0.12798 0)
(2.07413 0.315826 0)
(1.33882 0.755848 0)
(1.07804 0.805335 0)
(1.07081 0.814355 0)
(1.10349 0.811245 0)
(1.1525 0.81379 0)
(1.20004 0.83037 0)
(1.25506 0.84891 0)
(1.32418 0.861944 0)
(3 3.62467e-08 0)
(3 1.31693e-07 0)
(3 6.25353e-07 0)
(3 1.3114e-06 0)
(2.99999 4.32839e-06 0)
(2.99997 8.2239e-06 0)
(2.99994 2.53884e-05 0)
(2.99984 4.6711e-05 0)
(2.99965 0.000146048 0)
(2.99909 0.000252703 0)
(2.99802 0.00088416 0)
(2.99461 0.00134997 0)
(2.98878 0.00571448 0)
(2.96713 0.00835657 0)
(2.92442 0.0377029 0)
(2.78912 0.0725544 0)
(2.37666 0.261102 0)
(1.63016 0.645921 0)
(1.19136 0.806515 0)
(1.13166 0.830966 0)
(1.14471 0.835947 0)
(1.18956 0.830194 0)
(1.23849 0.836159 0)
(1.28881 0.847419 0)
(1.34924 0.855939 0)
(3 2.25559e-08 0)
(3 1.22989e-07 0)
(3 4.57212e-07 0)
(3 1.17332e-06 0)
(2.99999 3.22279e-06 0)
(2.99998 7.38499e-06 0)
(2.99995 1.91195e-05 0)
(2.99989 4.27299e-05 0)
(2.99972 0.000109403 0)
(2.99938 0.000242386 0)
(2.99839 0.000626608 0)
(2.99646 0.00135602 0)
(2.99043 0.00372187 0)
(2.97911 0.00771604 0)
(2.94127 0.0228062 0)
(2.8509 0.0542571 0)
(2.5976 0.152252 0)
(1.89528 0.461026 0)
(1.32342 0.790726 0)
(1.18665 0.840691 0)
(1.18359 0.859841 0)
(1.22026 0.854837 0)
(1.27125 0.848346 0)
(1.31996 0.850631 0)
(1.37388 0.853957 0)
(3 1.35477e-08 0)
(3 1.0543e-07 0)
(3 3.24539e-07 0)
(3 9.78999e-07 0)
(2.99999 2.32139e-06 0)
(2.99999 6.15955e-06 0)
(2.99997 1.3881e-05 0)
(2.99992 3.59353e-05 0)
(2.99981 8.0032e-05 0)
(2.99952 0.000207117 0)
(2.99895 0.000458933 0)
(2.99719 0.00120238 0)
(2.99408 0.00265889 0)
(2.98296 0.00715862 0)
(2.96321 0.0162433 0)
(2.89253 0.044156 0)
(2.71431 0.121857 0)
(2.23927 0.322871 0)
(1.49849 0.78802 0)
(1.24444 0.865033 0)
(1.22233 0.880919 0)
(1.24411 0.878893 0)
(1.29331 0.865284 0)
(1.34574 0.858727 0)
(1.39743 0.856712 0)
(3 1.31892e-08 0)
(3 7.07659e-08 0)
(3 2.64429e-07 0)
(3 6.77944e-07 0)
(3 1.86987e-06 0)
(2.99999 4.2854e-06 0)
(2.99998 1.1148e-05 0)
(2.99995 2.49333e-05 0)
(2.99986 6.41722e-05 0)
(2.9997 0.000142508 0)
(2.99921 0.000368753 0)
(2.9983 0.000809664 0)
(2.99539 0.00216762 0)
(2.99038 0.0046144 0)
(2.97214 0.0132183 0)
(2.93729 0.0295372 0)
(2.82249 0.0854304 0)
(2.50502 0.240087 0)
(1.82594 0.620047 0)
(1.35239 0.860014 0)
(1.27514 0.88816 0)
(1.27826 0.896295 0)
(1.31698 0.884171 0)
(1.36914 0.869931 0)
(1.41989 0.86308 0)
(3 5.15201e-09 0)
(3 6.00749e-08 0)
(3 1.55569e-07 0)
(3 5.43213e-07 0)
(3 1.12435e-06 0)
(2.99999 3.378e-06 0)
(2.99998 6.69577e-06 0)
(2.99996 1.94843e-05 0)
(2.99991 3.81694e-05 0)
(2.99977 0.000110725 0)
(2.9995 0.000214936 0)
(2.99869 0.000634947 0)
(2.99725 0.00119089 0)
(2.99217 0.00381452 0)
(2.98389 0.00658135 0)
(2.95223 0.0239604 0)
(2.88622 0.0454405 0)
(2.68301 0.153552 0)
(2.10237 0.417417 0)
(1.52192 0.83134 0)
(1.32919 0.897537 0)
(1.31365 0.910306 0)
(1.33727 0.90282 0)
(1.38716 0.884067 0)
(1.44014 0.871752 0)
(3 7.94173e-09 0)
(3 3.23376e-08 0)
(3 1.42449e-07 0)
(3 3.18156e-07 0)
(3 9.90348e-07 0)
(3 2.00393e-06 0)
(2.99999 5.82136e-06 0)
(2.99997 1.15135e-05 0)
(2.99994 3.30125e-05 0)
(2.99984 6.46812e-05 0)
(2.99965 0.000186909 0)
(2.99911 0.000357782 0)
(2.99804 0.00108925 0)
(2.99487 0.00193501 0)
(2.98894 0.00672927 0)
(2.96951 0.011207 0)
(2.92862 0.0427577 0)
(2.80654 0.0860443 0)
(2.43371 0.297161 0)
(1.79911 0.695505 0)
(1.4337 0.877905 0)
(1.3688 0.90837 0)
(1.37083 0.915492 0)
(1.40888 0.900761 0)
(1.45998 0.881191 0)
(3 4.71609e-09 0)
(3 2.57042e-08 0)
(3 9.5337e-08 0)
(3 2.44708e-07 0)
(3 6.69144e-07 0)
(3 1.5326e-06 0)
(2.99999 3.94228e-06 0)
(2.99998 8.80628e-06 0)
(2.99996 2.2368e-05 0)
(2.9999 4.964e-05 0)
(2.99975 0.000126111 0)
(2.99944 0.000279243 0)
(2.99856 0.000714595 0)
(2.99685 0.00156972 0)
(2.99164 0.00413936 0)
(2.98165 0.00889663 0)
(2.9498 0.0248692 0)
(2.87474 0.0593232 0)
(2.66309 0.166137 0)
(2.08588 0.482963 0)
(1.57454 0.843146 0)
(1.424 0.908951 0)
(1.40752 0.924786 0)
(1.42854 0.918442 0)
(1.47535 0.896285 0)
(3 2.51543e-09 0)
(3 1.95449e-08 0)
(3 6.02068e-08 0)
(3 1.81023e-07 0)
(3 4.29117e-07 0)
(3 1.13114e-06 0)
(2.99999 2.54598e-06 0)
(2.99999 6.52706e-06 0)
(2.99997 1.45137e-05 0)
(2.99993 3.7051e-05 0)
(2.99984 8.20828e-05 0)
(2.9996 0.000210282 0)
(2.99912 0.000464405 0)
(2.99773 0.00120349 0)
(2.99505 0.00265261 0)
(2.98671 0.0070198 0)
(2.97062 0.0158949 0)
(2.91884 0.0421854 0)
(2.79118 0.113316 0)
(2.44107 0.300752 0)
(1.79505 0.750496 0)
(1.4996 0.902887 0)
(1.44861 0.92979 0)
(1.45362 0.935451 0)
(1.49071 0.918591 0)
(3 2.59935e-09 0)
(3 1.09027e-08 0)
(3 4.71154e-08 0)
(3 1.07249e-07 0)
(3 3.28745e-07 0)
(3 6.77729e-07 0)
(3 1.93767e-06 0)
(2.99999 3.91206e-06 0)
(2.99998 1.1009e-05 0)
(2.99996 2.2109e-05 0)
(2.99989 6.2091e-05 0)
(2.99976 0.000124282 0)
(2.99939 0.000350953 0)
(2.99868 0.000697332 0)
(2.99649 0.00201438 0)
(2.99266 0.00391518 0)
(2.97908 0.0120102 0)
(2.95461 0.0234469 0)
(2.87013 0.0747544 0)
(2.6498 0.183908 0)
(2.13174 0.513693 0)
(1.62915 0.86867 0)
(1.49974 0.932546 0)
(1.48481 0.946818 0)
(1.50385 0.939372 0)
(3 9.27065e-10 0)
(3 9.67368e-09 0)
(3 2.6163e-08 0)
(3 8.7624e-08 0)
(3 1.87664e-07 0)
(3 5.42291e-07 0)
(3 1.11035e-06 0)
(2.99999 3.10283e-06 0)
(2.99999 6.29094e-06 0)
(2.99997 1.74399e-05 0)
(2.99993 3.52276e-05 0)
(2.99984 9.7685e-05 0)
(2.9996 0.000196398 0)
(2.99911 0.000551639 0)
(2.99773 0.00107915 0)
(2.99504 0.0032405 0)
(2.98685 0.00584199 0)
(2.9708 0.0200329 0)
(2.92044 0.0361918 0)
(2.79413 0.129169 0)
(2.46463 0.306195 0)
(1.85534 0.760325 0)
(1.57642 0.918164 0)
(1.52433 0.94737 0)
(1.5263 0.953626 0)
(3 6.38512e-10 0)
(3 6.51095e-09 0)
(3 1.774e-08 0)
(3 5.89993e-08 0)
(3 1.27061e-07 0)
(3 3.65132e-07 0)
(3 7.51578e-07 0)
(3 2.09006e-06 0)
(2.99999 4.26144e-06 0)
(2.99998 1.17582e-05 0)
(2.99996 2.39143e-05 0)
(2.99989 6.5927e-05 0)
(2.99977 0.000133743 0)
(2.99941 0.000370298 0)
(2.99872 0.000746855 0)
(2.99663 0.00210478 0)
(2.99296 0.00417086 0)
(2.98004 0.012376 0)
(2.95684 0.0247077 0)
(2.87697 0.0764927 0)
(2.67121 0.188399 0)
(2.18805 0.51621 0)
(1.70887 0.875807 0)
(1.57619 0.945305 0)
(1.5571 0.960729 0)
(3 7.51631e-10 0)
(3 3.30214e-09 0)
(3 1.3852e-08 0)
(3 3.21915e-08 0)
(3 9.62764e-08 0)
(3 2.01983e-07 0)
(3 5.63345e-07 0)
(3 1.15663e-06 0)
(3 3.17139e-06 0)
(2.99999 6.47972e-06 0)
(2.99997 1.76906e-05 0)
(2.99993 3.60528e-05 0)
(2.99985 9.85141e-05 0)
(2.99962 0.000199904 0)
(2.99917 0.000553088 0)
(2.99789 0.00109251 0)
(2.99539 0.00322524 0)
(2.98791 0.00588089 0)
(2.97307 0.0197349 0)
(2.92782 0.0360131 0)
(2.815 0.125807 0)
(2.52006 0.297263 0)
(1.94595 0.740337 0)
(1.65986 0.91635 0)
(1.59988 0.953065 0)
(3 4.25616e-10 0)
(3 2.31593e-09 0)
(3 8.58764e-09 0)
(3 2.20299e-08 0)
(3 6.01376e-08 0)
(3 1.37527e-07 0)
(3 3.52768e-07 0)
(3 7.86737e-07 0)
(3 1.9894e-06 0)
(2.99999 4.4109e-06 0)
(2.99998 1.11189e-05 0)
(2.99996 2.46066e-05 0)
(2.9999 6.20381e-05 0)
(2.99979 0.000137059 0)
(2.99947 0.000346643 0)
(2.99886 0.000763442 0)
(2.99696 0.00195308 0)
(2.9937 0.00427869 0)
(2.98201 0.0112227 0)
(2.96161 0.0255402 0)
(2.88914 0.0683607 0)
(2.70953 0.182472 0)
(2.27405 0.473818 0)
(1.79068 0.868729 0)
(1.64759 0.947392 0)
(3 1.6478e-10 0)
(3 1.6457e-09 0)
(3 4.52703e-09 0)
(3 1.4924e-08 0)
(3 3.23612e-08 0)
(3 9.19918e-08 0)
(3 1.90335e-07 0)
(3 5.22615e-07 0)
(3 1.07012e-06 0)
(3 2.91127e-06 0)
(2.99999 5.94554e-06 0)
(2.99997 1.6133e-05 0)
(2.99994 3.28776e-05 0)
(2.99986 8.9337e-05 0)
(2.99969 0.000181203 0)
(2.99923 0.000499992 0)
(2.99832 0.000985335 0)
(2.99562 0.00291242 0)
(2.99075 0.00535049 0)
(2.97463 0.0177512 0)
(2.94239 0.0328313 0)
(2.84497 0.11235 0)
(2.57548 0.278993 0)
(2.07196 0.680346 0)
(1.74628 0.901811 0)
(3 1.65155e-10 0)
(3 8.91386e-10 0)
(3 3.3069e-09 0)
(3 8.47741e-09 0)
(3 2.30925e-08 0)
(3 5.27373e-08 0)
(3 1.34775e-07 0)
(3 2.99925e-07 0)
(3 7.54742e-07 0)
(3 1.66896e-06 0)
(2.99999 4.183e-06 0)
(2.99998 9.22975e-06 0)
(2.99997 2.31148e-05 0)
(2.99991 5.09011e-05 0)
(2.99981 0.000127658 0)
(2.99953 0.000280395 0)
(2.99897 0.000709417 0)
(2.99733 0.00153759 0)
(2.99437 0.00405881 0)
(2.9844 0.00843581 0)
(2.96694 0.0239817 0)
(2.90674 0.053253 0)
(2.7563 0.155312 0)
(2.39086 0.401362 0)
(1.90232 0.812868 0)
(3 1.17776e-10 0)
(3 5.37212e-10 0)
(3 2.2058e-09 0)
(3 5.1999e-09 0)
(3 1.52858e-08 0)
(3 3.24367e-08 0)
(3 8.89279e-08 0)
(3 1.84473e-07 0)
(3 4.97159e-07 0)
(3 1.02632e-06 0)
(3 2.75261e-06 0)
(2.99999 5.67685e-06 0)
(2.99998 1.51998e-05 0)
(2.99995 3.1317e-05 0)
(2.99989 8.38739e-05 0)
(2.99971 0.00017232 0)
(2.99937 0.000464468 0)
(2.99841 0.000941882 0)
(2.9965 0.00263376 0)
(2.99107 0.00507272 0)
(2.9798 0.0157697 0)
(2.94781 0.029591 0)
(2.87019 0.0982391 0)
(2.66307 0.229215 0)
(2.17076 0.619627 0)
(3 7.20491e-11 0)
(3 3.29299e-10 0)
(3 1.34933e-09 0)
(3 3.18859e-09 0)
(3 9.3537e-09 0)
(3 1.98915e-08 0)
(3 5.4411e-08 0)
(3 1.13088e-07 0)
(3 3.04083e-07 0)
(3 6.28835e-07 0)
(3 1.68316e-06 0)
(2.99999 3.47697e-06 0)
(2.99999 9.29526e-06 0)
(2.99997 1.91868e-05 0)
(2.99993 5.13272e-05 0)
(2.99984 0.000105753 0)
(2.99961 0.00028395 0)
(2.99914 0.000582933 0)
(2.99782 0.00158007 0)
(2.99528 0.00324359 0)
(2.98752 0.00892271 0)
(2.97297 0.0189125 0)
(2.92651 0.0528048 0)
(2.8142 0.126866 0)
(2.51628 0.353753 0)
(3 2.59967e-11 0)
(3 2.47271e-10 0)
(3 6.9458e-10 0)
(3 2.24099e-09 0)
(3 4.937e-09 0)
(3 1.37559e-08 0)
(3 2.88698e-08 0)
(3 7.77215e-08 0)
(3 1.61343e-07 0)
(3 4.30469e-07 0)
(3 8.91536e-07 0)
(3 2.37201e-06 0)
(2.99999 4.91018e-06 0)
(2.99998 1.30511e-05 0)
(2.99996 2.69969e-05 0)
(2.99991 7.17874e-05 0)
(2.99977 0.000148204 0)
(2.99949 0.000395613 0)
(2.99872 0.000811894 0)
(2.99718 0.0022066 0)
(2.99285 0.00444481 0)
(2.98396 0.0127742 0)
(2.95881 0.0255004 0)
(2.89968 0.0769591 0)
(2.73922 0.183768 0)
(3 1.84478e-11 0)
(3 1.41652e-10 0)
(3 4.37271e-10 0)
(3 1.30173e-09 0)
(3 3.08165e-09 0)
(3 8.01038e-09 0)
(3 1.79639e-08 0)
(3 4.52587e-08 0)
(3 1.00207e-07 0)
(3 2.50519e-07 0)
(3 5.52918e-07 0)
(3 1.37957e-06 0)
(3 3.04176e-06 0)
(2.99999 7.58698e-06 0)
(2.99998 1.67128e-05 0)
(2.99994 4.17193e-05 0)
(2.99988 9.17572e-05 0)
(2.99969 0.000229698 0)
(2.99933 0.000504111 0)
(2.9983 0.00127063 0)
(2.99629 0.00279313 0)
(2.99054 0.0070991 0)
(2.97875 0.0161447 0)
(2.94526 0.0411226 0)
(2.86482 0.103833 0)
(3 1.50261e-11 0)
(3 6.85513e-11 0)
(3 2.80081e-10 0)
(3 6.64434e-10 0)
(3 1.93896e-09 0)
(3 4.1349e-09 0)
(3 1.1233e-08 0)
(3 2.33882e-08 0)
(3 6.23983e-08 0)
(3 1.29183e-07 0)
(3 3.42907e-07 0)
(3 7.08921e-07 0)
(3 1.87857e-06 0)
(2.99999 3.88117e-06 0)
(2.99999 1.02799e-05 0)
(2.99997 2.12144e-05 0)
(2.99992 5.62409e-05 0)
(2.99983 0.000115823 0)
(2.99958 0.000308324 0)
(2.99909 0.000631862 0)
(2.99771 0.00170255 0)
(2.99509 0.00347957 0)
(2.98694 0.00954255 0)
(2.97203 0.0201753 0)
(2.92404 0.0556492 0)
(3 5.21519e-12 0)
(3 4.98327e-11 0)
(3 1.39952e-10 0)
(3 4.5072e-10 0)
(3 9.92513e-10 0)
(3 2.75555e-09 0)
(3 5.77363e-09 0)
(3 1.54752e-08 0)
(3 3.20419e-08 0)
(3 8.50975e-08 0)
(3 1.75672e-07 0)
(3 4.65299e-07 0)
(3 9.59758e-07 0)
(3 2.53948e-06 0)
(2.99999 5.23575e-06 0)
(2.99998 1.38481e-05 0)
(2.99996 2.85236e-05 0)
(2.9999 7.54876e-05 0)
(2.99976 0.000155121 0)
(2.99947 0.000412174 0)
(2.99867 0.000840886 0)
(2.99707 0.00228349 0)
(2.99261 0.00451759 0)
(2.98342 0.0131668 0)
(2.95769 0.0256635 0)
(3 3.44202e-12 0)
(3 2.65332e-11 0)
(3 8.18925e-11 0)
(3 2.42922e-10 0)
(3 5.74636e-10 0)
(3 1.48495e-09 0)
(3 3.32342e-09 0)
(3 8.31077e-09 0)
(3 1.83485e-08 0)
(3 4.54861e-08 0)
(3 1.00064e-07 0)
(3 2.47411e-07 0)
(3 5.43674e-07 0)
(3 1.34291e-06 0)
(3 2.94911e-06 0)
(2.99999 7.28185e-06 0)
(2.99998 1.59762e-05 0)
(2.99994 3.94684e-05 0)
(2.99986 8.64493e-05 0)
(2.99966 0.000214101 0)
(2.99926 0.000467955 0)
(2.99815 0.0011659 0)
(2.99597 0.00255702 0)
(2.98969 0.00639894 0)
(2.97699 0.0146226 0)
(3 2.31265e-12 0)
(3 1.22295e-11 0)
(3 4.53347e-11 0)
(3 1.16057e-10 0)
(3 3.12943e-10 0)
(3 7.11734e-10 0)
(3 1.79121e-09 0)
(3 3.95856e-09 0)
(3 9.77719e-09 0)
(3 2.1437e-08 0)
(3 5.26196e-08 0)
(3 1.15066e-07 0)
(3 2.81596e-07 0)
(3 6.14929e-07 0)
(3 1.50152e-06 0)
(2.99999 3.27444e-06 0)
(2.99998 7.97992e-06 0)
(2.99996 1.73709e-05 0)
(2.9999 4.22719e-05 0)
(2.99978 9.18363e-05 0)
(2.99946 0.000223573 0)
(2.99881 0.000483895 0)
(2.99696 0.00118316 0)
(2.99347 0.00257914 0)
(2.98234 0.00620056 0)
(3 6.02435e-13 0)
(3 7.82825e-12 0)
(3 1.91177e-11 0)
(3 6.94607e-11 0)
(3 1.3529e-10 0)
(3 4.1829e-10 0)
(3 7.71305e-10 0)
(3 2.30466e-09 0)
(3 4.14989e-09 0)
(3 1.2383e-08 0)
(3 2.19011e-08 0)
(3 6.59342e-08 0)
(3 1.14506e-07 0)
(3 3.49323e-07 0)
(3 5.94301e-07 0)
(2.99999 1.84317e-06 0)
(2.99999 3.06008e-06 0)
(2.99997 9.68998e-06 0)
(2.99993 1.55948e-05 0)
(2.99981 5.08154e-05 0)
(2.99959 7.82451e-05 0)
(2.99895 0.000266998 0)
(2.99772 0.000374643 0)
(2.99387 0.00145959 0)
(2.98706 0.00146795 0)
(3 8.48959e-13 0)
(3 2.41091e-12 0)
(3 1.38664e-11 0)
(3 2.48098e-11 0)
(3 9.38344e-11 0)
(3 1.52016e-10 0)
(3 5.31575e-10 0)
(3 8.23678e-10 0)
(3 2.87488e-09 0)
(3 4.29213e-09 0)
(3 1.53221e-08 0)
(3 2.19709e-08 0)
(3 8.11326e-08 0)
(3 1.1093e-07 0)
(3 4.27605e-07 0)
(2.99999 5.51002e-07 0)
(2.99999 2.243e-06 0)
(2.99997 2.66876e-06 0)
(2.99994 1.17034e-05 0)
(2.99984 1.23584e-05 0)
(2.99964 6.07117e-05 0)
(2.99906 5.12802e-05 0)
(2.99796 0.000324468 0)
(2.99438 0.000114281 0)
(2.98827 0.00197467 0)
(3 5.17973e-13 0)
(3 6.93716e-13 0)
(3 7.30616e-12 0)
(3 8.55055e-12 0)
(3 4.89581e-11 0)
(3 5.22956e-11 0)
(3 2.75793e-10 0)
(3 2.68787e-10 0)
(3 1.48275e-09 0)
(3 1.282e-09 0)
(3 7.84324e-09 0)
(3 5.76191e-09 0)
(3 4.11269e-08 0)
(3 2.38806e-08 0)
(3 2.13981e-07 0)
(3 8.46848e-08 0)
(2.99999 1.1044e-06 0)
(2.99997 1.84092e-07 0)
(2.99994 5.66538e-06 0)
(2.99986 -7.41539e-07 0)
(2.99962 2.9161e-05 0)
(2.99917 -1.56347e-05 0)
(2.99777 0.000160073 0)
(2.99523 -0.000199474 0)
(2.98621 0.00112485 0)
(3 1.45764e-13 0)
(3 9.56148e-13 0)
(3 2.95468e-12 0)
(3 8.6176e-12 0)
(3 2.02655e-11 0)
(3 5.15671e-11 0)
(3 1.14254e-10 0)
(3 2.80293e-10 0)
(3 6.11055e-10 0)
(3 1.48378e-09 0)
(3 3.21887e-09 0)
(3 7.79758e-09 0)
(3 1.68882e-08 0)
(3 4.0954e-08 0)
(3 8.86969e-08 0)
(3 2.15892e-07 0)
(2.99999 4.68917e-07 0)
(2.99998 1.14666e-06 0)
(2.99994 2.51304e-06 0)
(2.99986 6.12556e-06 0)
(2.99963 1.36434e-05 0)
(2.99917 3.16044e-05 0)
(2.9978 7.61723e-05 0)
(2.99518 0.00014093 0)
(2.98656 0.00039847 0)
(3 -1.52138e-13 0)
(3 1.37316e-12 0)
(3 1.95154e-13 0)
(3 1.07644e-11 0)
(3 2.49212e-12 0)
(3 6.43817e-11 0)
(3 1.30919e-11 0)
(3 3.65625e-10 0)
(3 5.60197e-11 0)
(3 2.06518e-09 0)
(3 2.27166e-10 0)
(3 1.17389e-08 0)
(3 1.01851e-09 0)
(3 6.74614e-08 0)
(3 6.08716e-09 0)
(3 3.93128e-07 0)
(2.99999 4.65266e-08 0)
(2.99998 2.32872e-06 0)
(2.99994 3.57607e-07 0)
(2.99986 1.39987e-05 0)
(2.99964 1.47316e-06 0)
(2.99922 8.79643e-05 0)
(2.99786 -2.31746e-05 0)
(2.9955 0.000594037 0)
(2.98655 -0.000578728 0)
(3 3.29741e-14 0)
(3 1.93432e-13 0)
(3 6.01684e-13 0)
(3 1.8135e-12 0)
(3 4.25611e-12 0)
(3 1.07786e-11 0)
(3 2.39458e-11 0)
(3 5.86935e-11 0)
(3 1.28276e-10 0)
(3 3.13217e-10 0)
(3 6.82736e-10 0)
(3 1.67541e-09 0)
(3 3.66002e-09 0)
(3 9.04836e-09 0)
(3 1.98317e-08 0)
(3 4.93863e-08 0)
(2.99999 1.08507e-07 0)
(2.99998 2.7242e-07 0)
(2.99995 5.99675e-07 0)
(2.99986 1.52193e-06 0)
(2.99969 3.4046e-06 0)
(2.99915 8.45006e-06 0)
(2.99822 2.08917e-05 0)
(2.99472 4.27818e-05 0)
(2.98919 0.000127085 0)
(3 2.47309e-13 0)
(3 -6.78459e-13 0)
(3 1.92494e-12 0)
(3 -4.567e-12 0)
(3 1.20315e-11 0)
(3 -2.70147e-11 0)
(3 7.01165e-11 0)
(3 -1.56495e-10 0)
(3 4.03892e-10 0)
(3 -9.08614e-10 0)
(3 2.31319e-09 0)
(3 -5.29887e-09 0)
(3 1.31677e-08 0)
(3 -3.11404e-08 0)
(3 7.44136e-08 0)
(3 -1.85577e-07 0)
(2.99999 4.18346e-07 0)
(2.99998 -1.13283e-06 0)
(2.99994 2.36239e-06 0)
(2.99987 -7.13624e-06 0)
(2.99965 1.43727e-05 0)
(2.99924 -5.1684e-05 0)
(2.99789 0.000120663 0)
(2.99559 -0.000457349 0)
(2.98668 0.0011584 0)
(1.21244 1.03577 0)
(1.39565 0.793291 0)
(0.861415 0.442891 0)
(0.0336353 0.362729 0)
(-0.269701 0.0485466 0)
(-0.445795 -0.000815607 0)
(-0.629203 -0.0251753 0)
(-0.717054 -0.0360396 0)
(-0.749729 -0.0188227 0)
(-0.773854 0.00357579 0)
(-0.815299 0.0209591 0)
(-0.867703 0.0237076 0)
(-0.9156 0.0183769 0)
(-0.953069 0.0102733 0)
(-0.985369 0.00492987 0)
(-1.01867 0.00284647 0)
(-1.05356 0.00227064 0)
(-1.08779 0.0023724 0)
(-1.11908 0.00249434 0)
(-1.14661 0.00224388 0)
(-1.17231 0.00160362 0)
(-1.19954 0.00170047 0)
(-1.22492 0.00393071 0)
(-1.24145 0.00469409 0)
(-1.24949 0.00415864 0)
(-1.25308 0.00298983 0)
(-1.24575 0.0016243 0)
(-1.21766 -0.00144778 0)
(-1.167 -0.00603784 0)
(-1.09755 -0.011448 0)
(-1.01538 -0.0163683 0)
(-0.926177 -0.0203534 0)
(-0.833663 -0.0233447 0)
(-0.740191 -0.0255312 0)
(-0.648059 -0.0270007 0)
(-0.559349 -0.0278714 0)
(-0.474867 -0.02864 0)
(-0.39489 -0.0298306 0)
(-0.316402 -0.0328611 0)
(-0.242023 -0.0340936 0)
(-0.171053 -0.0345014 0)
(-0.10239 -0.0360932 0)
(-0.0397371 -0.0412246 0)
(0.0345346 -0.0349681 0)
(0.091288 -0.0308529 0)
(0.148797 -0.0295367 0)
(0.201864 -0.0282719 0)
(0.252076 -0.02696 0)
(0.299578 -0.0257171 0)
(0.3434 -0.0243402 0)
(0.38627 -0.0236107 0)
(0.430168 -0.0235519 0)
(0.472607 -0.0228258 0)
(0.512312 -0.0216574 0)
(0.549983 -0.0206668 0)
(0.585811 -0.0197599 0)
(0.620024 -0.0189558 0)
(0.65257 -0.018189 0)
(0.683509 -0.0174622 0)
(0.712841 -0.0167833 0)
(0.740575 -0.0161411 0)
(0.766741 -0.0155409 0)
(0.791355 -0.0149781 0)
(0.814453 -0.0144488 0)
(0.836095 -0.0139503 0)
(0.856356 -0.01348 0)
(0.875346 -0.0130331 0)
(0.893212 -0.0126104 0)
(0.910123 -0.0122077 0)
(0.926269 -0.0118237 0)
(0.94184 -0.0114482 0)
(0.957023 -0.0110775 0)
(0.971991 -0.0106972 0)
(0.986909 -0.0103075 0)
(1.00193 -0.00990579 0)
(1.01718 -0.00950183 0)
(1.03278 -0.00910146 0)
(1.0488 -0.00870855 0)
(1.06528 -0.00832586 0)
(1.08222 -0.00794622 0)
(1.09961 -0.00757175 0)
(1.1174 -0.00719281 0)
(1.13553 -0.00681275 0)
(1.15396 -0.00642923 0)
(1.1726 -0.00604654 0)
(1.19139 -0.00566476 0)
(1.21028 -0.005288 0)
(1.22919 -0.00491438 0)
(1.24806 -0.00454535 0)
(1.26684 -0.00417539 0)
(1.28544 -0.00380172 0)
(1.30377 -0.00341604 0)
(1.32171 -0.00301456 0)
(1.33908 -0.00258325 0)
(1.35565 -0.00211309 0)
(1.37112 -0.00156879 0)
(1.38504 -0.000966155 0)
(1.39688 -0.000296312 0)
(1.40568 0.000494376 0)
(1.41213 0.00137776 0)
(1.27596 0.949887 0)
(1.41037 0.671193 0)
(1.23374 0.417952 0)
(0.804098 0.404478 0)