/*--------------------------------*- C++ -*----------------------------------*\
| =========                 |                                                 |
| \\      /  F ield         | OpenFOAM: The Open Source CFD Toolbox           |
|  \\    /   O peration     | Version:  2412                                  |
|   \\  /    A nd           | Website:  www.openfoam.com                      |
|    \\/     M anipulation  |                                                 |
\*---------------------------------------------------------------------------*/
FoamFile
{
    version     2.0;
    format      ascii;
    arch        "LSB;label=32;scalar=64";
    class       volScalarField;
    location    "5";
    object      p;
}
// * * * * * * * * * * * * * * * * * * * * * * * * * * * * * * * * * * * * * //

dimensions      [1 -1 -2 0 0 0 0];

internalField   nonuniform List<scalar> 
200
(
1.18594
0.87213
1.07743
0.928453
1.03986
0.980898
1.00845
1.00069
1.00116
1.00184
1.18323
0.847065
1.05443
0.988515
0.998519
0.996961
0.997291
0.998226
0.999317
1.00023
1.17793
0.851195
1.04132
0.983854
0.998986
0.997059
0.997532
0.99876
0.999841
1.00078
1.17526
0.882888
1.04854
0.952921
0.997697
0.98163
0.988821
0.991881
0.995219
0.997672
1.21391
0.931911
1.01444
0.986083
0.995819
0.994891
0.996162
0.997086
0.998136
0.999118
1.17871
0.878596
1.06084
0.956471
1.00671
0.987967
0.99343
0.993486
0.995078
0.996775
1.18097
0.843991
1.04491
0.993668
0.998213
0.997689
0.997594
0.997936
0.998392
0.998865
1.18838
0.858638
1.08994
0.978434
1.00578
1.00129
0.999669
0.999425
1.00027
1.00082
1.18759
0.876202
1.0653
0.900825
1.03602
0.98203
1.00644
0.998648
1.00172
1.00113
1.18716
0.871284
1.07791
0.950819
1.02293
0.982818
1.01159
0.990904
1.00808
0.997326
1.00222
1.00209
1.00219
1.00226
1.00232
1.0024
1.00245
1.00248
1.00248
1.00249
1.00106
1.00157
1.00177
1.00191
1.00215
1.00232
1.00241
1.00247
1.00249
1.00251
1.0014
1.00183
1.00202
1.00218
1.00228
1.00236
1.00242
1.00246
1.00248
1.00248
0.999774
1.00099
1.00155
1.00182
1.00208
1.00226
1.00239
1.00245
1.00247
1.00247
1.00015
1.0008
1.00132
1.0018
1.00211
1.00228
1.00238
1.00242
1.00243
1.00241
0.998843
1.00009
1.00123
1.00171
1.00202
1.00219
1.00229
1.00233
1.00234
1.00232
0.999837
1.00045
1.00121
1.00164
1.00188
1.00201
1.00209
1.00213
1.00218
1.00223
1.00159
1.00124
1.00162
1.00165
1.00181
1.00194
1.00197
1.00195
1.00201
1.00215
1.00184
1.00098
1.0016
1.00141
1.00161
1.00173
1.00188
1.00183
1.00192
1.00215
1.00472
1.00021
1.0021
1.00168
1.0018
1.00187
1.00194
1.00196
1.002
1.00219
)
;

boundaryField
{
    inlet
    {
        type            fixedValue;
        value           uniform 1;
    }
    sym
    {
        type            slip;
    }
    wedge
    {
        type            slip;
    }
    top
    {
        type            slip;
    }
    back
    {
        type            empty;
    }
    front
    {
        type            empty;
    }
    outlet
    {
        type            zeroGradient;
    }
}


// ************************************************************************* //
