/*--------------------------------*- C++ -*----------------------------------*\
| =========                 |                                                 |
| \\      /  F ield         | OpenFOAM: The Open Source CFD Toolbox           |
|  \\    /   O peration     | Version:  2412                                  |
|   \\  /    A nd           | Website:  www.openfoam.com                      |
|    \\/     M anipulation  |                                                 |
\*---------------------------------------------------------------------------*/
FoamFile
{
    version     2.0;
    format      ascii;
    arch        "LSB;label=32;scalar=64";
    class       surfaceScalarField;
    location    "5";
    object      phi;
}
// * * * * * * * * * * * * * * * * * * * * * * * * * * * * * * * * * * * * * //

dimensions      [1 0 -1 0 0 0 0];

oriented        oriented;

internalField   nonuniform List<scalar> 
370
(
5.37968e-05
9.12556e-05
-0.000173376
0.000227091
-0.000186857
1.32779e-05
0.000317276
-0.000504096
0.000288331
2.89143e-05
0.000424205
-0.000135749
0.000430018
-5.42302e-06
0.000419747
1.03364e-05
0.000396751
2.29966e-05
3.26304e-05
0.000364111
0.000351194
-0.000133798
0.0007983
-0.000219879
0.000991293
-0.000179783
0.000639233
-0.000152022
0.000746068
-7.79367e-05
0.000629272
-1.90087e-05
0.000559316
6.40811e-05
0.000454981
0.000114601
0.00034426
0.000133713
0.000130089
0.000246817
0.000341394
-0.000360179
0.000701844
-0.000580207
0.000595799
-7.37899e-05
0.000460877
-1.70546e-05
0.000400892
-1.79609e-05
0.000298798
8.3087e-05
0.000213978
0.000148882
0.000129663
0.000198903
5.66433e-05
0.000206722
0.000184095
2.66631e-06
0.000111654
-0.000371728
-8.47643e-05
-0.000383646
-0.000445591
0.000286955
-0.000514235
5.16081e-05
-0.000653682
0.000121534
-0.000655145
8.4552e-05
-0.000616488
0.000110246
-0.000544469
0.000126885
-0.00046463
0.000126891
0.00011055
-0.000391083
-0.000872446
0.000285082
-0.00162687
0.000370853
-0.00101587
-0.000324019
-0.000943091
-2.10884e-05
-0.000800945
-2.05786e-05
-0.000743092
2.67082e-05
-0.000678595
4.57546e-05
-0.000608031
5.6327e-05
-0.00052957
4.84357e-05
3.14557e-05
-0.000450469
4.99163e-05
0.000330013
-0.000127637
0.000548468
-0.000457964
6.53025e-06
-0.000512398
3.4899e-05
-0.000633225
0.000100495
-0.000626833
2.03664e-05
-0.000588393
7.34099e-06
-0.000510007
-2.20247e-05
-0.000409635
-5.18968e-05
-7.28816e-05
-0.000305255
0.000340137
9.71226e-05
0.000791076
9.77358e-05
0.000794258
3.02988e-06
0.000603637
0.000224079
0.000583446
0.000120374
0.00052
8.38137e-05
0.000473674
5.36979e-05
0.000434443
1.72499e-05
0.000399669
-1.7078e-05
-4.3828e-05
0.000370662
0.000243623
-1.16456e-05
0.000598599
-0.000257089
0.000756932
-0.000155488
0.000732233
0.000248795
0.000887145
-3.45555e-05
0.000803802
0.000167157
0.000822558
3.49531e-05
0.00076728
7.25435e-05
0.000747522
2.69859e-06
2.161e-05
0.000682102
0.000109506
3.7206e-05
-0.000119518
-2.81474e-05
-3.49887e-05
-0.000240325
0.000466157
-0.000252251
0.000314163
0.000117399
0.000382338
9.90081e-05
0.000394274
2.30254e-05
0.000250872
0.000215948
0.000243311
1.02566e-05
9.00157e-05
0.000174905
0.000194256
0.000166135
-7.43598e-05
-0.000326557
-0.000209224
-0.000110188
-8.71677e-05
0.000128798
0.000139057
0.000229078
0.000322585
4.1507e-05
0.000279889
4.26642e-05
0.000254865
2.49915e-05
0.00022983
2.499e-05
0.000208687
2.10549e-05
0.000198256
1.03314e-05
0.000194622
3.55444e-06
0.000194811
-2.38851e-07
0.000195038
-2.65972e-07
2.90386e-06
7.2891e-05
0.0002154
-3.44319e-05
0.000149989
-7.9279e-05
6.98607e-05
-8.40522e-05
2.97849e-05
-6.66029e-05
3.60717e-06
-3.75765e-05
-1.87055e-05
-4.86555e-06
-2.91768e-05
2.3367e-05
-2.84982e-05
4.51389e-05
-2.21038e-05
-7.76833e-06
-9.62289e-05
0.00031439
-0.000129041
0.000182797
-0.000127461
6.8307e-05
-8.80658e-05
-9.6335e-06
-4.55702e-05
-3.89303e-05
-1.42044e-05
-5.01405e-05
6.75885e-06
-5.01996e-05
2.06886e-05
-4.24685e-05
2.9242e-05
-3.06758e-05
-9.93353e-06
-0.000311855
0.000235144
-0.000232516
0.000103401
-0.000133853
-3.036e-05
-5.88314e-05
-8.46597e-05
-7.00572e-06
-9.07588e-05
2.57243e-05
-8.2892e-05
4.09242e-05
-6.54811e-05
4.48107e-05
-4.6472e-05
4.10821e-05
-2.69852e-05
-4.29275e-06
-0.000290297
7.49886e-05
-0.000121837
-6.49977e-05
-1.83764e-06
-0.000150292
5.62406e-05
-0.000142671
8.76739e-05
-0.000122138
0.000102816
-9.79841e-05
0.000106887
-6.94972e-05
0.000100493
-4.00832e-05
8.74818e-05
-1.41573e-05
7.34477e-06
-5.20985e-05
-0.000178078
0.000103321
-0.000220331
0.000145206
-0.000192109
0.000166944
-0.000164362
0.000175175
-0.000130319
0.000173939
-9.67118e-05
0.000167526
-6.3046e-05
0.000155914
-2.83725e-05
0.000140758
1.05789e-06
1.96411e-05
0.000383184
-0.000190521
0.000345816
-0.000182899
0.00032064
-0.000166899
0.000289845
-0.000133541
0.000261247
-0.000101677
0.000237552
-7.29586e-05
0.000219288
-4.47681e-05
0.000201949
-1.10314e-05
0.000185117
1.79163e-05
3.01401e-05
0.000602771
-0.000111156
0.000479614
-5.97187e-05
0.000404441
-9.17193e-05
0.000322174
-5.12852e-05
0.000261554
-4.10172e-05
0.000222443
-3.37601e-05
0.000206182
-2.84013e-05
0.000189706
5.56296e-06
0.000173206
3.44977e-05
3.57589e-05
0.000144969
-8.12181e-05
5.75739e-05
2.75749e-05
-1.2425e-06
-3.3028e-05
-3.44742e-05
-1.80236e-05
-4.31195e-05
-3.23111e-05
-2.85129e-05
-4.81634e-05
-2.67259e-07
-5.64592e-05
3.15549e-05
-2.62349e-05
4.82055e-05
1.78693e-05
2.26932e-05
0.000147843
0.00017538
0.000142297
0.00012415
9.15691e-05
4.33686e-05
-1.29687e-05
-3.92701e-05
-2.14247e-05
)
;

boundaryField
{
    inlet
    {
        type            calculated;
        value           nonuniform List<scalar> 10(-0.000145943 -0.000126958 -0.000115671 -0.000100389 0.000215324 -9.56425e-05 -0.000108156 -0.000136132 -0.000159584 -0.000158284);
    }
    sym
    {
        type            calculated;
        value           uniform 0;
    }
    wedge
    {
        type            calculated;
        value           nonuniform List<scalar> 10(-1.21475e-40 1.20078e-20 1.20075e-20 0 1.20034e-20 1.19978e-20 -1.19924e-20 0 0 -2.54196e-39);
    }
    top
    {
        type            calculated;
        value           uniform 0;
    }
    back
    {
        type            empty;
    }
    front
    {
        type            empty;
    }
    outlet
    {
        type            calculated;
        value           nonuniform List<scalar> 10(0.000192099 5.57654e-05 3.13902e-05 3.54368e-05 7.57857e-05 0.00012836 0.000174664 0.000167606 6.12734e-05 1.26807e-06);
    }
}


// ************************************************************************* //
