/*--------------------------------*- C++ -*----------------------------------*\
| =========                 |                                                 |
| \\      /  F ield         | OpenFOAM: The Open Source CFD Toolbox           |
|  \\    /   O peration     | Version:  2412                                  |
|   \\  /    A nd           | Website:  www.openfoam.com                      |
|    \\/     M anipulation  |                                                 |
\*---------------------------------------------------------------------------*/
FoamFile
{
    version     2.0;
    format      ascii;
    arch        "LSB;label=32;scalar=64";
    class       volVectorField;
    location    "5";
    object      U;
}
// * * * * * * * * * * * * * * * * * * * * * * * * * * * * * * * * * * * * * //

dimensions      [0 1 -1 0 0 0 0];

internalField   nonuniform List<vector> 
200
(
(-21.893 0.468388 0)
(15.9578 2.36755 0)
(-11.6569 -0.65341 0)
(7.28185 -3.73665 0)
(-3.12591 -0.478026 0)
(3.02764 -1.26208 0)
(0.108783 -0.585457 0)
(1.18059 -0.440897 0)
(1.01062 -0.330106 0)
(0.863128 -0.227777 0)
(-15.8716 0.248221 0)
(10.6095 0.431169 0)
(-0.950113 0.724657 0)
(2.5949 -0.759942 0)
(1.45271 0.573327 0)
(1.54153 0.0243314 0)
(1.41694 0.457551 0)
(1.18853 0.525084 0)
(0.920357 0.552248 0)
(0.677603 0.554649 0)
(-15.5739 -1.1638 0)
(10.5126 -3.65673 0)
(-1.93562 -2.88769 0)
(2.54492 -1.32886 0)
(0.588063 -1.19818 0)
(0.820015 -0.246556 0)
(0.636813 0.449728 0)
(0.395456 0.948933 0)
(0.191105 1.13024 0)
(0.0882852 1.07334 0)
(-16.5005 -2.08994 0)
(11.0396 -3.58185 0)
(-7.12512 2.41281 0)
(2.77313 0.910659 0)
(-3.46158 1.02291 0)
(-0.695137 0.906652 0)
(-1.74744 0.973385 0)
(-1.27681 1.04798 0)
(-1.15079 1.01045 0)
(-0.965244 0.866608 0)
(-11.9449 -0.240574 0)
(2.26597 -0.0812209 0)
(-5.46064 -0.145595 0)
(-0.932234 0.139385 0)
(-2.47159 0.215452 0)
(-1.60148 0.390554 0)
(-1.67877 0.547844 0)
(-1.46642 0.650868 0)
(-1.3041 0.636054 0)
(-1.10156 0.540328 0)
(-17.6001 1.98064 0)
(11.668 3.58083 0)
(-7.65766 -2.34688 0)
(3.04389 -0.691636 0)
(-3.61203 -0.32624 0)
(-0.491521 -0.232016 0)
(-1.78068 -0.145531 0)
(-1.19776 -0.137277 0)
(-1.062 -0.1859 0)
(-0.783052 -0.250272 0)
(-16.0344 0.937701 0)
(10.7002 3.12749 0)
(-1.26177 2.16845 0)
(2.4633 1.39225 0)
(1.2283 1.1787 0)
(1.23355 0.577918 0)
(1.163 0.270701 0)
(1.05829 -0.0440171 0)
(0.956225 -0.3253 0)
(0.867131 -0.515551 0)
(-17.7026 -0.294527 0)
(11.975 -1.46312 0)
(-3.00826 -1.86972 0)
(3.64309 1.23729 0)
(1.44266 0.103539 0)
(1.82053 0.546058 0)
(1.91583 0.269452 0)
(1.85258 0.240661 0)
(1.73726 0.131192 0)
(1.64673 0.0550017 0)
(-21.9632 0.18208 0)
(16.502 -1.18575 0)
(-12.216 -0.240346 0)
(8.22801 0.657882 0)
(-2.74228 -0.262543 0)
(2.71142 0.976272 0)
(0.132 0.200223 0)
(1.03464 0.662208 0)
(0.415213 -0.119158 0)
(0.539252 0.225492 0)
(-20.422 0.0870436 0)
(14.9441 0.719089 0)
(-8.79168 -1.62263 0)
(5.45781 -2.64626 0)
(-5.14246 1.18029 0)
(3.13739 0.426531 0)
(-2.96324 0.105376 0)
(2.05785 1.557 0)
(-0.97389 0.292253 0)
(1.21771 0.68113 0)
(0.74517 -0.0637792 -2.88495e-21)
(0.725864 0.0179282 0)
(0.663838 0.0917504 0)
(0.613365 0.158268 0)
(0.57542 0.192838 1.13239e-17)
(0.551311 0.212638 0)
(0.550812 0.22658 0)
(0.567473 0.233939 0)
(0.592187 0.236902 0)
(0.62072 0.238785 -6.80028e-18)
(0.306178 0.60985 -4.97802e-18)
(0.0251738 0.446644 5.16886e-18)
(-0.202203 0.183476 0)
(-0.209585 0.0991402 0)
(-0.212563 0.0355287 -1.03987e-22)
(-0.146806 -0.0261084 0)
(-0.0660352 -0.0496901 0)
(0.0365056 -0.0378291 0)
(0.0992192 -0.0119938 0)
(0.179819 0.0420421 0)
(-0.164677 0.771004 0)
(-0.292975 0.403667 -5.13513e-18)
(-0.350214 0.096546 0)
(-0.280871 -0.0467017 0)
(-0.175142 -0.121782 -1.1364e-17)
(-0.070569 -0.137025 5.88448e-18)
(-0.00767779 -0.135166 0)
(0.0461378 -0.103639 6.32686e-18)
(0.0762513 -0.0684082 0)
(0.100955 -0.00858117 6.837e-18)
(-0.842514 0.661151 0)
(-0.677232 0.340358 0)
(-0.476607 0.0560851 0)
(-0.213897 -0.146776 0)
(-0.0840737 -0.186878 5.67291e-18)
(0.0443019 -0.17244 -5.87167e-18)
(0.0987951 -0.137076 0)
(0.130685 -0.094956 -1.26167e-17)
(0.135202 -0.0496619 0)
(0.113928 0.00966555 -6.83134e-18)
(-0.903724 0.409046 2.45642e-18)
(-0.499676 0.0343439 2.55684e-18)
(-0.0992903 -0.349986 0)
(0.0909894 -0.345998 2.73937e-18)
(0.194713 -0.290551 2.82425e-18)
(0.265183 -0.221643 0)
(0.300216 -0.143828 0)
(0.307585 -0.0713522 6.27708e-18)
(0.29046 -0.0104231 0)
(0.243704 0.0428278 0)
(-0.508322 -0.291883 -2.48761e-18)
(0.23038 -0.49278 -2.56905e-18)
(0.295836 -0.469635 0)
(0.404067 -0.393395 -2.71789e-18)
(0.452534 -0.30121 -2.80864e-18)
(0.475536 -0.207081 0)
(0.482191 -0.109445 0)
(0.474004 -0.0131776 0)
(0.450589 0.0657217 0)
(0.412186 0.11735 0)
(0.873538 -0.631276 2.46323e-18)
(0.888737 -0.581192 0)
(0.820134 -0.497188 0)
(0.771072 -0.390742 0)
(0.718207 -0.289371 2.79528e-18)
(0.671452 -0.195998 0)
(0.637725 -0.1018 0)
(0.613766 0.00201774 0)
(0.588368 0.0906726 0)
(0.560869 0.135654 3.37739e-18)
(1.41155 -0.140879 -1.20725e-18)
(1.32001 -0.172849 1.25252e-18)
(1.06827 -0.219474 0)
(0.9253 -0.174713 1.34933e-18)
(0.761976 -0.123715 -1.40198e-18)
(0.64589 -0.0698085 1.45521e-18)
(0.581545 -0.0230253 1.50983e-18)
(0.585154 0.0618481 0)
(0.551045 0.132072 1.62644e-18)
(0.538435 0.15299 -1.69033e-18)
(0.264601 -0.44567 -1.87735e-18)
(0.342247 -0.0743934 -1.94643e-18)
(-0.0135678 -0.267349 0)
(0.0023913 -0.0815096 -2.08827e-18)
(-0.166789 -0.0898226 -7.17484e-19)
(-0.0733666 -0.0993799 -2.22293e-18)
(-0.0756826 -0.110354 -1.52997e-18)
(0.0719598 0.0141343 0)
(0.118287 0.108829 -1.63998e-18)
(0.196342 0.110836 -2.55447e-18)
(-0.259806 0.0534467 6.26602e-19)
(0.749005 0.25192 6.48732e-19)
(0.257329 0.108205 0)
(0.384932 0.00535066 6.91212e-19)
(0.295726 -0.0768737 -7.16207e-19)
(0.199919 -0.156684 7.43441e-19)
(0.0366717 -0.20297 0)
(-0.117025 -0.154306 0)
(-0.125355 0.00249112 0)
(0.00352148 0.0322538 8.54602e-19)
)
;

boundaryField
{
    inlet
    {
        type            fixedValue;
        value           uniform (3 0 0);
    }
    sym
    {
        type            slip;
    }
    wedge
    {
        type            slip;
    }
    top
    {
        type            slip;
    }
    back
    {
        type            empty;
    }
    front
    {
        type            empty;
    }
    outlet
    {
        type            inletOutlet;
        inletValue      uniform (3 0 0);
        value           nonuniform List<vector> 10((0.62072 0.238785 -6.80028e-18) (0.179819 0.0420421 0) (0.100955 -0.00858117 6.837e-18) (0.113928 0.00966555 -6.83134e-18) (0.243704 0.0428278 0) (0.412186 0.11735 0) (0.560869 0.135654 3.37739e-18) (0.538435 0.15299 -1.69033e-18) (0.196342 0.110836 -2.55447e-18) (0.00352148 0.0322538 8.54602e-19));
    }
}


// ************************************************************************* //
