/*--------------------------------*- C++ -*----------------------------------*\
| =========                 |                                                 |
| \\      /  F ield         | OpenFOAM: The Open Source CFD Toolbox           |
|  \\    /   O peration     | Version:  2412                                  |
|   \\  /    A nd           | Website:  www.openfoam.com                      |
|    \\/     M anipulation  |                                                 |
\*---------------------------------------------------------------------------*/
FoamFile
{
    version     2.0;
    format      ascii;
    arch        "LSB;label=32;scalar=64";
    class       surfaceScalarField;
    location    "20";
    object      phi;
}
// * * * * * * * * * * * * * * * * * * * * * * * * * * * * * * * * * * * * * //

dimensions      [1 0 -1 0 0 0 0];

oriented        oriented;

internalField   nonuniform List<scalar> 
370
(
154.001
0.000821773
153.998
0.00250686
153.992
0.0062988
153.977
0.0146169
153.944
0.0333097
153.87
0.0737913
153.706
0.164623
153.329
0.37642
152.369
0.960395
2.50456
149.864
154.012
0.000480042
154.013
0.00166779
154.015
0.00433335
154.02
0.0100784
154.03
0.0226152
154.054
0.0499321
154.11
0.108795
154.25
0.236982
154.669
0.540915
1.33153
155.842
154.018
0.000256542
154.019
0.000896905
154.021
0.0023323
154.026
0.00538247
154.037
0.0118604
154.061
0.0256561
154.115
0.0550187
154.234
0.117239
154.523
0.252532
0.565805
155.289
154.022
0.000122282
154.022
0.000433815
154.023
0.00113236
154.026
0.00261512
154.032
0.00573398
154.045
0.0122743
154.074
0.0259853
154.137
0.0548431
154.273
0.115991
0.248698
154.591
154.023
5.82738e-05
154.023
0.000206666
154.024
0.000538659
154.025
0.00124288
154.028
0.00272201
154.035
0.00580862
154.048
0.0122127
154.078
0.0255857
154.14
0.0537346
0.1137
154.275
154.024
2.79812e-05
154.024
9.92129e-05
154.024
0.000258399
154.025
0.000595947
154.026
0.00130501
154.029
0.00278652
154.036
0.00585112
154.049
0.012219
154.077
0.0255423
0.0538307
154.137
154.024
1.36702e-05
154.024
4.83602e-05
154.024
0.000125881
154.025
0.000290278
154.025
0.00063567
154.027
0.0013586
154.03
0.00285611
154.036
0.00596523
154.049
0.0124426
0.0261526
154.077
154.024
6.64549e-06
154.024
2.34389e-05
154.024
6.09877e-05
154.024
0.000140688
154.025
0.000308286
154.025
0.000659571
154.027
0.00138914
154.03
0.00290668
154.036
0.00606668
0.0127363
154.05
154.024
2.85347e-06
154.024
9.95746e-06
154.024
2.58389e-05
154.024
5.96277e-05
154.025
0.000130842
154.025
0.00028054
154.026
0.00059229
154.027
0.0012436
154.031
0.0026041
0.00548215
154.038
154.024
154.024
154.024
154.024
154.025
154.025
154.025
154.027
154.029
154.035
187.522
-37.6581
211.544
-24.021
220.875
-9.33123
216.974
3.90082
204.641
12.3326
188.715
15.9258
173.34
15.3756
159.491
13.8488
146.893
12.5976
11.4779
162.555
-44.3711
172.782
-34.2476
183.146
-19.6959
189.516
-2.46904
188.189
13.6594
179.927
24.1879
168.677
26.6255
156.849
25.6767
145.385
24.0613
22.604
154.152
-43.2343
158.292
-38.3874
167.912
-29.3167
180.449
-15.0061
190.516
3.59312
193.375
21.328
186.347
33.6535
174.783
37.2405
161.69
37.154
36.2207
149.982
-38.626
148.122
-36.5277
150.841
-32.0351
158.965
-23.1299
170.878
-8.32051
180.705
11.5012
182.433
31.9255
175.406
44.2669
164.218
48.3416
48.9217
148.412
-32.7633
143.726
-31.8416
141.468
-29.7765
143.556
-25.2185
151.03
-15.7942
162.03
0.501313
172.082
21.8732
172.616
43.7327
165.861
55.0968
59.5275
147.801
-26.4278
141.962
-26.0017
137.232
-25.0468
134.886
-22.8729
136.909
-17.817
144.828
-7.41777
156.054
10.6475
164.48
35.306
164.544
55.0333
65.4741
147.55
-19.9016
141.245
-19.6964
135.44
-19.2421
130.766
-18.1989
128.644
-15.6945
131.016
-9.78926
139.091
2.57247
150.953
23.4437
158.544
47.4413
63.9696
147.443
-13.2948
140.944
-13.1969
134.682
-12.9803
128.968
-12.4852
124.569
-11.2954
123.101
-8.32176
127.005
-1.33126
137.605
12.8434
150.745
34.3013
53.2961
147.397
-6.65342
140.813
-6.61334
134.357
-6.52445
128.198
-6.32553
122.749
-5.84665
119.073
-4.64559
119.377
-1.63571
126.882
5.33859
143.195
17.9882
32.3657
147.381
140.768
134.244
127.918
122.071
117.426
115.79
121.129
139.117
)
;

boundaryField
{
    inlet
    {
        type            calculated;
        value           nonuniform List<scalar> 10(-154.002 -154.012 -154.018 -154.021 -154.023 -154.024 -154.024 -154.024 -154.024 -154.024);
    }
    sym
    {
        type            calculated;
        value           uniform 0;
    }
    wedge
    {
        type            calculated;
        value           nonuniform List<scalar> 10(0 -8.83011e-34 -6.18625e-34 0 1.29463e-14 1.26083e-14 0 -5.598e-34 0 -1.18246e-14);
    }
    top
    {
        type            calculated;
        value           uniform 0;
    }
    back
    {
        type            empty;
    }
    front
    {
        type            empty;
    }
    outlet
    {
        type            calculated;
        value           nonuniform List<scalar> 10(135.415 134.258 148.073 151.517 155.255 158.597 160.049 161.419 164.125 171.482);
    }
}


// ************************************************************************* //
