/*--------------------------------*- C++ -*----------------------------------*\
| =========                 |                                                 |
| \\      /  F ield         | OpenFOAM: The Open Source CFD Toolbox           |
|  \\    /   O peration     | Version:  2412                                  |
|   \\  /    A nd           | Website:  www.openfoam.com                      |
|    \\/     M anipulation  |                                                 |
\*---------------------------------------------------------------------------*/
FoamFile
{
    version     2.0;
    format      ascii;
    arch        "LSB;label=32;scalar=64";
    class       volScalarField;
    location    "20";
    object      T;
}
// * * * * * * * * * * * * * * * * * * * * * * * * * * * * * * * * * * * * * //

dimensions      [0 0 0 1 0 0 0];

internalField   nonuniform List<scalar> 
200
(
300.171
300.378
300.806
301.74
303.698
308.131
317.016
336.164
372.005
458.852
300.093
300.202
300.431
300.913
301.916
304.078
308.612
317.939
335.967
373.087
300.047
300.103
300.218
300.459
300.959
302.001
304.178
308.668
317.722
335.854
300.023
300.049
300.105
300.22
300.461
300.957
301.992
304.099
308.489
317.411
300.011
300.024
300.052
300.108
300.226
300.47
300.98
302.009
304.172
308.609
300.006
300.012
300.026
300.055
300.115
300.239
300.5
301.026
302.139
304.412
300.003
300.007
300.014
300.029
300.061
300.128
300.269
300.553
301.157
302.387
300.002
300.004
300.008
300.017
300.035
300.074
300.155
300.319
300.671
301.387
300.001
300.002
300.005
300.011
300.022
300.047
300.099
300.204
300.431
300.893
300.001
300.002
300.004
300.008
300.017
300.035
300.074
300.154
300.325
300.673
592.145
638.443
654.538
654.327
647.414
640.837
636.131
633.403
631.705
633.434
466.558
544.755
596.456
617.171
621.3
622.642
624.43
626.718
629.08
631.194
385.209
446.317
518.276
576.597
609.757
616.5
615.888
614.863
614.505
616.155
343.162
380.214
437.449
507.346
566.791
598.298
606.032
607.147
607.157
608.636
321.959
342.674
378.721
435.788
504.286
566.754
595.337
602.697
603.583
603.849
311.422
322.846
344.226
381.599
440.734
510.642
568.895
593.119
599.311
598.623
306.207
312.647
325.271
348.732
390.538
452.834
527.07
577.527
596.415
594.944
303.615
307.446
315.158
330.225
358.3
407.194
477.023
549.03
589.992
590.861
302.334
304.834
309.962
320.281
340.19
377.209
438.083
516.312
581.141
587.263
301.76
303.657
307.614
315.698
331.835
362.424
417.444
495.076
577.398
583.604
)
;

boundaryField
{
    inlet
    {
        type            fixedValue;
        value           uniform 300;
    }
    sym
    {
        type            slip;
    }
    wedge
    {
        type            slip;
    }
    top
    {
        type            slip;
    }
    back
    {
        type            empty;
    }
    front
    {
        type            empty;
    }
    outlet
    {
        type            inletOutlet;
        inletValue      uniform 300;
        value           nonuniform List<scalar> 10(632.94 631.071 616.923 608.992 604.013 598.64 594.594 590.264 586.219 582.006);
    }
}


// ************************************************************************* //
