/*--------------------------------*- C++ -*----------------------------------*\
| =========                 |                                                 |
| \\      /  F ield         | OpenFOAM: The Open Source CFD Toolbox           |
|  \\    /   O peration     | Version:  2412                                  |
|   \\  /    A nd           | Website:  www.openfoam.com                      |
|    \\/     M anipulation  |                                                 |
\*---------------------------------------------------------------------------*/
FoamFile
{
    version     2.0;
    format      ascii;
    arch        "LSB;label=32;scalar=64";
    class       volScalarField;
    location    "6.5";
    object      p;
}
// * * * * * * * * * * * * * * * * * * * * * * * * * * * * * * * * * * * * * //

dimensions      [1 -1 -2 0 0 0 0];

internalField   nonuniform List<scalar> 
200
(
1.19162
0.865967
1.08009
0.92548
1.04056
0.979962
1.00866
1.00027
1.00099
1.00163
1.18899
0.840015
1.05673
0.987567
0.998624
0.996503
0.996971
0.998162
0.999317
1.00016
1.18385
0.844276
1.04261
0.981674
0.999598
0.996787
0.99769
0.999024
1.00006
1.00078
1.17847
0.876819
1.0498
0.952442
0.995102
0.981371
0.988554
0.992275
0.995551
0.997699
1.22176
0.92958
1.01273
0.98493
0.994451
0.9938
0.99525
0.996338
0.997476
0.998491
1.18764
0.869179
1.06379
0.953616
1.00684
0.986985
0.992787
0.992602
0.994093
0.995805
1.18981
0.831104
1.04644
0.993226
0.997564
0.996669
0.996442
0.996777
0.997245
0.997755
1.19828
0.848501
1.09559
0.975904
1.00519
1.00088
0.99902
0.998639
0.999441
1.00011
1.19706
0.866131
1.06924
0.894849
1.03744
0.980584
1.00564
0.998282
1.00113
1.00085
1.19682
0.861076
1.08222
0.947598
1.02357
0.981511
1.01129
0.990336
1.00777
0.996846
1.00192
1.00181
1.00177
1.0018
1.00188
1.002
1.00209
1.00215
1.00217
1.00217
1.0008
1.00103
1.00112
1.00138
1.00171
1.00196
1.0021
1.00217
1.0022
1.00221
1.00119
1.00147
1.00162
1.00181
1.00195
1.00205
1.00212
1.00215
1.00217
1.00216
0.999468
1.00051
1.00101
1.00139
1.0017
1.00193
1.00207
1.00215
1.00217
1.00217
0.999521
1.00021
1.00082
1.00135
1.00172
1.00193
1.00205
1.0021
1.00211
1.0021
0.998087
0.999436
1.00066
1.00125
1.00164
1.00185
1.00195
1.002
1.00201
1.00201
0.998872
0.999818
1.00072
1.00125
1.00155
1.0017
1.00178
1.00181
1.00183
1.00188
1.00103
1.00089
1.00128
1.00137
1.0015
1.00165
1.00174
1.00171
1.00165
1.00178
1.00139
1.00063
1.00126
1.00122
1.00133
1.00137
1.0016
1.00159
1.00155
1.00179
1.00445
0.999783
1.00183
1.00134
1.00152
1.00155
1.00165
1.00167
1.00162
1.00181
)
;

boundaryField
{
    inlet
    {
        type            fixedValue;
        value           uniform 1;
    }
    sym
    {
        type            slip;
    }
    wedge
    {
        type            slip;
    }
    top
    {
        type            slip;
    }
    back
    {
        type            empty;
    }
    front
    {
        type            empty;
    }
    outlet
    {
        type            zeroGradient;
    }
}


// ************************************************************************* //
