/*--------------------------------*- C++ -*----------------------------------*\
| =========                 |                                                 |
| \\      /  F ield         | OpenFOAM: The Open Source CFD Toolbox           |
|  \\    /   O peration     | Version:  2412                                  |
|   \\  /    A nd           | Website:  www.openfoam.com                      |
|    \\/     M anipulation  |                                                 |
\*---------------------------------------------------------------------------*/
FoamFile
{
    version     2.0;
    format      ascii;
    arch        "LSB;label=32;scalar=64";
    class       surfaceScalarField;
    location    "6.5";
    object      phi;
}
// * * * * * * * * * * * * * * * * * * * * * * * * * * * * * * * * * * * * * //

dimensions      [1 0 -1 0 0 0 0];

oriented        oriented;

internalField   nonuniform List<scalar> 
370
(
4.79807e-05
9.2167e-05
-0.000180021
0.000227944
-0.000191385
1.12352e-05
0.000318503
-0.000509843
0.000282646
3.58417e-05
0.000419358
-0.000136697
0.00042165
-2.29202e-06
0.000411304
1.03504e-05
0.000390491
2.08145e-05
2.87164e-05
0.000361774
0.000346353
-0.000135508
0.000792496
-0.000218088
0.000981899
-0.000178199
0.000622331
-0.000150256
0.000727435
-6.9257e-05
0.000594991
-4.24225e-06
0.000506664
8.60432e-05
0.000384751
0.000132272
0.000266
0.000139588
0.000119617
0.000175098
0.00033267
-0.000365742
0.000688551
-0.000573888
0.000572429
-6.21332e-05
0.000431927
-9.74627e-06
0.000357206
5.43053e-06
0.000244219
0.00010874
0.000147709
0.000182541
5.74804e-05
0.00022249
-1.36981e-05
0.000210799
0.000163861
-5.78806e-05
0.000101986
-0.000382763
-0.000104895
-0.000366885
-0.000490498
0.000323407
-0.000572188
7.19676e-05
-0.000707965
0.000141237
-0.000703362
0.000104127
-0.000648768
0.000127946
-0.000565169
0.000138895
-0.000481069
0.000126713
9.87046e-05
-0.000415911
-0.000932927
0.000299113
-0.00171779
0.000418043
-0.00106847
-0.000325873
-0.000990725
-5.65345e-06
-0.000843319
-6.11443e-06
-0.00078404
4.48704e-05
-0.000711615
5.55389e-05
-0.000632784
6.00786e-05
-0.000549092
4.30331e-05
1.74632e-05
-0.000467843
2.27051e-05
0.000350693
-0.00013854
0.000579319
-0.000473143
9.18286e-06
-0.00051855
4.21037e-05
-0.000638
0.000113705
-0.00062091
2.78319e-05
-0.000578462
1.3105e-05
-0.000499869
-1.84923e-05
-0.000402754
-5.40583e-05
-7.99936e-05
-0.000305272
0.000336761
0.000104757
0.000810905
0.000105331
0.000812814
6.83378e-06
0.000602859
0.000249777
0.000579468
0.000136583
0.000513868
9.34072e-05
0.000463668
6.33196e-05
0.000421874
2.33274e-05
0.000381169
-1.33255e-05
-4.39876e-05
0.000345188
0.000239985
-8.11179e-06
0.000603567
-0.000258139
0.000771176
-0.00016093
0.000757561
0.000263378
0.000918255
-2.41382e-05
0.000833583
0.000178077
0.000850282
4.66269e-05
0.000796674
7.69457e-05
0.000769437
1.39222e-05
2.20928e-05
0.000703365
9.81174e-05
4.40766e-05
-0.000133608
-2.6495e-05
-4.13091e-05
-0.000253449
0.000475111
-0.000252962
0.000329482
0.000121469
0.000408649
9.89323e-05
0.000428544
2.67386e-05
0.000285376
0.000220118
0.000286578
1.27251e-05
9.03892e-05
0.000218285
0.0001936
0.000167115
-8.6467e-05
-0.000339388
-0.000217959
-0.000118998
-9.22583e-05
0.000127872
0.000140604
0.000231002
0.000322568
3.92108e-05
0.000292568
3.00007e-05
0.00026623
2.63291e-05
0.000235373
3.08456e-05
0.00020478
3.05851e-05
0.000180598
2.4179e-05
0.000165163
1.54329e-05
0.000157132
8.02642e-06
0.000153667
3.45883e-06
4.77745e-06
7.97293e-06
0.000206352
-7.84539e-05
0.00011646
-0.000107015
5.48833e-05
-0.000101455
2.52781e-05
-7.69277e-05
6.05624e-06
-4.55654e-05
-7.18526e-06
-1.59489e-05
-1.41871e-05
7.44856e-06
-1.53799e-05
2.56526e-05
-1.47649e-05
-2.89673e-06
-0.000136297
0.000284775
-0.000166031
0.000146182
-0.000155401
4.4236e-05
-0.000113717
-1.64009e-05
-6.56263e-05
-4.20226e-05
-2.38964e-05
-4.88994e-05
6.03294e-06
-4.41016e-05
2.44338e-05
-3.37744e-05
3.00983e-05
-2.04384e-05
-6.24551e-07
-0.000338579
0.000207429
-0.000256503
6.41073e-05
-0.00016214
-5.01099e-05
-8.42318e-05
-9.42938e-05
-2.5422e-05
-0.00010082
1.61247e-05
-9.04318e-05
4.20131e-05
-6.99691e-05
5.45986e-05
-4.63204e-05
5.4774e-05
-2.05818e-05
4.62248e-06
-0.000298913
3.85143e-05
-0.000142376
-9.24092e-05
-3.4252e-05
-0.000158234
2.86095e-05
-0.000157164
6.55197e-05
-0.000137737
8.65612e-05
-0.000111474
9.88668e-05
-8.2283e-05
0.000103331
-5.07849e-05
0.000100696
-1.79255e-05
1.10655e-05
-7.16042e-05
-0.000195121
6.47375e-05
-0.000228725
0.000113242
-0.000206722
0.000139164
-0.00018309
0.000149739
-0.000148316
0.000150808
-0.00011254
0.0001483
-7.97829e-05
0.00014356
-4.60515e-05
0.000135593
-9.95487e-06
1.85271e-05
0.000348842
-0.000198739
0.000317208
-0.000197079
0.000293994
-0.000183499
0.000264077
-0.00015317
0.00023422
-0.000118454
0.000207314
-8.56231e-05
0.000187607
-6.00855e-05
0.000173037
-3.14701e-05
0.000157337
5.7629e-06
2.6174e-05
0.000612029
-0.000107389
0.000487156
-7.21966e-05
0.000402612
-9.89363e-05
0.000316162
-6.67414e-05
0.000244549
-4.68056e-05
0.00019076
-3.18179e-05
0.000164485
-3.38051e-05
0.000153057
-2.00323e-05
0.00013348
2.53578e-05
3.09265e-05
0.000191715
-8.08112e-05
9.88457e-05
2.06815e-05
3.58887e-05
-3.6016e-05
-1.50169e-05
-1.58303e-05
-4.00271e-05
-2.18029e-05
-3.33229e-05
-3.85669e-05
-1.26476e-05
-5.45091e-05
9.45412e-06
-4.21475e-05
2.36464e-05
1.12032e-05
2.47008e-05
0.000150205
0.000170903
0.000134903
0.000119087
9.7295e-05
5.87105e-05
4.14669e-06
-3.79769e-05
-2.67577e-05
)
;

boundaryField
{
    inlet
    {
        type            calculated;
        value           nonuniform List<scalar> 10(-0.000140796 -0.000119279 -0.000102997 -8.51028e-05 0.000250802 -7.50207e-05 -9.16299e-05 -0.000128236 -0.000151372 -0.000150624);
    }
    sym
    {
        type            calculated;
        value           uniform 0;
    }
    wedge
    {
        type            calculated;
        value           nonuniform List<scalar> 10(-1.20139e-20 1.20123e-20 0 0 -4.2403e-39 1.20106e-20 0 0 -1.20099e-20 1.20075e-20);
    }
    top
    {
        type            calculated;
        value           uniform 0;
    }
    back
    {
        type            empty;
    }
    front
    {
        type            empty;
    }
    outlet
    {
        type            calculated;
        value           nonuniform List<scalar> 10(0.000148871 3.33067e-05 2.78021e-05 4.95156e-05 9.42987e-05 0.000128148 0.000149718 0.000128769 2.99277e-05 -2.03165e-06);
    }
}


// ************************************************************************* //
