/*--------------------------------*- C++ -*----------------------------------*\
| =========                 |                                                 |
| \\      /  F ield         | OpenFOAM: The Open Source CFD Toolbox           |
|  \\    /   O peration     | Version:  2412                                  |
|   \\  /    A nd           | Website:  www.openfoam.com                      |
|    \\/     M anipulation  |                                                 |
\*---------------------------------------------------------------------------*/
FoamFile
{
    version     2.0;
    format      ascii;
    arch        "LSB;label=32;scalar=64";
    class       volVectorField;
    location    "6.5";
    object      U;
}
// * * * * * * * * * * * * * * * * * * * * * * * * * * * * * * * * * * * * * //

dimensions      [0 1 -1 0 0 0 0];

internalField   nonuniform List<vector> 
200
(
(-22.6348 0.465102 0)
(16.5102 2.36742 0)
(-12.0401 -0.729103 0)
(7.51527 -3.78599 0)
(-3.25611 -0.493855 0)
(3.08695 -1.29964 0)
(0.0452526 -0.596573 0)
(1.19036 -0.470867 0)
(0.981288 -0.367766 0)
(0.846226 -0.271642 0)
(-16.5477 0.242162 0)
(11.0268 0.457252 0)
(-1.0868 0.781802 0)
(2.63728 -0.742962 0)
(1.36354 0.636706 0)
(1.50348 0.057231 0)
(1.3309 0.51696 0)
(1.04742 0.556615 0)
(0.741846 0.566139 0)
(0.491363 0.55636 0)
(-16.2519 -1.13134 0)
(10.906 -3.68237 0)
(-2.11555 -2.93379 0)
(2.61509 -1.35856 0)
(0.418979 -1.15902 0)
(0.756612 -0.109129 0)
(0.487741 0.679108 0)
(0.227977 1.13747 0)
(0.0348043 1.19565 0)
(-0.0900093 0.94787 0)
(-16.873 -2.16632 0)
(11.1529 -3.55853 0)
(-7.15407 2.55878 0)
(2.55736 1.04178 0)
(-3.46979 1.18706 0)
(-0.925236 1.02558 0)
(-1.77515 1.09706 0)
(-1.35297 1.12323 0)
(-1.19615 1.00007 0)
(-1.02601 0.778621 0)
(-12.2146 -0.175721 0)
(2.08954 0.118454 0)
(-5.57765 0.00870912 0)
(-1.08812 0.323623 0)
(-2.54246 0.313569 0)
(-1.71757 0.522695 0)
(-1.76074 0.637777 0)
(-1.53489 0.706018 0)
(-1.35448 0.628586 0)
(-1.145 0.476121 0)
(-18.6692 1.99371 0)
(12.3041 3.81702 0)
(-8.0376 -2.47151 0)
(3.19914 -0.699645 0)
(-3.72357 -0.308821 0)
(-0.446625 -0.188144 0)
(-1.78222 -0.123611 0)
(-1.17233 -0.145149 0)
(-1.0447 -0.231432 0)
(-0.773524 -0.329659 0)
(-17.1057 0.977685 0)
(11.3457 3.33502 0)
(-1.3129 2.29918 0)
(2.50572 1.51148 0)
(1.19935 1.27936 0)
(1.23671 0.638508 0)
(1.14818 0.322486 0)
(1.03922 -0.00403295 0)
(0.921695 -0.306444 0)
(0.816761 -0.520876 0)
(-18.7328 -0.316408 0)
(12.6557 -1.49638 0)
(-3.182 -1.93709 0)
(3.78523 1.3109 0)
(1.51244 0.177759 0)
(1.87068 0.61687 0)
(1.97641 0.338973 0)
(1.9201 0.286285 0)
(1.80273 0.164138 0)
(1.69652 0.0635438 0)
(-23.1169 0.233091 0)
(17.3416 -1.17545 0)
(-12.8067 -0.233617 0)
(8.55387 0.718328 0)
(-2.81079 -0.24905 0)
(2.77714 1.00786 0)
(0.244567 0.263823 0)
(1.06093 0.677291 0)
(0.550582 -0.0442097 0)
(0.613249 0.227744 0)
(-21.5093 0.0848577 0)
(15.7286 0.737527 0)
(-9.18959 -1.70567 0)
(5.61731 -2.69326 0)
(-5.2617 1.19111 0)
(3.16626 0.40381 0)
(-3.00824 0.0937746 0)
(2.06842 1.57856 0)
(-0.985495 0.252858 0)
(1.23111 0.677171 0)
(0.747098 -0.112315 -2.7986e-21)
(0.735101 0.00778336 0)
(0.696892 0.115544 0)
(0.644201 0.189925 0)
(0.582682 0.224014 1.13089e-17)
(0.523372 0.230833 0)
(0.482385 0.225419 0)
(0.465488 0.217795 0)
(0.468043 0.210452 0)
(0.480108 0.20114 -6.80223e-18)
(0.178638 0.604655 -4.99472e-18)
(-0.146262 0.328307 5.17904e-18)
(-0.253594 0.154832 0)
(-0.275722 0.0846749 0)
(-0.238724 0.04861 1.80905e-22)
(-0.168145 0.0171338 0)
(-0.0880784 -0.00741023 0)
(-0.00689453 -0.0188648 0)
(0.0490143 -0.0192538 0)
(0.107266 0.0220069 0)
(-0.243154 0.665674 0)
(-0.405741 0.249183 -5.13174e-18)
(-0.414283 0.00972215 0)
(-0.350976 -0.0963314 0)
(-0.233062 -0.141938 -1.134e-17)
(-0.114833 -0.134977 5.87643e-18)
(-0.0188447 -0.104315 0)
(0.0524411 -0.0606878 6.32025e-18)
(0.0925364 -0.0292406 0)
(0.0893684 0.0158837 6.83396e-18)
(-0.891539 0.571329 0)
(-0.749528 0.237951 0)
(-0.526643 -0.0253382 0)
(-0.295733 -0.180113 0)
(-0.137044 -0.216036 5.66935e-18)
(-0.00120107 -0.192115 -5.87407e-18)
(0.0892024 -0.138022 0)
(0.147156 -0.0778274 -1.26102e-17)
(0.174551 -0.0147857 0)
(0.15902 0.0450441 -6.81814e-18)
(-0.941631 0.309269 2.45952e-18)
(-0.506408 -0.112239 2.5584e-18)
(-0.17928 -0.401393 0)
(0.0130455 -0.401954 2.73917e-18)
(0.133062 -0.343885 2.82827e-18)
(0.210781 -0.266735 0)
(0.263395 -0.178836 0)
(0.29812 -0.08843 6.28658e-18)
(0.312948 6.7041e-05 0)
(0.30293 0.0801606 0)
(-0.499775 -0.389926 -2.4897e-18)
(0.122138 -0.533642 -2.57108e-18)
(0.212094 -0.522068 0)
(0.332014 -0.456208 -2.71972e-18)
(0.382823 -0.364822 -2.81044e-18)
(0.408448 -0.267158 0)
(0.419932 -0.169497 0)
(0.426129 -0.067976 0)
(0.423641 0.0340046 0)
(0.411942 0.115871 0)
(0.805532 -0.655591 2.46745e-18)
(0.810168 -0.624477 0)
(0.752368 -0.549729 0)
(0.705678 -0.451124 0)
(0.649987 -0.345031 2.79656e-18)
(0.594745 -0.247215 0)
(0.548287 -0.162862 0)
(0.522714 -0.0694092 0)
(0.50179 0.0400933 0)
(0.481635 0.116323 3.38865e-18)
(1.45477 -0.152699 -1.2057e-18)
(1.3317 -0.206189 1.25127e-18)
(1.08312 -0.260079 0)
(0.910537 -0.232874 1.34811e-18)
(0.734382 -0.178202 -1.4026e-18)
(0.589321 -0.102397 1.4574e-18)
(0.480316 -0.0618703 1.51596e-18)
(0.455386 -0.000663884 0)
(0.438232 0.0924376 1.6364e-18)
(0.414971 0.127398 -1.70001e-18)
(0.398939 -0.402252 -1.87321e-18)
(0.424968 -0.110435 -1.94015e-18)
(0.113556 -0.262633 0)
(0.047934 -0.111685 -2.08777e-18)
(-0.119319 -0.06939 -7.18084e-19)
(-0.108942 -0.0659872 -2.22544e-18)
(-0.0626069 -0.115345 -1.53511e-18)
(-0.0164716 -0.0919929 0)
(0.0651344 0.0860009 -1.64617e-18)
(0.0957439 0.0953611 -2.56383e-18)
(-0.262897 0.0181733 6.26594e-19)
(0.758067 0.252816 6.48798e-19)
(0.229274 0.0906183 0)
(0.372485 0.045278 6.90906e-19)
(0.285354 -0.037896 -7.14146e-19)
(0.223102 -0.134923 7.39403e-19)
(0.116534 -0.184987 0)
(-0.0949043 -0.14072 0)
(-0.145004 -0.0180275 0)
(-0.00705601 0.052511 8.54723e-19)
)
;

boundaryField
{
    inlet
    {
        type            fixedValue;
        value           uniform (3 0 0);
    }
    sym
    {
        type            slip;
    }
    wedge
    {
        type            slip;
    }
    top
    {
        type            slip;
    }
    back
    {
        type            empty;
    }
    front
    {
        type            empty;
    }
    outlet
    {
        type            inletOutlet;
        inletValue      uniform (3 0 0);
        value           nonuniform List<vector> 10((0.480108 0.20114 -6.80223e-18) (0.107266 0.0220069 0) (0.0893684 0.0158837 6.83396e-18) (0.15902 0.0450441 -6.81814e-18) (0.30293 0.0801606 0) (0.411942 0.115871 0) (0.481635 0.116323 3.38865e-18) (0.414971 0.127398 -1.70001e-18) (0.0957439 0.0953611 -2.56383e-18) (3 0 0));
    }
}


// ************************************************************************* //
