/*--------------------------------*- C++ -*----------------------------------*\
| =========                 |                                                 |
| \\      /  F ield         | OpenFOAM: The Open Source CFD Toolbox           |
|  \\    /   O peration     | Version:  2412                                  |
|   \\  /    A nd           | Website:  www.openfoam.com                      |
|    \\/     M anipulation  |                                                 |
\*---------------------------------------------------------------------------*/
FoamFile
{
    version     2.0;
    format      ascii;
    arch        "LSB;label=32;scalar=64";
    class       volScalarField;
    location    "0.005";
    object      ddt0(rho,e);
}
// * * * * * * * * * * * * * * * * * * * * * * * * * * * * * * * * * * * * * //

dimensions      [1 -1 -3 0 0 0 0];

internalField   nonuniform List<scalar> 
180000
(
2.07086e-06
-1.80012e-05
-1.16888e-05
-1.64289e-05
6.29203e-06
3.66338e-06
-1.19268e-05
-6.92528e-05
-6.62516e-06
-1.87019e-05
3.08148e-05
1.90517e-05
5.44562e-05
3.22771e-05
6.62739e-05
9.13945e-06
-5.19808e-05
-7.07117e-05
-2.01047e-06
1.11079e-05
-7.40252e-05
-1.10063e-05
5.12091e-05
-7.47774e-05
-3.92938e-05
-0.000118349
-6.46697e-07
-1.45511e-06
-9.5776e-06
6.2776e-05
4.28798e-05
-1.01289e-05
-2.97368e-05
3.62857e-05
1.05797e-06
-7.43872e-05
-2.01855e-05
-1.00458e-06
2.35685e-05
5.01477e-05
8.94955e-05
0.000137265
0.000158734
9.62135e-05
1.23168e-05
1.83507e-05
-3.92779e-05
-8.71253e-05
-5.93981e-05
2.41046e-06
1.33311e-05
-3.02922e-05
4.35929e-05
1.51253e-05
-5.76989e-05
2.14462e-06
7.2487e-05
0.000136721
0.00011755
-1.85831e-05
-1.1911e-05
-5.66622e-05
-3.24329e-05
-3.07162e-05
-2.57557e-05
-8.29419e-05
-1.26557e-05
-2.31974e-05
-5.8016e-05
-2.63578e-05
-1.56373e-05
-1.6795e-05
-1.35358e-05
3.04861e-05
7.97524e-05
1.4308e-05
7.22813e-06
2.20759e-05
-3.25231e-05
-6.31052e-05
-9.07026e-05
-4.46567e-05
2.6012e-05
-4.96122e-05
-6.74247e-05
-5.21988e-05
-4.50114e-05
4.84799e-05
1.07458e-05
-1.89684e-06
2.81921e-06
3.16022e-05
0.000111415
0.000100741
1.18681e-05
0.000105608
8.93962e-05
9.28381e-06
0.000102845
3.49588e-05
-2.98819e-05
-8.36332e-05
3.00458e-05
4.26333e-05
-2.21014e-05
-9.99866e-06
-3.80728e-05
1.11977e-06
-3.3652e-05
-2.31638e-05
-1.3472e-05
6.94651e-05
1.19806e-05
1.43634e-05
1.6048e-05
-5.041e-07
-2.27305e-05
-6.52285e-05
-0.000102351
-3.94924e-05
-8.23763e-06
6.72968e-06
2.28293e-07
6.27668e-06
5.11508e-05
7.19003e-06
1.22538e-05
-3.16831e-05
-1.63726e-05
-3.70344e-05
-4.33279e-06
-2.60339e-05
1.33515e-05
7.25986e-05
-9.5225e-06
-3.69301e-05
-9.82111e-06
-6.15794e-05
2.93448e-05
4.17926e-05
1.11083e-05
-1.1127e-06
1.60878e-05
6.77997e-05
7.05741e-05
-3.06828e-05
-4.01871e-05
-3.88218e-05
-5.81076e-05
1.13216e-05
4.50123e-05
9.8251e-05
-4.69124e-05
-0.000102989
-2.32332e-05
5.48818e-05
7.62801e-07
1.17889e-05
0.000102319
3.12969e-05
-1.52035e-05
6.70182e-06
-6.49407e-05
-3.04191e-05
-1.97987e-05
5.23921e-05
5.54668e-05
-8.54263e-06
-2.39358e-05
-4.00992e-05
-7.69548e-05
-1.4577e-05
-6.35122e-05
-7.00503e-05
-1.91082e-06
-2.37557e-05
-6.82827e-05
-6.49418e-06
-8.61931e-05
-5.61318e-05
-6.33113e-05
-1.22719e-05
4.72028e-05
8.24564e-05
2.0783e-06
-1.06077e-05
3.03561e-05
9.40219e-07
-6.82592e-05
-5.04448e-05
-0.000134258
-9.48915e-05
-1.52902e-05
-4.87477e-05
1.41392e-05
-1.58823e-06
-1.34991e-05
1.86024e-05
3.3045e-05
-1.55678e-05
-2.13776e-05
5.92348e-06
3.25726e-05
9.78018e-06
-3.33173e-05
1.03364e-06
-9.60247e-05
-1.7732e-05
2.64182e-05
6.79755e-06
5.14276e-05
7.37314e-06
1.17356e-05
-3.36384e-06
2.94819e-05
8.05137e-05
0.000197185
0.00013176
5.50993e-05
1.46702e-05
2.6114e-05
5.75021e-05
-8.58134e-06
-2.17556e-05
-8.11515e-05
-9.26763e-05
-0.000119787
-5.64416e-05
-5.46254e-05
6.78263e-05
3.33204e-05
1.18264e-06
3.81887e-05
-4.47441e-05
-7.37559e-05
-6.04809e-06
-5.31018e-05
2.76507e-05
-8.97091e-06
-4.67014e-05
3.93445e-05
2.28201e-05
5.71085e-05
2.14777e-05
-2.56391e-05
2.51866e-05
8.15001e-06
8.69166e-06
2.58907e-06
-2.11512e-05
2.97395e-05
3.06722e-05
-4.55054e-06
7.80174e-05
4.64038e-05
-4.5021e-06
0.000139816
0.000121696
0.00029601
0.000357276
0.000514568
0.000798707
0.00138048
0.00215608
0.00337291
0.0052101
0.00818896
0.0129855
0.0205895
0.0326236
0.051815
0.0821423
0.130099
0.206272
0.327285
0.51906
0.823047
1.30573
2.07347
3.291
5.22451
8.30935
13.2157
21.0015
33.4711
53.4702
85.3497
136.45
218.494
348.438
554.426
885.444
1409.95
2211.88
3448.05
5295.57
7861.8
11369.1
16411
20831.6
-6.31204e-07
8.24641e-06
-1.36544e-06
-2.35648e-05
3.27787e-06
2.18856e-05
5.17033e-05
2.90027e-05
-1.3064e-05
-5.86813e-05
5.63754e-06
-7.64298e-05
1.79856e-05
7.51127e-05
1.4754e-05
-2.12333e-05
-2.5406e-05
-4.92721e-05
-5.29723e-05
2.08379e-05
1.24284e-05
2.07496e-05
9.06754e-06
8.77958e-06
1.15923e-06
1.46408e-05
5.08726e-05
7.66632e-06
4.65837e-05
-7.89832e-06
-5.84108e-05
-6.32849e-05
-3.47145e-06
-1.43821e-05
8.692e-05
3.95544e-05
-6.77423e-06
-6.18053e-05
-4.16671e-05
2.53863e-08
5.53432e-05
6.64665e-05
0.000102062
8.20057e-05
-1.54975e-05
-5.98222e-05
1.70593e-05
7.3331e-05
3.42008e-06
2.56508e-05
-5.03128e-05
-5.57218e-05
-6.52763e-05
7.40367e-05
4.12925e-05
-7.43633e-06
-5.26844e-05
-0.000138325
-6.27017e-05
-6.75767e-05
4.12583e-05
3.6778e-05
5.76655e-05
-9.58946e-06
-8.42864e-05
-3.18851e-05
1.94244e-05
1.06734e-05
5.34549e-05
6.62898e-05
1.15601e-05
4.55087e-05
-1.98927e-05
-3.20993e-05
-2.30645e-05
-1.21805e-05
-2.93052e-05
-8.68403e-05
-3.85738e-05
-1.32879e-05
2.49151e-06
-7.49059e-06
-2.34588e-05
-1.90768e-05
1.89818e-07
3.16128e-05
9.34107e-05
4.04559e-05
-2.85446e-05
-8.44059e-06
-0.000118515
-6.19079e-05
-3.47091e-05
-3.13892e-05
5.58378e-05
0.000135834
0.000120447
0.000115633
1.27287e-05
5.96935e-06
4.86629e-05
4.1115e-05
8.81945e-05
0.000132425
1.61006e-05
-5.25377e-05
-2.9551e-05
-6.74836e-05
-0.000122331
-0.000117062
-1.74896e-05
-1.82828e-05
-6.63218e-06
-2.39503e-05
5.90093e-05
-3.03094e-07
-1.52499e-05
-5.47582e-05
1.20276e-05
2.72459e-05
-2.72808e-05
1.80585e-05
5.66258e-05
2.6424e-05
4.43231e-06
3.90117e-05
1.71427e-05
-3.87859e-05
-1.19539e-05
-3.82408e-05
-0.000102309
-1.6976e-05
8.83362e-05
-5.24889e-05
1.16928e-05
7.69029e-05
8.54707e-05
9.71284e-05
-1.90028e-05
-7.86503e-05
-2.24665e-05
-6.02441e-05
-4.60816e-05
-4.53896e-05
-4.36886e-05
-5.55487e-06
-1.65172e-05
-3.52583e-05
4.21664e-05
3.28127e-05
5.86581e-05
8.84732e-05
0.000148693
0.000166387
4.12824e-05
-2.37622e-06
-5.88269e-05
-0.000105157
-0.00013867
-0.000100305
-8.29828e-05
-5.25759e-05
-3.32832e-05
-6.00051e-06
-6.61263e-07
3.63372e-05
2.98632e-05
7.85202e-05
-2.52128e-06
-1.00803e-05
-4.12754e-05
-1.63539e-05
-7.26771e-06
-2.78109e-05
4.64978e-05
2.32782e-05
3.5796e-05
2.84183e-05
5.24292e-05
4.57798e-06
1.08966e-05
-1.47809e-06
-5.03602e-06
-4.38026e-05
-8.42243e-06
-7.72364e-06
-6.51835e-05
-5.12108e-05
-1.26079e-05
-4.1538e-05
-0.000117807
-2.54589e-05
-7.17062e-05
-0.000120964
-3.212e-05
4.74948e-06
3.17545e-05
8.40432e-05
-7.91834e-06
-2.65983e-05
-1.67348e-05
3.26748e-05
9.16149e-06
3.60815e-05
3.73318e-05
5.52261e-05
5.96588e-05
7.849e-06
2.46066e-05
-1.19792e-05
-9.44688e-06
-0.000101012
-6.75134e-05
1.93537e-05
-4.07855e-05
2.79213e-07
2.29945e-06
-8.37422e-06
9.50868e-05
5.95253e-05
4.22936e-05
7.90393e-05
3.95745e-05
-3.15289e-05
-4.59463e-06
5.90739e-06
2.49002e-05
-2.12655e-05
4.60653e-05
-1.29537e-05
1.86457e-06
-6.51506e-05
-7.55339e-05
-9.31099e-05
-7.57549e-05
1.93481e-05
5.71624e-05
-9.49678e-05
-8.2053e-05
-6.14918e-05
-3.02422e-05
4.96093e-05
5.50228e-05
9.27344e-05
8.26371e-05
5.98259e-05
1.31649e-05
1.70154e-05
1.0295e-05
4.29114e-05
6.65968e-05
3.13468e-05
6.75721e-05
6.26445e-05
0.000118508
7.67609e-05
5.1261e-05
0.000101968
0.000207999
0.000357424
0.000470749
0.000806649
0.00123827
0.0019309
0.00309542
0.00500442
0.00801236
0.0125024
0.0196559
0.0310863
0.0493322
0.0782187
0.123979
0.196267
0.310895
0.492626
0.780169
1.23536
1.95794
3.10371
4.91547
7.79401
12.3764
19.6272
31.1524
49.6149
79.0085
125.685
200.379
319.188
506.038
803.048
1278.49
2010.25
3126.44
4846.72
7324.67
10741.1
15668.4
21160.3
2.42168e-05
-3.53384e-05
-3.71694e-06
3.54582e-05
1.62636e-05
1.2212e-05
-1.67669e-05
1.18527e-05
-4.68803e-06
-4.05945e-05
-2.08992e-05
-4.49335e-06
1.41625e-05
7.16746e-06
2.14543e-05
6.55912e-05
-3.00732e-05
-6.60654e-06
-3.33009e-05
-3.60661e-05
-1.12443e-05
6.72126e-05
6.48287e-05
4.62533e-05
3.15121e-05
6.35874e-05
4.31069e-05
-2.05925e-05
-4.60877e-05
-4.46724e-05
-5.1279e-05
-9.28695e-06
-3.35055e-06
-3.27866e-05
-3.80705e-05
3.28075e-05
5.13992e-05
6.16474e-05
6.03557e-05
3.85848e-05
-1.51476e-05
2.64985e-05
-1.04242e-05
-0.000131797
-2.3848e-05
0.000113921
7.3998e-05
1.19502e-05
-8.24158e-05
-1.88224e-05
-3.00351e-05
-6.53919e-05
-0.000145242
-6.9507e-05
-7.95721e-06
-3.86008e-05
8.19516e-05
3.47564e-05
1.52921e-05
1.33885e-05
-2.66204e-05
-0.000119705
-8.62471e-05
-8.4052e-05
4.05959e-05
0.000168619
2.91067e-05
-5.1296e-05
-0.000120992
-2.96225e-05
0.000124137
8.14474e-05
4.66144e-05
-4.55257e-06
-1.10948e-05
5.76104e-08
-9.57935e-05
-8.9061e-05
6.4869e-06
-4.53674e-05
-1.82214e-05
-6.36457e-05
2.97132e-05
-8.6913e-06
4.60566e-05
0.000101073
0.000110659
2.78899e-05
-5.21325e-05
-8.28602e-05
-5.32986e-05
-5.49326e-05
-4.3502e-05
9.90759e-06
6.49194e-05
8.20418e-05
-3.16818e-05
6.19478e-06
-1.20899e-05
0.000125024
9.11487e-05
0.000149908
3.30504e-05
-3.9232e-05
-2.64645e-05
-1.93749e-05
-2.67274e-05
2.86862e-05
-5.99531e-05
-6.78142e-05
-1.90775e-05
6.14062e-05
-2.18522e-05
-8.57965e-05
-2.32113e-05
-7.95721e-06
-3.58495e-06
-1.18632e-05
1.48983e-05
-1.87442e-05
-3.919e-05
1.39069e-06
-1.46239e-05
3.78378e-06
1.40232e-05
-5.69205e-05
5.45593e-06
8.95111e-05
6.47001e-05
7.09866e-05
-1.45143e-05
-2.03504e-05
-7.13643e-06
-1.93968e-05
2.5e-05
9.38983e-05
5.28907e-05
7.42674e-05
5.77381e-05
6.24733e-05
-1.32528e-05
-4.54871e-05
-9.53661e-05
3.06938e-05
5.44227e-05
0.000133643
0.000130219
4.42829e-05
7.61765e-07
-2.19819e-05
2.43761e-05
0.000101042
3.50114e-05
7.09118e-06
-2.18644e-05
-0.00011061
-4.31987e-05
1.99858e-05
4.4291e-05
7.50103e-05
1.94026e-05
1.04291e-05
-7.53491e-05
-0.000116291
-0.000105097
-6.54378e-05
3.12529e-05
1.63221e-06
-6.3386e-06
1.68766e-05
-4.48095e-05
-7.17168e-05
5.72472e-06
5.45184e-05
-2.13457e-05
-4.98824e-05
-5.33551e-06
-1.93989e-05
4.04836e-05
9.33974e-05
-1.6131e-05
-7.8839e-06
-1.14693e-05
-5.04316e-05
-8.12644e-05
-0.000102412
-5.82246e-05
-7.62384e-05
-0.000146519
-0.000113799
-6.19733e-06
2.0084e-05
-2.48132e-05
-3.88259e-05
-8.6881e-05
-7.30243e-05
2.63194e-07
6.17353e-05
4.17129e-05
3.33952e-05
-5.22073e-05
-4.43831e-07
-3.75153e-05
2.66053e-05
2.53303e-05
3.24429e-05
3.58383e-05
5.16454e-05
2.28601e-05
2.74142e-05
5.03742e-05
-2.75067e-05
-1.55774e-05
-9.41633e-06
4.06427e-05
-4.21134e-05
-4.11465e-05
2.01376e-05
5.64777e-05
3.99185e-05
9.5805e-05
5.29021e-05
2.88283e-05
-3.44275e-05
6.18376e-06
4.52632e-06
-4.76268e-05
4.35941e-05
4.98456e-05
-7.62366e-05
-2.64765e-05
-3.22813e-05
-2.92955e-05
-4.0629e-06
-2.34836e-05
1.9152e-05
-2.42481e-05
-2.38472e-05
1.66455e-05
3.20411e-05
-3.37302e-05
3.14755e-05
3.56542e-05
5.96978e-05
7.61792e-05
8.77334e-05
-1.82091e-05
-5.46635e-05
-2.00021e-05
1.14581e-05
-3.77474e-05
1.7228e-05
4.47931e-05
4.9534e-05
-9.4464e-06
3.40484e-05
7.66569e-05
9.94031e-05
0.000100211
0.000242333
0.000430703
0.000722295
0.00116371
0.00184762
0.00290189
0.00458345
0.007262
0.0114581
0.0180288
0.0285684
0.0452211
0.0714742
0.113092
0.178893
0.282615
0.446912
0.706636
1.11582
1.76389
2.79039
4.40656
6.96059
11.024
17.44
27.5636
43.7393
69.4743
109.939
174.3
277.214
438.49
693.003
1104.36
1739.17
2697.1
4198.99
6435.61
9532.07
14084.9
19188.7
-8.45513e-06
2.45727e-06
-1.05281e-05
-1.53023e-05
2.82534e-06
7.88105e-05
-2.88627e-05
-7.97592e-05
2.19956e-05
6.40465e-05
3.2417e-05
1.24472e-05
-1.94829e-05
9.10337e-06
-6.41972e-05
-1.68543e-05
-2.78869e-05
-0.000129951
7.05098e-05
3.49982e-05
-6.85061e-06
2.77782e-06
1.67765e-06
2.89618e-05
-2.6726e-05
-5.18269e-05
3.25621e-05
-6.65888e-08
-2.0619e-05
-6.98218e-05
-8.64625e-06
9.27648e-05
7.92581e-05
5.87067e-05
9.89532e-06
-3.80549e-05
-7.1586e-05
2.66956e-05
-1.57826e-05
-5.22827e-05
-1.37663e-05
-4.08847e-05
6.8393e-05
9.26223e-05
5.78986e-06
3.75679e-05
2.13705e-06
-3.74703e-05
7.24453e-06
8.26618e-05
-2.24668e-05
-8.60834e-05
1.06754e-06
-1.83883e-05
-1.91331e-05
-4.30843e-06
5.70228e-05
-5.98824e-05
-5.10595e-05
-4.08046e-05
-2.68234e-05
-4.38092e-05
0.000106994
9.94434e-05
3.30666e-05
3.33958e-05
-1.71083e-05
1.17278e-05
-1.30569e-05
-3.00493e-05
1.81969e-05
5.7995e-06
4.01429e-05
7.6705e-05
1.38346e-05
-7.54374e-05
-2.86191e-05
-9.10352e-05
-3.2756e-05
2.74836e-05
0.000152982
5.88598e-05
2.50022e-05
2.95102e-05
5.8505e-05
-4.4325e-05
-9.14132e-05
-7.27697e-05
-6.75176e-05
-9.1731e-07
-5.32922e-06
4.05386e-06
-5.49734e-06
-3.13043e-05
2.59112e-05
2.21755e-05
7.62658e-05
-3.34245e-06
-4.50752e-05
-2.43103e-05
8.2231e-06
2.32611e-06
9.28227e-05
7.34605e-05
0.000107144
1.6618e-05
-4.9136e-05
1.31786e-05
-4.31421e-05
-6.44374e-05
-5.24428e-05
-9.49422e-05
-6.23343e-05
-2.92621e-05
-5.89176e-05
-1.43093e-05
1.04764e-05
3.44737e-07
2.57774e-06
1.48392e-05
4.0901e-05
2.53982e-05
6.27387e-05
5.67318e-05
1.48198e-05
4.04393e-05
9.11739e-05
7.73557e-05
-5.47675e-06
-4.17919e-05
-1.0278e-05
0.000107322
6.10845e-05
9.04964e-05
-1.64212e-06
-1.42222e-05
-5.70776e-05
-0.000115447
-7.31222e-05
3.35961e-05
7.82844e-05
6.55518e-05
4.6135e-05
3.85239e-06
-3.20066e-05
5.42085e-05
3.2573e-05
4.73025e-05
5.09346e-05
5.3368e-05
-1.10919e-05
-1.29625e-05
-5.07456e-05
-7.39113e-05
-0.000115356
-6.42805e-05
7.4412e-05
1.25958e-05
-2.80891e-05
-1.79378e-05
-6.19387e-05
-4.12654e-05
-3.93079e-06
-1.59163e-05
-1.73286e-06
-4.09688e-05
-1.85468e-05
1.53916e-06
3.84573e-05
-9.71784e-06
5.99489e-05
7.60422e-05
4.79208e-05
5.8507e-05
4.0157e-05
-9.00914e-06
6.64472e-05
1.91728e-05
-1.70571e-05
8.85405e-05
0.000129953
-1.42554e-05
-0.000108539
-6.97445e-05
-6.2519e-05
1.72806e-05
-2.3514e-05
-6.08507e-05
2.64108e-05
-4.57891e-05
-7.13784e-05
-0.000147317
-0.000142438
-5.92708e-05
-5.88503e-05
-2.36232e-05
-5.58445e-05
-4.88514e-07
-4.20607e-05
-8.48342e-05
-1.25679e-05
1.71203e-06
-1.1546e-05
3.31205e-05
-1.88664e-05
-4.66275e-05
3.87258e-06
5.26468e-06
4.74716e-05
2.05729e-05
7.26296e-05
2.14298e-05
7.83678e-05
4.8392e-05
4.44926e-06
-6.19737e-05
-1.96356e-05
-6.90636e-05
-2.71895e-06
5.53317e-06
-3.51674e-05
1.79339e-05
5.16845e-05
7.90316e-06
-7.05461e-05
-0.000147824
-4.68377e-05
2.96815e-05
1.64089e-05
3.01797e-05
2.58521e-05
1.87075e-05
6.78723e-05
5.22031e-05
5.73463e-06
4.95908e-05
5.16891e-05
4.73963e-05
4.17338e-05
-1.57613e-05
-1.28636e-06
1.33315e-05
-3.81157e-05
-5.07968e-05
1.70553e-05
0.000105009
0.000132642
0.000115914
5.39525e-05
-2.89878e-06
8.47588e-05
5.48207e-05
4.26031e-05
-2.6225e-05
7.98755e-05
6.03932e-05
3.30626e-05
8.7807e-05
0.000142022
0.000197929
0.000279409
0.000591776
0.00110084
0.00170842
0.00257967
0.00411735
0.00645446
0.0101956
0.016026
0.025281
0.0399263
0.0630542
0.0995535
0.156938
0.247448
0.390544
0.616344
0.970917
1.53006
2.41465
3.80349
5.9852
9.44775
14.9103
23.4759
37.0996
58.7807
92.6516
146.04
231.539
365.549
575.274
915.878
1447.25
2243.03
3496.18
5425.06
8124.21
12141.9
16735.1
1.33196e-05
2.08627e-05
-3.82851e-05
3.36835e-06
3.98259e-06
3.29598e-06
3.25113e-05
-4.0312e-05
4.64594e-06
-2.25535e-05
3.59791e-05
3.22402e-05
1.67984e-05
-3.59216e-05
3.13525e-07
7.16833e-05
2.73057e-05
-1.44106e-05
-4.2223e-05
-1.0562e-05
2.68355e-05
-1.04503e-05
-2.61566e-05
-3.44044e-05
-6.1985e-05
-9.37219e-05
8.49775e-06
-5.97973e-05
-3.62073e-05
5.03776e-05
7.61414e-05
-1.23862e-05
-6.41795e-05
1.86399e-05
-7.26072e-05
-3.4269e-05
5.55212e-05
0.000130733
0.000113757
8.06077e-05
4.21965e-05
-6.79238e-05
-6.75396e-05
-0.000101019
-9.03131e-05
-1.37149e-06
-3.32272e-05
-6.46694e-05
-7.4049e-05
-1.26461e-05
-3.03966e-05
2.58867e-05
3.09819e-06
4.66365e-05
7.01171e-05
7.15803e-05
5.73733e-05
-2.52281e-05
-5.38525e-05
-2.70815e-05
-7.93817e-06
1.58273e-05
2.76005e-05
-9.08647e-05
-7.90427e-05
2.02028e-05
-4.68958e-05
-1.64938e-05
-1.99159e-05
-1.66691e-05
6.48925e-05
5.79932e-05
8.67824e-05
4.23662e-05
5.57338e-05
2.38144e-05
-2.30261e-05
-2.09163e-05
8.01281e-05
4.57385e-05
2.94237e-05
-1.7074e-06
-8.82028e-06
4.41697e-05
-1.27425e-06
-5.86771e-05
-5.41102e-05
-1.08026e-05
-9.89945e-06
9.91616e-06
1.4061e-05
-6.49552e-05
-2.90274e-05
1.92092e-05
1.5287e-05
1.7735e-05
-9.10079e-05
-2.57791e-05
-1.47608e-05
3.62271e-05
3.53668e-05
2.81212e-05
3.90192e-06
2.17777e-05
5.23982e-05
0.000115763
-1.66377e-05
-3.66035e-05
-3.73745e-05
-2.51963e-05
-3.7882e-05
-4.74112e-05
-4.22657e-05
6.64685e-06
1.25651e-05
5.10304e-05
-5.88718e-05
-2.36628e-05
-4.58338e-05
-4.36497e-05
-3.23409e-06
3.70757e-05
8.90778e-05
3.00335e-05
2.77974e-05
-2.55945e-05
-4.81014e-05
8.42153e-05
-3.93227e-05
1.02031e-05
7.49991e-05
4.09767e-05
4.43404e-05
9.90023e-05
-9.59574e-05
2.39972e-05
8.79057e-05
3.4051e-05
8.74735e-05
4.94401e-05
4.94844e-05
2.91905e-05
-6.07326e-05
6.7748e-06
3.80437e-05
3.68282e-05
7.62896e-06
5.6963e-06
-4.20102e-05
-7.33288e-05
-1.63929e-05
-4.60827e-05
-1.8327e-05
-0.000119821
-8.37662e-05
-0.000103761
-4.52042e-05
-1.98471e-05
9.67841e-05
1.82242e-05
-1.31788e-05
-7.54815e-05
-4.46546e-05
1.14383e-05
5.58934e-06
2.98309e-07
-2.2764e-05
-4.09741e-06
9.71245e-05
0.00010787
3.95235e-06
5.65778e-05
2.20815e-05
-3.9122e-05
-3.98442e-05
3.34105e-05
-2.36657e-06
-2.16399e-05
-5.4452e-06
7.27534e-05
8.34534e-05
9.04431e-05
3.31358e-05
-3.8381e-05
9.13032e-06
-2.14096e-05
-6.79179e-05
-9.42882e-06
4.66915e-05
-4.02389e-05
-8.66252e-05
-9.70899e-05
-6.60414e-05
-6.26592e-05
1.03019e-05
-3.12831e-05
-0.000109602
-7.36599e-05
-8.82889e-05
-0.000118368
-4.87839e-05
7.08339e-06
6.88656e-05
3.03251e-05
-1.2045e-05
4.96828e-05
7.96376e-05
-2.47143e-06
-2.11816e-05
-4.34776e-05
4.20199e-05
0.000113708
4.19271e-05
3.55205e-05
1.74586e-05
-2.19544e-05
-2.5195e-05
-4.34348e-05
-4.97112e-06
-4.92948e-07
-2.12539e-05
4.69424e-05
-4.29427e-05
-5.74633e-05
-9.49926e-05
-0.000136173
-6.12541e-05
2.06972e-05
4.65821e-05
-8.19298e-06
-6.52136e-05
2.04228e-05
4.71376e-05
1.8245e-05
7.99597e-06
7.54753e-05
3.58689e-05
8.8757e-05
6.90812e-05
-2.44419e-05
4.00814e-06
8.1493e-05
-1.39418e-05
1.49067e-05
3.66813e-05
7.11083e-05
9.47579e-05
7.784e-05
0.000153086
5.14657e-05
-4.2198e-05
-3.78806e-05
-5.0805e-05
-5.4718e-05
-1.42247e-05
-5.1284e-05
-4.1836e-05
7.12233e-05
0.000176523
0.000205356
0.000312386
0.000558133
0.00101488
0.00142587
0.00216661
0.0035858
0.00558933
0.00886937
0.0138461
0.0217288
0.0342303
0.0538854
0.0850269
0.133848
0.210581
0.331578
0.522115
0.820553
1.28949
2.03015
3.19057
5.00438
7.87451
12.4
19.462
30.64
48.4322
76.1184
119.399
188.73
297.579
466.605
741.431
1174.63
1820.48
2837.89
4446.83
6729.91
10159.3
14148.6
7.79899e-07
-1.98504e-05
2.60365e-06
-2.16378e-05
2.29595e-06
-2.84575e-05
6.30361e-06
5.11533e-05
4.72018e-05
4.9225e-05
-1.1037e-05
-4.55076e-05
-7.24032e-05
-3.15774e-05
8.37243e-05
7.16943e-05
-7.63696e-06
-3.70855e-06
6.48501e-06
2.51101e-05
-3.98798e-06
3.55252e-05
-3.0453e-05
-2.39609e-05
-2.36864e-05
1.1657e-05
-5.93491e-06
2.17625e-05
-6.00511e-05
8.69752e-06
-1.45203e-05
-1.53427e-05
-6.75734e-06
-2.54553e-05
5.5839e-06
3.87261e-05
-1.31375e-05
-1.83596e-06
-9.52271e-07
-2.40033e-05
5.79395e-05
8.7238e-05
1.74116e-05
-2.97278e-05
5.66337e-05
8.47531e-05
-3.02324e-05
-8.10154e-05
-4.82581e-05
-1.61501e-05
3.4321e-06
-9.53355e-06
-5.41799e-05
-0.000146834
-5.67263e-05
4.70641e-05
1.96142e-05
-3.19415e-05
1.10482e-05
-1.87448e-05
4.16644e-05
-1.53422e-05
-1.85762e-05
-1.51315e-05
-4.61434e-05
-6.23084e-06
-2.14084e-05
2.68641e-05
2.80337e-05
3.97099e-05
1.92264e-05
4.99978e-05
5.16211e-05
1.17047e-05
8.49522e-05
3.18611e-05
2.2898e-05
-1.07072e-05
-1.12169e-05
-7.92465e-05
2.22316e-05
6.76472e-05
3.49836e-05
5.77652e-05
3.99545e-05
-6.65701e-05
1.04256e-06
5.58282e-05
9.22819e-05
3.65282e-07
-4.59525e-05
-2.01605e-05
-2.09391e-05
-2.14469e-05
-2.41609e-05
-2.11624e-05
-9.0272e-05
-0.000155648
-2.73091e-05
-6.44608e-05
-5.80825e-05
4.26391e-05
0.000122405
0.000122006
8.18413e-05
6.87119e-05
4.33756e-05
3.8295e-05
-8.33573e-05
-7.87068e-05
-8.74423e-05
-3.08924e-08
-4.64657e-05
-7.43383e-05
-7.01429e-05
-8.57588e-05
4.37968e-05
6.0021e-06
-1.88483e-05
2.12188e-05
-6.20235e-05
-7.21425e-05
-9.46487e-05
-5.34424e-06
2.10613e-05
5.86251e-05
3.73874e-05
2.04273e-05
7.99596e-05
3.58491e-05
5.45932e-05
1.56558e-05
8.66408e-05
0.000107318
7.00088e-07
3.06069e-05
9.65933e-06
-3.95605e-06
1.73084e-05
-1.8113e-05
9.19651e-05
4.06529e-05
2.59929e-05
-1.23248e-06
-9.60891e-05
-0.000103399
-8.53374e-06
-8.93859e-06
1.4225e-05
5.71979e-05
3.30674e-05
-1.53085e-05
-9.26573e-05
-9.18082e-05
-7.49937e-05
-3.09052e-05
3.90989e-05
3.47473e-05
4.96341e-05
5.55285e-05
-2.94156e-06
5.6053e-05
1.82567e-05
8.3075e-05
5.79911e-05
-5.08433e-05
-2.69741e-05
-5.80962e-05
-0.000102307
1.5881e-05
5.78842e-05
-5.10625e-06
-5.01071e-05
6.8175e-05
6.49338e-05
3.08145e-05
-1.43486e-05
2.84147e-05
1.68631e-05
9.03432e-06
2.22656e-05
-3.30818e-05
-0.000120296
-0.000101145
2.70703e-05
2.54191e-06
6.66808e-05
7.22628e-05
2.83297e-06
-5.5329e-05
1.45236e-05
5.22447e-06
-6.06645e-05
-6.5772e-05
-9.69356e-06
2.00731e-05
9.9011e-06
-4.23419e-05
-2.62699e-05
-2.09853e-05
-0.000126779
-6.44395e-05
2.44427e-05
2.58255e-05
3.64464e-05
-4.0678e-05
-2.9287e-05
4.97335e-05
4.25716e-05
2.09826e-05
3.10703e-05
4.61676e-05
1.54536e-05
3.14633e-05
2.20193e-05
-6.58709e-05
-6.04868e-05
-4.4939e-05
-3.91086e-05
3.06383e-05
4.89194e-05
4.07722e-05
5.27202e-05
1.29997e-05
7.4898e-05
0.000111
-1.2653e-05
-4.15061e-05
-5.95699e-05
-2.70139e-05
4.49724e-05
4.60821e-05
-4.53491e-05
-1.60756e-05
8.26234e-06
4.49967e-05
-1.04228e-05
-3.5667e-05
-2.13253e-05
4.06389e-05
5.51863e-05
0.00010181
5.3962e-05
4.99438e-05
3.54824e-05
-3.8629e-05
-3.78794e-05
-6.05546e-05
-4.9444e-05
-1.95597e-05
-2.70135e-05
-2.97064e-05
1.30527e-05
2.34581e-06
7.89204e-05
8.67856e-05
3.93281e-05
9.34245e-05
0.000112488
0.000191192
0.000314157
0.000485534
0.000808016
0.00123542
0.00196253
0.00301266
0.00465514
0.00739136
0.0115728
0.0182653
0.0287488
0.0451648
0.0710924
0.111489
0.175031
0.275043
0.43229
0.678076
1.063
1.66995
2.61929
4.09732
6.42962
10.1055
15.822
24.8311
39.1679
61.4195
95.9705
151.285
238.298
372.643
590.953
937.823
1453.6
2264.62
3572.45
5452.41
8296.26
11652.4
1.51437e-05
-6.33222e-06
-2.32154e-05
3.71205e-05
2.75875e-05
1.40267e-05
-7.38351e-05
-7.15369e-05
3.84024e-06
-3.38652e-05
2.36386e-05
4.12609e-05
-1.42791e-06
6.16878e-05
-2.0766e-05
-6.21281e-05
-2.68276e-06
-1.77338e-05
4.66108e-05
1.80035e-05
8.25559e-05
4.19593e-06
-9.41908e-06
-4.91685e-05
-6.01314e-05
-2.56252e-05
1.25388e-05
-4.03502e-05
-1.15969e-05
-3.38405e-05
-2.30453e-05
-4.49276e-05
1.99823e-05
6.52793e-05
0.000121184
9.1027e-05
5.40817e-05
-4.31632e-05
-6.58799e-05
-1.69777e-05
3.72601e-05
5.99178e-05
2.54822e-05
3.08713e-05
-4.52745e-05
5.07818e-05
5.54147e-05
1.03067e-05
-4.03991e-05
-7.46908e-05
-8.29985e-05
-8.83737e-05
-6.74589e-05
2.01351e-05
7.45869e-05
6.6903e-05
3.87807e-05
2.81439e-05
1.25929e-05
2.0908e-05
-2.45015e-05
-2.12732e-05
1.57288e-05
-9.75273e-06
-2.84287e-05
-0.000101707
-6.88025e-05
-3.37831e-05
-6.56389e-06
-7.52523e-05
-2.76503e-05
1.47931e-05
-2.07147e-05
3.48818e-05
0.000109527
-3.12911e-05
-5.69822e-05
-2.12478e-05
3.63571e-05
2.3369e-05
3.34814e-05
0.000101548
6.72268e-06
-8.39907e-05
-5.44479e-05
5.63832e-05
3.37279e-05
7.06401e-05
-6.28122e-06
-1.57011e-05
2.85017e-05
6.73548e-05
6.23177e-05
2.97795e-05
1.37845e-05
7.09552e-06
-1.16644e-05
-4.38675e-06
2.77892e-05
4.23414e-05
7.04951e-05
8.674e-05
7.12978e-05
7.87167e-05
-1.32306e-05
1.84043e-05
-4.41993e-05
-6.49343e-05
-2.70217e-05
-6.60125e-05
-9.80335e-05
5.47498e-06
-2.69861e-05
-3.0987e-05
-0.000101849
-1.07818e-05
2.37103e-05
8.7055e-07
1.63324e-05
1.70456e-05
-3.80514e-05
-3.58754e-05
-1.80208e-05
-6.70378e-05
-3.50501e-05
-5.03172e-05
-1.20624e-05
5.12345e-05
-1.33338e-05
1.84042e-05
-8.64036e-06
-2.64263e-05
-1.23743e-05
2.88739e-05
8.38387e-05
8.14594e-05
-1.53118e-05
8.56427e-05
7.19284e-05
4.28687e-05
1.63867e-05
1.345e-05
2.77932e-05
-9.36477e-05
-5.31226e-05
-4.80485e-05
-2.46225e-05
2.73892e-05
-4.70741e-06
-7.11199e-05
-0.000102689
-4.90909e-05
4.55841e-06
-3.14939e-05
2.7739e-05
1.32111e-05
1.7612e-05
-3.04664e-05
-4.35648e-07
-3.62222e-05
-4.21644e-05
1.3505e-05
-3.9219e-05
-1.88455e-05
-6.07053e-05
-2.34986e-05
-8.02645e-05
-1.43429e-05
2.81654e-05
6.26407e-06
3.82319e-05
-1.38647e-05
-1.35367e-05
-9.47941e-07
-2.38965e-05
6.87153e-05
1.54535e-05
8.97318e-05
8.32023e-06
-5.8936e-05
-3.88235e-05
-9.35529e-07
1.21789e-05
-4.0712e-05
3.03461e-05
-4.8836e-06
-4.38842e-05
1.20094e-05
3.02247e-05
2.10787e-05
7.26529e-06
-2.29047e-05
-5.13975e-05
-4.10038e-05
-3.87823e-05
-5.22144e-05
-1.39814e-05
-2.12495e-05
-2.36303e-05
-3.65765e-05
-2.86248e-05
8.13453e-05
-3.15723e-05
2.18431e-05
2.67889e-05
-2.5174e-05
2.30926e-05
1.35179e-05
4.35528e-05
4.08812e-05
5.88451e-06
9.46596e-06
1.13122e-05
-1.07657e-05
-5.66112e-06
-6.38699e-06
2.68573e-05
6.30834e-05
8.01154e-05
-1.71534e-05
-1.38479e-05
4.26906e-05
8.85155e-05
4.25962e-05
6.11247e-05
8.15865e-05
4.93564e-05
0.000106668
7.30022e-05
4.74961e-06
-6.79692e-05
1.5234e-05
-3.1309e-05
2.60193e-05
-3.01377e-06
-2.8851e-05
-3.1441e-05
-6.89307e-05
-2.18712e-05
-4.47141e-05
-4.10151e-05
3.44794e-07
3.17403e-05
7.75295e-05
0.000123625
7.96418e-05
2.77816e-05
4.089e-05
2.88544e-05
3.87377e-05
4.37742e-05
-2.26474e-05
5.64491e-05
4.07645e-05
3.33685e-06
1.59407e-05
2.83799e-05
5.54992e-05
6.97296e-05
0.000123192
0.000188227
0.000438171
0.000579994
0.00100599
0.00157053
0.00253932
0.00394929
0.00606625
0.00955916
0.0150493
0.0236811
0.0370485
0.0581222
0.0911592
0.142913
0.224055
0.351747
0.550734
0.86162
1.351
2.1156
3.30262
5.17091
8.11411
12.6804
19.8519
31.2589
48.9328
76.2314
119.889
188.676
294.432
466.07
740.399
1147.71
1786.51
2830.61
4346.9
6652.26
9401.99
-3.71886e-06
2.8633e-05
6.18215e-06
-3.81664e-05
-4.17199e-05
2.86739e-05
-2.74353e-05
-1.97254e-05
-1.44179e-06
8.82599e-06
6.27461e-05
3.29289e-05
4.55857e-05
1.05236e-05
-7.12162e-06
-4.72076e-05
-6.60566e-06
-1.50507e-05
-2.72919e-05
7.72528e-05
6.54595e-06
2.54226e-05
-2.82976e-06
-7.88336e-05
-7.86612e-05
-5.14491e-05
-6.3826e-05
-8.92118e-05
-2.54395e-05
5.55217e-05
7.9861e-05
-2.05583e-05
-0.000103235
-6.06103e-06
1.46962e-05
-1.29619e-05
5.56697e-05
-7.32007e-06
8.86338e-05
0.00017223
6.48226e-05
8.24597e-05
4.86184e-05
-2.81921e-05
-4.61163e-05
-6.81199e-05
-2.93688e-05
-2.87352e-05
5.78668e-05
8.17533e-06
2.01669e-05
6.06884e-07
1.14329e-05
2.10573e-05
2.82006e-05
1.55651e-05
-4.82251e-06
-8.25282e-05
-1.20775e-05
2.7642e-05
5.83354e-05
7.43562e-05
-7.47467e-05
-0.000119181
2.54395e-05
-8.3183e-05
-2.42595e-05
1.52659e-05
4.38738e-05
6.20689e-05
4.17847e-05
5.17706e-05
-6.49883e-05
-7.38602e-05
3.91681e-05
1.56048e-05
-1.33339e-05
7.30205e-05
6.80344e-06
8.55779e-05
5.64442e-05
-5.36383e-05
-7.98244e-05
-0.000101738
-9.40964e-06
4.36452e-05
6.05963e-05
9.69918e-05
8.94769e-05
-2.29073e-05
-7.18492e-05
4.22947e-07
-2.2471e-06
-2.0627e-05
5.56796e-06
2.51681e-05
7.6964e-05
7.96324e-05
-4.76538e-06
3.60903e-05
7.01042e-05
-1.58908e-05
-7.25674e-05
-1.62091e-05
-3.01943e-05
3.08272e-05
1.07818e-05
-2.52807e-05
-7.46384e-05
-4.89e-05
-3.784e-05
-4.95338e-05
-4.58934e-05
-3.11708e-05
1.51416e-06
1.31259e-05
3.6449e-06
2.52489e-05
4.10908e-05
2.51959e-05
1.26803e-05
-1.78461e-05
-1.49867e-05
-0.000116095
-7.83806e-05
-0.000112126
-5.38596e-06
1.12679e-05
-6.16114e-06
3.21159e-05
1.49777e-05
-9.57781e-06
-6.18429e-05
-5.24338e-05
-3.48187e-05
1.28928e-05
-1.27481e-05
0.000113462
3.02501e-05
1.266e-05
6.65977e-05
0.00011001
7.36175e-05
4.22368e-05
4.02592e-05
5.90977e-05
-6.89643e-05
-5.54051e-05
-5.28805e-05
-4.34981e-05
-9.38495e-05
-5.16555e-05
-7.43704e-05
-7.5735e-05
-5.78124e-05
-8.24127e-05
-4.77702e-05
-6.28631e-05
-6.26244e-05
-4.24912e-05
-1.91326e-06
-6.3372e-05
-3.82046e-05
-6.98031e-05
-4.34689e-05
-4.5954e-05
1.99329e-05
7.27622e-05
5.30156e-05
6.40561e-05
2.47266e-05
-2.44089e-05
9.11672e-05
8.70142e-05
6.50182e-05
5.5998e-05
1.9165e-05
0.000106524
0.000130885
0.00011048
4.89464e-05
1.96774e-05
-4.70756e-06
5.07042e-06
-2.42919e-05
-6.87888e-05
-6.60123e-05
1.70331e-05
3.92089e-05
-1.08521e-05
-3.95175e-05
-2.72068e-05
3.18278e-05
-2.19567e-05
-3.59848e-05
-0.000115607
-8.61088e-06
-4.61355e-05
-7.88407e-05
-1.35382e-05
-3.72728e-05
-4.26953e-05
5.51139e-06
-5.96915e-05
5.6879e-05
6.41633e-05
7.63749e-05
-4.04068e-05
-6.75835e-06
-5.90496e-06
-3.99025e-05
7.48707e-07
2.36665e-05
-3.82822e-06
2.54795e-05
-5.86371e-05
1.179e-05
6.9895e-06
0.000135576
4.93738e-05
1.23226e-05
-4.15751e-07
-1.15395e-06
8.16936e-05
6.92831e-05
7.42e-05
8.88964e-05
6.35703e-05
3.27779e-05
2.79526e-05
5.16814e-06
-8.98522e-05
-5.61361e-06
-2.95278e-05
-2.19321e-05
-5.10584e-05
-7.3009e-05
5.38927e-05
1.33723e-05
2.34249e-05
3.29695e-05
2.57992e-05
7.1505e-05
5.65257e-05
2.70896e-05
-4.47984e-05
5.36511e-05
3.15853e-05
-4.00595e-06
9.63709e-06
-2.20322e-09
5.94954e-05
2.07315e-05
-3.56589e-05
2.63519e-07
0.000102533
0.000121162
0.000100719
0.00012994
0.000164168
0.000175874
0.000293341
0.000507427
0.000811951
0.00124628
0.00197358
0.00317755
0.00493525
0.00776213
0.0122832
0.0191652
0.0299731
0.046931
0.0735286
0.115094
0.180156
0.282289
0.44129
0.68928
1.07916
1.68774
2.63018
4.1107
6.44193
10.0526
15.7087
24.7003
38.6145
60.0239
94.2213
148.153
230.825
364.803
579.75
898.608
1397.56
2220.33
3424.09
5260.97
7469.2
1.40457e-05
-4.01681e-05
2.17021e-05
-3.75502e-05
4.73274e-05
5.35753e-05
-8.10338e-06
6.4553e-06
3.9241e-06
-3.46506e-05
-3.62374e-05
-6.36802e-05
-6.16363e-05
-7.78319e-06
1.35174e-06
5.0118e-05
2.96261e-05
-2.20934e-05
-1.5136e-05
5.2169e-05
2.05599e-05
-5.35042e-05
-8.86109e-05
-1.33391e-05
-0.000145115
-7.81649e-05
6.77092e-05
8.72866e-05
-5.05911e-06
-5.86567e-06
3.65766e-05
4.40014e-05
-3.93605e-07
5.30907e-05
9.29383e-05
9.25961e-05
1.36528e-05
2.58501e-06
6.38087e-05
1.85096e-05