/*--------------------------------*- C++ -*----------------------------------*\
| =========                 |                                                 |
| \\      /  F ield         | OpenFOAM: The Open Source CFD Toolbox           |
|  \\    /   O peration     | Version:  2412                                  |
|   \\  /    A nd           | Website:  www.openfoam.com                      |
|    \\/     M anipulation  |                                                 |
\*---------------------------------------------------------------------------*/
FoamFile
{
    version     2.0;
    format      ascii;
    arch        "LSB;label=32;scalar=64";
    class       volScalarField;
    location    "0.005";
    object      ddt0(rho);
}
// * * * * * * * * * * * * * * * * * * * * * * * * * * * * * * * * * * * * * //

dimensions      [1 -3 -1 0 0 0 0];

internalField   nonuniform List<scalar> 
180000
(
-7.86272e-12
4.8718e-11
3.28221e-11
5.18072e-11
-1.07477e-11
-1.1964e-12
9.23714e-11
2.14412e-10
4.30351e-11
9.98817e-11
-1.28683e-10
-8.1344e-11
-1.80691e-10
-1.14784e-10
-2.39618e-10
-4.19271e-11
2.38707e-10
2.37046e-10
2.1869e-11
-5.15915e-11
2.64967e-10
2.16767e-11
-1.36057e-10
2.74329e-10
1.78142e-10
4.32317e-10
2.37616e-11
1.05564e-12
-6.57827e-12
-2.15309e-10
-1.47751e-10
5.90444e-12
1.18762e-10
-1.38886e-10
4.92749e-11
2.9079e-10
8.25787e-11
1.95927e-11
-9.32616e-11
-1.99913e-10
-3.68019e-10
-4.99905e-10
-4.96132e-10
-3.78226e-10
-2.71735e-11
-3.59373e-11
1.76119e-10
3.34372e-10
1.88871e-10
-2.38015e-11
-2.00919e-11
8.31229e-11
-9.05048e-11
-5.36823e-11
1.89999e-10
-1.02124e-10
-2.53686e-10
-5.05369e-10
-3.85501e-10
5.77912e-11
7.79444e-11
1.48045e-10
1.01737e-10
1.09605e-10
9.17621e-11
3.22379e-10
5.08677e-11
1.31067e-10
2.08316e-10
7.36275e-11
4.52942e-11
6.1337e-11
4.39419e-11
-1.30067e-10
-2.71548e-10
-3.47528e-11
-2.04719e-11
-7.07052e-11
1.38605e-10
2.2745e-10
3.05597e-10
1.5217e-10
-8.5665e-11
1.77933e-10
2.55597e-10
2.00947e-10
1.66535e-10
-1.33566e-10
4.51208e-11
-5.38654e-12
-5.62758e-11
-1.2181e-10
-4.3872e-10
-3.49035e-10
-4.1626e-11
-4.45015e-10
-3.37535e-10
-8.19017e-11
-3.7778e-10
-1.00427e-10
1.08505e-10
2.79451e-10
-1.7255e-10
-1.52375e-10
1.18585e-10
-5.41004e-13
1.57032e-10
-2.88941e-11
1.17481e-10
7.07619e-11
1.23877e-11
-2.98734e-10
-4.11094e-11
-7.60538e-11
-4.66987e-11
3.12903e-11
1.18166e-10
3.01247e-10
4.10348e-10
1.8046e-10
4.62045e-11
5.67223e-12
-2.22113e-11
-4.89092e-11
-1.53647e-10
2.56757e-11
-1.47973e-11
7.61902e-11
1.01385e-10
1.45859e-10
2.99558e-11
7.02389e-11
-1.05623e-10
-2.11816e-10
8.53428e-11
1.5402e-10
-3.87456e-12
1.7966e-10
-1.23806e-10
-1.18604e-10
-4.42855e-11
1.6995e-11
-5.83248e-11
-2.90511e-10
-2.61231e-10
1.61939e-10
9.76209e-11
9.60864e-11
1.95501e-10
-7.57264e-11
-1.62589e-10
-2.93211e-10
2.14462e-10
3.31599e-10
1.38211e-11
-2.23108e-10
2.03438e-11
-8.13227e-12
-3.67991e-10
-9.79832e-11
2.69636e-11
-1.01211e-10
1.91738e-10
4.79714e-11
-3.61059e-12
-2.05274e-10
-2.64486e-10
4.71852e-11
7.35918e-11
1.08514e-10
3.01544e-10
3.25221e-11
2.19095e-10
1.84517e-10
2.94647e-11
6.36811e-11
2.6046e-10
-9.42126e-12
3.14899e-10
2.44616e-10
2.56191e-10
1.05635e-11
-1.6072e-10
-3.42241e-10
1.91952e-11
8.1659e-11
-1.32794e-10
-2.94523e-12
2.63148e-10
2.08912e-10
4.63215e-10
3.81964e-10
4.86518e-11
2.24323e-10
-5.21414e-12
2.33441e-11
5.82088e-11
-3.3377e-11
-7.58284e-11
3.74013e-11
4.50359e-11
-5.99226e-11
-7.19702e-11
4.28796e-11
8.47885e-11
2.379e-11
4.01054e-10
8.31379e-11
-9.54444e-11
-2.35646e-11
-1.40805e-10
1.84039e-11
1.83584e-11
-9.39977e-12
-1.12898e-10
-2.52266e-10
-7.63657e-10
-4.54877e-10
-2.54187e-10
-9.40501e-11
-1.26899e-10
-2.02792e-10
6.03093e-12
1.84964e-11
2.99882e-10
4.01469e-10
4.09504e-10
1.41131e-10
1.54776e-10
-2.5351e-10
-1.24358e-10
-2.0276e-11
-1.3121e-10
2.10152e-10
3.03875e-10
2.51107e-11
2.1961e-10
-3.60596e-11
4.19484e-11
1.67573e-10
-1.48663e-10
-1.00838e-10
-1.90249e-10
-1.04176e-11
8.92932e-11
-8.52955e-11
4.19476e-12
1.07425e-11
3.28412e-11
9.46355e-11
-1.1886e-10
-9.75881e-11
1.06893e-10
-2.41223e-10
-7.74135e-11
1.35822e-10
-3.912e-10
-2.60787e-10
-7.26605e-10
-8.63955e-10
-1.18205e-09
-1.91264e-09
-3.42353e-09
-5.21124e-09
-8.17139e-09
-1.24814e-08
-1.96093e-08
-3.10881e-08
-4.9277e-08
-7.81347e-08
-1.24207e-07
-1.9689e-07
-3.11678e-07
-4.94144e-07
-7.84144e-07
-1.24356e-06
-1.97167e-06
-3.12849e-06
-4.97017e-06
-7.8906e-06
-1.25296e-05
-1.99416e-05
-3.17242e-05
-5.04015e-05
-8.03689e-05
-0.000128519
-0.000205211
-0.000328215
-0.00052548
-0.000835786
-0.0013255
-0.00211467
-0.00336255
-0.00524046
-0.00808708
-0.0122023
-0.017576
-0.024436
-0.034083
-0.0385871
-1.06617e-11
3.28763e-12
-9.46004e-12
5.96573e-11
-5.1048e-11
-5.49892e-11
-1.39199e-10
-1.24203e-10
4.40964e-11
2.21109e-10
-2.32016e-11
2.4627e-10
-1.5801e-10
-2.73342e-10
-7.90853e-11
1.10384e-10
1.27705e-10
2.0056e-10
1.71466e-10
-7.60414e-11
-6.75296e-11
-5.60438e-11
-2.13727e-11
-1.24942e-11
-1.64464e-11
-9.21833e-11
-2.01877e-10
-5.00031e-11
-1.69249e-10
3.93892e-11
2.0635e-10
2.28523e-10
-1.42307e-11
3.73319e-11
-2.77932e-10
-9.92977e-11
6.87352e-11
2.16503e-10
1.47391e-10
-7.36058e-12
-1.9655e-10
-2.59135e-10
-3.73512e-10
-3.0119e-10
3.45204e-11
2.18338e-10
-5.11374e-11
-2.65187e-10
1.74577e-11
-9.22198e-11
1.55595e-10
9.34393e-11
1.39821e-10
-2.48935e-10
-1.55426e-10
5.6953e-11
1.593e-10
4.57559e-10
2.25902e-10
1.86696e-10
-1.76907e-10
-1.05331e-10
-1.9592e-10
1.0355e-10
2.85612e-10
1.1086e-10
-8.91179e-11
-4.21907e-11
-1.5841e-10
-2.1395e-10
-3.54293e-11
-1.83277e-10
1.10078e-10
7.97246e-11
6.0011e-11
5.57467e-11
1.42851e-10
2.12799e-10
1.27354e-10
5.32357e-11
2.58359e-11
2.06946e-11
1.03367e-10
8.03257e-11
-1.64743e-11
-8.55264e-11
-3.25799e-10
-1.03224e-10
1.76885e-10
9.23448e-11
4.75412e-10
2.85958e-10
1.63381e-10
1.01885e-10
-2.32921e-10
-5.08245e-10
-3.50204e-10
-3.54137e-10
-7.94985e-11
-6.16996e-11
-2.20118e-10
-2.16348e-10
-3.45785e-10
-4.58218e-10
-1.09429e-10
1.85203e-10
1.38974e-10
2.40208e-10
4.38221e-10
4.28922e-10
7.34494e-11
7.60745e-11
3.22883e-11
6.59006e-11
-2.13161e-10
-3.72044e-11
1.21124e-10
2.41694e-10
-5.42958e-11
-1.126e-10
9.26377e-11
-3.76173e-11
-2.41674e-10
-1.43357e-10
-3.99522e-11
-1.44513e-10
-1.02558e-10
1.42163e-10
5.26928e-11
1.6388e-10
3.50488e-10
2.95525e-11
-3.58311e-10
1.51265e-10
-1.01754e-10
-3.421e-10
-2.87535e-10
-3.11043e-10
7.05748e-11
3.15974e-10
4.6432e-11
2.23375e-10
1.72777e-10
1.73061e-10
1.62523e-10
-1.1455e-11
6.59299e-11
1.65476e-10
-1.53e-10
-1.55848e-10
-2.1745e-10
-3.76634e-10
-6.08664e-10
-5.62197e-10
-1.05962e-10
-3.73123e-12
1.82349e-10
3.91033e-10
4.73318e-10
2.83765e-10
2.75188e-10
2.65125e-10
1.45756e-10
4.24696e-11
-9.55235e-12
-1.14484e-10
-8.87531e-11
-2.67599e-10
2.76116e-11
1.06813e-10
1.46685e-10
6.15862e-11
-3.57959e-12
9.92547e-11
-1.53468e-10
-7.50437e-11
-1.56684e-10
-7.88665e-11
-2.1483e-10
-9.65628e-11
-5.75204e-11
-6.67419e-11
2.40658e-11
1.16975e-10
-1.19873e-11
1.256e-11
2.35212e-10
1.82308e-10
3.64658e-11
1.69144e-10
4.13157e-10
1.62811e-10
3.05311e-10
4.73707e-10
1.34669e-10
-5.74616e-11
-8.10494e-11
-2.58238e-10
6.13761e-11
1.18749e-10
6.3799e-11
-1.03623e-10
-1.44477e-11
-1.68975e-10
-1.37126e-10
-1.9658e-10
-2.12206e-10
-2.53788e-11
-7.96302e-11
4.14896e-11
2.61248e-11
3.45758e-10
2.5883e-10
-1.761e-11
1.78733e-10
-1.16571e-11
2.07031e-11
3.02294e-11
-3.12459e-10
-2.14414e-10
-1.20073e-10
-2.67648e-10
-1.33428e-10
1.63195e-10
3.55913e-11
-9.09249e-11
-1.36621e-10
9.05758e-11
-1.48987e-10
4.6906e-11
-4.43955e-11
2.05981e-10
3.06913e-10
3.1125e-10
2.26973e-10
-9.29862e-11
-1.31927e-10
3.99803e-10
2.57976e-10
1.99385e-10
7.63186e-11
-2.01699e-10
-2.09364e-10
-3.12941e-10
-2.89253e-10
-1.66371e-10
2.35206e-11
-8.48697e-11
2.27595e-11
-1.3692e-10
-2.00175e-10
-1.06319e-10
-2.91313e-10
-2.08636e-10
-4.11753e-10
-1.85646e-10
-8.81718e-11
-1.94061e-10
-5.01794e-10
-8.69881e-10
-1.07888e-09
-1.90183e-09
-2.90148e-09
-4.52624e-09
-7.34768e-09
-1.20495e-08
-1.9288e-08
-2.99651e-08
-4.69223e-08
-7.42808e-08
-1.18064e-07
-1.87321e-07
-2.9694e-07
-4.69877e-07
-7.44275e-07
-1.17937e-06
-1.86764e-06
-2.95709e-06
-4.68791e-06
-7.43358e-06
-1.17727e-05
-1.8675e-05
-2.96729e-05
-4.70535e-05
-7.46893e-05
-0.000119075
-0.000189703
-0.00030169
-0.000480853
-0.000764765
-0.00120841
-0.00191372
-0.00304615
-0.0047691
-0.00735547
-0.0112846
-0.0167225
-0.0238214
-0.0338779
-0.0429104
-7.41289e-11
9.84079e-11
-1.79291e-11
-1.53506e-10
-6.54907e-11
-5.276e-11
-1.56053e-12
-5.37681e-11
1.68451e-11
1.25619e-10
4.59593e-11
-8.44661e-12
-2.32932e-11
-1.2762e-11
-7.51825e-11
-1.86629e-10
1.22241e-10
3.93049e-11
1.54027e-10
5.56093e-11
4.55561e-11
-2.60736e-10
-2.60714e-10
-1.76855e-10
-1.39011e-10
-2.36331e-10
-9.18672e-11
1.45342e-10
2.27407e-10
1.33273e-10
1.97995e-10
6.18262e-11
3.47664e-11
1.19262e-10
7.03373e-11
-1.66121e-10
-1.7683e-10
-2.67766e-10
-1.67888e-10
-1.13384e-10
4.31594e-11
-5.35888e-11
6.55438e-11
4.83898e-10
3.06434e-11
-4.16656e-10
-2.20211e-10
1.36754e-11
3.05709e-10
8.89737e-11
1.20525e-10
2.91346e-10
4.96848e-10
1.97181e-10
-1.88381e-12
1.21856e-10
-3.57546e-10
-1.27395e-10
-9.20302e-11
-5.0548e-11
7.91253e-11
4.39132e-10
2.59811e-10
2.57408e-10
-1.62063e-10
-5.81656e-10
-4.02006e-11
1.98641e-10
4.26617e-10
4.20899e-11
-4.95918e-10
-2.86506e-10
-1.47623e-10
2.5007e-11
3.33714e-11
6.51178e-11
3.34309e-10
3.46714e-10
-6.7376e-11
2.068e-10
1.33141e-10
2.36399e-10
-1.29084e-10
1.24526e-11
-2.05882e-10
-4.0914e-10
-3.60786e-10
-1.13724e-10
1.94464e-10
2.68219e-10
2.0682e-10
2.00912e-10
1.42904e-10
-1.96289e-11
-2.62595e-10
-2.08331e-10
1.59244e-10
-1.23258e-11
1.47127e-11
-4.92996e-10
-3.27902e-10
-5.33119e-10
-7.13806e-11
1.76946e-10
1.06609e-10
1.80324e-11
7.74862e-11
-4.3911e-11
1.82453e-10
1.9883e-10
5.66373e-11
-2.20087e-10
9.95932e-11
3.28406e-10
5.14382e-11
5.45589e-11
1.92129e-11
3.34933e-11
-3.9567e-11
3.92366e-11
1.36854e-10
-1.63611e-11
6.75766e-11
-3.45273e-11
-5.76647e-11
2.22412e-10
-4.11085e-11
-2.92258e-10
-2.22525e-10
-2.04219e-10
4.5353e-11
9.40337e-11
1.88835e-11
8.79878e-11
-5.27206e-11
-3.75369e-10
-1.74565e-10
-2.58844e-10
-2.00101e-10
-1.9684e-10
8.05107e-11
1.70804e-10
3.03614e-10
-1.65653e-10
-1.88487e-10
-4.75317e-10
-4.88959e-10
-1.2808e-10
-9.04115e-12
7.19311e-11
-1.24619e-10
-3.62848e-10
-7.89798e-11
-7.31599e-11
5.0421e-11
3.52015e-10
1.55509e-10
-1.42121e-10
-1.77129e-10
-2.81913e-10
-4.768e-11
-1.97863e-11
2.99742e-10
4.70031e-10
3.5051e-10
2.3503e-10
-1.43942e-10
5.17764e-11
7.81496e-11
-5.9777e-11
1.33153e-10
2.75265e-10
8.49075e-12
-1.24467e-10
9.69419e-11
1.74034e-10
2.46488e-11
4.01503e-11
-1.70911e-10
-3.20885e-10
4.1355e-12
-2.14223e-11
3.44985e-11
2.02761e-10
2.56942e-10
3.67239e-10
2.23107e-10
2.9821e-10
5.41115e-10
3.44096e-10
1.37561e-11
-3.77057e-11
1.38165e-10
1.65098e-10
3.34408e-10
2.64542e-10
-3.33464e-11
-1.95428e-10
-1.35966e-10
-8.72285e-11
2.26741e-10
-2.26659e-11
1.51947e-10
-9.5811e-11
-4.82228e-11
-1.32248e-10
-1.05101e-10
-2.20589e-10
-6.7885e-11
-1.31827e-10
-2.14648e-10
7.39576e-11
2.77257e-11
2.16025e-11
-1.62087e-10
2.22726e-10
1.21932e-10
-1.05402e-10
-2.21368e-10
-1.4538e-10
-3.43556e-10
-1.66868e-10
-7.62725e-11
1.02552e-10
-3.63316e-11
-2.32407e-11
1.36577e-10
-1.40999e-10
-1.44171e-10
2.39224e-10
1.23721e-10
1.05276e-10
1.2995e-10
4.34833e-11
1.26041e-10
-8.80922e-12
1.45646e-10
6.98273e-11
-1.68349e-11
-5.00638e-11
1.64779e-10
-5.33482e-11
-1.14936e-10
-2.11486e-10
-2.81476e-10
-2.87365e-10
1.13787e-10
1.74597e-10
5.57582e-11
-8.12188e-11
9.53428e-11
-6.39888e-11
-1.64491e-10
-1.23728e-10
6.305e-11
-9.77671e-11
-1.9375e-10
-2.02551e-10
-1.15722e-10
-5.35598e-10
-9.5881e-10
-1.67036e-09
-2.72437e-09
-4.36121e-09
-6.87265e-09
-1.09508e-08
-1.73322e-08
-2.7366e-08
-4.29733e-08
-6.82962e-08
-1.0812e-07
-1.7092e-07
-2.70572e-07
-4.28123e-07
-6.75964e-07
-1.06896e-06
-1.68996e-06
-2.66747e-06
-4.21707e-06
-6.67359e-06
-1.05365e-05
-1.66449e-05
-2.63845e-05
-4.17515e-05
-6.59787e-05
-0.000104816
-0.000166609
-0.000263364
-0.00041717
-0.00066312
-0.0010463
-0.00165095
-0.00263527
-0.00413636
-0.00635736
-0.00982373
-0.0148763
-0.0215463
-0.0312761
-0.0401231
3.33188e-11
1.90611e-11
1.19879e-11
7.41733e-11
-1.28211e-11
-2.78545e-10
1.52832e-10
2.24502e-10
-1.10604e-10
-2.7869e-10
-9.80354e-11
-1.87864e-11
1.07952e-10
-4.03075e-11
2.1973e-10
6.2675e-11
1.09491e-10
4.27979e-10
-3.16395e-10
-7.49305e-11
4.26028e-11
-1.38335e-11
3.81985e-11
-8.02682e-11
9.63246e-11
2.01707e-10
-8.21698e-11
1.07887e-11
1.02241e-10
1.93797e-10
1.64808e-12
-3.45969e-10
-2.59425e-10
-1.93462e-10
8.32863e-12
1.42255e-10
2.73505e-10
-1.31276e-10
3.41451e-11
2.44478e-10
4.72904e-11
1.22924e-10
-3.17737e-10
-3.17507e-10
-4.62265e-11
-1.30077e-10
-4.48131e-11
9.72478e-11
-6.03445e-11
-3.0678e-10
1.22997e-10
3.12025e-10
2.43152e-12
1.08289e-10
2.94346e-11
4.67842e-11
-1.88253e-10
2.4861e-10
1.79915e-10
1.67555e-10
8.83067e-11
1.37192e-10
-3.81359e-10
-2.98755e-10
-9.56885e-11
-1.39371e-10
1.53482e-11
-7.31656e-11
-9.03872e-13
1.17699e-10
-6.50853e-11
-2.94063e-12
-1.53256e-10
-2.69059e-10
-2.67552e-11
3.20199e-10
1.31443e-10
2.807e-10
8.02027e-11
-1.1409e-10
-5.81684e-10
-2.18114e-10
-8.6162e-11
-8.81859e-11
-1.84807e-10
1.92686e-10
3.71333e-10
2.85857e-10
2.61785e-10
4.42539e-11
4.88461e-11
-1.66243e-11
3.39647e-11
1.49263e-10
-8.77447e-11
-7.10079e-11
-1.84528e-10
7.41071e-12
2.03021e-10
2.47764e-11
-4.16055e-11
-5.15508e-11
-3.32826e-10
-2.65239e-10
-3.86102e-10
-5.33996e-11
1.48125e-10
-1.0101e-10
1.66557e-10
2.29882e-10
2.1261e-10
3.70006e-10
1.69675e-10
1.04848e-10
2.17657e-10
5.90879e-11
-1.99309e-11
4.5507e-11
1.38366e-11
-5.69808e-11
-1.41286e-10
-4.84878e-11
-2.00694e-10
-1.70647e-10
-2.55222e-11
-1.20258e-10
-3.071e-10
-2.38405e-10
5.35938e-11
1.65208e-10
-3.57445e-11
-4.81987e-10
-2.65324e-10
-3.05142e-10
4.75229e-11
7.61448e-11
2.28468e-10
3.88878e-10
2.21507e-10
-1.46565e-10
-2.97983e-10
-1.60096e-10
-1.14001e-10
-2.51389e-11
1.02482e-10
-2.01872e-10
-1.56564e-10
-2.27517e-10
-1.75639e-10
-2.06688e-10
4.51404e-11
3.81111e-11
2.34295e-10
2.85628e-10
4.21139e-10
2.00347e-10
-2.42416e-10
-5.41221e-11
1.37862e-10
4.4446e-11
2.55394e-10
1.2805e-10
2.03022e-11
3.51885e-11
2.42561e-11
2.23629e-10
7.16248e-11
-1.98128e-11
-1.0602e-10
8.37318e-11
-2.10667e-10
-2.74088e-10
-1.74206e-10
-1.81951e-10
-1.68217e-10
6.19137e-11
-2.67309e-10
-1.46127e-10
9.91383e-12
-4.02137e-10
-4.3457e-10
7.05027e-11
4.02818e-10
2.17285e-10
1.80148e-10
-9.39412e-11
3.33665e-11
1.99314e-10
-1.01028e-10
1.77876e-10
2.70467e-10
4.78452e-10
4.87098e-10
2.331e-10
2.60379e-10
1.14405e-10
1.93487e-10
3.01125e-11
1.97367e-10
3.3726e-10
4.73952e-11
2.63048e-11
9.21218e-11
-8.77168e-11
6.66288e-11
2.11856e-10
-2.51728e-11
-2.22091e-11
-1.83187e-10
-9.35592e-11
-2.56359e-10
-4.34496e-11
-2.63181e-10
-1.17208e-10
-1.44327e-11
1.805e-10
7.08756e-11
2.15864e-10
-2.88868e-11
-4.08505e-11
1.07266e-10
-8.32674e-11
-1.628e-10
5.07469e-11
2.26952e-10
5.08341e-10
1.39508e-10
-6.45345e-11
-2.67322e-11
-7.30196e-11
-1.27853e-10
-6.498e-11
-1.76056e-10
-1.5133e-10
-5.84855e-12
-1.63889e-10
-1.17045e-10
-1.71777e-10
-9.38045e-11
8.29554e-11
3.33108e-11
1.9215e-11
2.25507e-10
1.65841e-10
-5.72267e-11
-3.87194e-10
-4.97476e-10
-4.28812e-10
-1.53494e-10
1.14126e-11
-3.70828e-10
-1.7762e-10
-1.2663e-10
1.13214e-10
-2.53838e-10
-1.39473e-10
-3.79962e-11
-1.38457e-10
-2.6379e-10
-3.60715e-10
-4.93302e-10
-1.35973e-09
-2.72534e-09
-4.15265e-09
-6.14141e-09
-9.84196e-09
-1.53998e-08
-2.43967e-08
-3.8258e-08
-6.03458e-08
-9.53473e-08
-1.50705e-07
-2.37932e-07
-3.74932e-07
-5.91045e-07
-9.32902e-07
-1.47232e-06
-2.31809e-06
-3.65238e-06
-5.76606e-06
-9.08018e-06
-1.42848e-05
-2.25684e-05
-3.56394e-05
-5.61013e-05
-8.87557e-05
-0.000140793
-0.000221623
-0.00034871
-0.000552685
-0.000871028
-0.00136886
-0.00218627
-0.0034513
-0.00530286
-0.00821284
-0.0126607
-0.0186307
-0.0274813
-0.0358499
-5.69237e-11
-5.14709e-11
1.35049e-10
3.38641e-11
-1.39871e-11
3.20762e-11
-8.19601e-11
1.30484e-10
-3.2695e-11
7.01515e-11
-1.34562e-10
-7.05336e-11
-6.9791e-11
9.87712e-11
-3.13618e-11
-2.73556e-10
-8.75618e-11
3.88676e-11
1.71752e-10
4.07952e-12
-9.58754e-11
6.7501e-11
6.97975e-11
1.23158e-10
2.15141e-10
3.57543e-10
-2.0211e-11
2.17543e-10
1.182e-10
-1.66242e-10
-2.0579e-10
7.06807e-11
2.45074e-10
-7.91011e-11
2.38813e-10
8.92579e-11
-2.50028e-10
-4.52493e-10
-4.40485e-10
-2.7097e-10
-1.24641e-10
2.55084e-10
3.07384e-10
3.38837e-10
2.83428e-10
1.80788e-12
1.30176e-10
2.6855e-10
2.74338e-10
1.40492e-11
1.07761e-10
-1.55461e-10
-6.16366e-11
-1.74418e-10
-2.81081e-10
-3.00584e-10
-1.58278e-10
7.82182e-11
1.93622e-10
8.94505e-11
-3.75279e-12
-4.41739e-11
-8.491e-11
3.73522e-10
3.02815e-10
-5.15886e-11
2.11089e-10
1.02133e-10
1.20968e-10
7.86113e-11
-2.73181e-10
-2.14198e-10
-2.38605e-10
-1.13915e-10
-1.47478e-10
2.07459e-11
1.05398e-10
5.24066e-11
-3.20301e-10
-1.98415e-10
-1.3157e-10
-1.85935e-12
-8.71574e-12
-1.44923e-10
5.20283e-11
2.47656e-10
1.74611e-10
1.53273e-11
2.15497e-11
-1.49878e-11
-2.51468e-12
2.3128e-10
8.26366e-11
-6.85706e-11
-2.98262e-11
-2.75361e-11
2.98734e-10
1.12692e-10
2.51328e-11
-1.47244e-10
-9.50561e-11
-1.04371e-10
-6.53499e-11
-1.00784e-10
-2.04427e-10
-4.2271e-10
5.94108e-11
1.70593e-10
1.38363e-10
9.68286e-11
1.00175e-10
1.44724e-10
1.89152e-10
-4.99261e-11
-7.01031e-11
-1.56041e-10
2.36454e-10
1.36737e-10
1.85274e-10
1.3086e-10
-1.23327e-11
-1.39589e-10
-3.11495e-10
-8.43299e-11
-8.74433e-11
1.02744e-10
1.83095e-10
-3.15202e-10
1.9986e-10
-7.24056e-11
-2.90877e-10
-1.14555e-10
-1.03233e-10
-3.90878e-10
3.63354e-10
-7.63219e-11
-2.96938e-10
-1.22384e-10
-3.32043e-10
-1.8308e-10
-1.83549e-10
-8.92219e-11
1.86912e-10
-8.38679e-11
-1.68893e-10
-1.77622e-10
-8.09209e-11
-3.28993e-11
1.73867e-10
2.37388e-10
-1.56255e-11
1.36114e-10
7.64495e-11
4.04993e-10
2.86699e-10
3.60592e-10
1.45558e-10
3.16441e-11
-3.13751e-10
-5.06658e-11
2.49875e-11
2.69983e-10
1.65774e-10
-1.3763e-12
-6.17161e-12
1.72606e-12
1.11554e-10
-2.82957e-11
-3.09591e-10
-3.78949e-10
2.06265e-11
-1.93535e-10
-1.09026e-10
6.6616e-11
1.64035e-10
-1.23968e-10
1.19964e-11
6.23081e-11
-3.25346e-11
-2.91211e-10
-2.58041e-10
-3.58821e-10
-1.59064e-10
1.3416e-10
-9.11902e-11
5.06331e-11
2.09236e-10
-3.97747e-11
-2.27552e-10
1.6075e-10
3.38733e-10
3.40879e-10
2.02264e-10
2.34491e-10
6.23051e-12
1.91178e-10
4.41945e-10
2.97626e-10
3.45492e-10
4.17433e-10
1.80027e-10
-5.33678e-11
-2.618e-10
-8.36494e-11
7.00277e-11
-1.87546e-10
-2.43856e-10
3.66716e-11
9.15087e-11
1.41101e-10
-2.00379e-10
-4.28966e-10
-1.08694e-10
-1.26546e-10
-7.55106e-11
9.30067e-11
5.9529e-11
1.47715e-10
-6.31404e-11
-7.56725e-11
1.09059e-10
-1.31271e-10
1.9516e-10
1.88031e-10
3.24748e-10
5.067e-10
2.24963e-10
-8.55204e-11
-1.80002e-10
5.08941e-11
2.89392e-10
-1.05492e-10
-1.75779e-10
-1.82967e-11
-1.78255e-11
-2.7018e-10
-1.14728e-10
-2.65814e-10
-1.69075e-10
1.39095e-10
-5.03388e-12
-2.44827e-10
1.27947e-10
-8.07229e-11
-1.83816e-10
-2.77162e-10
-4.31358e-10
-3.29762e-10
-5.46648e-10
-1.6328e-10
1.15552e-10
1.10372e-10
1.75299e-10
2.31184e-10
5.58328e-11
2.25337e-10
2.3355e-10
-1.11578e-10
-4.20715e-10
-4.24356e-10
-6.62812e-10
-1.34358e-09
-2.55718e-09
-3.44257e-09
-5.09432e-09
-8.64293e-09
-1.33849e-08
-2.12917e-08
-3.31351e-08
-5.17854e-08
-8.16998e-08
-1.28507e-07
-2.03014e-07
-3.19431e-07
-5.02451e-07
-7.91169e-07
-1.2457e-06
-1.95668e-06
-3.07374e-06
-4.84097e-06
-7.60618e-06
-1.19237e-05
-1.87771e-05
-2.95954e-05
-4.64394e-05
-7.31845e-05
-0.000115866
-0.000181858
-0.000284566
-0.000449715
-0.000708332
-0.00110915
-0.00176944
-0.00280575
-0.00431281
-0.00668471
-0.0104512
-0.0156084
-0.0233345
-0.0308861
4.04955e-12
8.03509e-11
7.20662e-13
5.68211e-11
2.22239e-11
1.2237e-10
-4.5446e-11
-1.81797e-10
-1.57387e-10
-1.47279e-10
9.46661e-11
1.47895e-10
2.24063e-10
1.29944e-10
-2.83414e-10
-2.374e-10
-3.39813e-12
8.90184e-11
-2.46836e-11
-9.0273e-11
1.34631e-11
-1.19282e-10
8.18566e-11
7.65234e-11
1.15337e-10
-2.40301e-11
1.10145e-11
-5.72133e-11
2.88076e-10
-3.39113e-11
3.97231e-11
9.92053e-11
-3.13932e-11
1.3256e-10
3.45533e-12
-1.67352e-10
4.43607e-11
3.9288e-11
3.1427e-11
7.36179e-11
-2.41802e-10
-3.19494e-10
-7.00317e-11
1.37549e-12
-2.31989e-10
-3.32462e-10
7.47254e-11
2.30085e-10
1.46844e-10
1.69078e-11
5.88585e-12
3.25063e-11
1.79771e-10
4.6481e-10
1.7865e-10
-1.79783e-10
-4.98364e-11
8.02097e-11
-3.01282e-11
5.87554e-11
-1.0532e-10
7.64065e-11
1.02197e-10
8.7414e-11
2.15247e-10
3.30192e-11
1.16398e-10
-5.86032e-11
-6.02854e-11
-1.00276e-10
-5.18327e-11
-1.97697e-10
-1.79124e-10
-4.5741e-11
-3.23308e-10
-7.55329e-11
-1.59065e-11
-2.29116e-12
5.59682e-11
2.98884e-10
-1.05163e-10
-2.14351e-10
-1.54183e-10
-2.01982e-10
-1.45116e-10
2.18643e-10
-6.3507e-11
-2.31433e-10
-3.41471e-10
-4.81083e-11
1.55771e-10
1.4583e-10
4.30467e-11
7.77506e-11
1.12761e-10
1.18695e-10
3.60612e-10
5.92884e-10
1.17373e-10
2.16196e-10
1.73232e-10
-1.32559e-10
-4.52405e-10
-4.63946e-10
-2.52402e-10
-3.34163e-10
-1.60033e-10
-1.03664e-10
2.60425e-10
1.60451e-10
2.761e-10
1.13293e-12
1.64095e-10
3.07785e-10
2.24166e-10
2.98933e-10
-1.11641e-10
2.17155e-11
1.08194e-10
-1.00115e-11
2.22295e-10
2.89634e-10
4.30671e-10
1.22506e-11
-4.01627e-11
-2.10426e-10
-6.776e-11
-4.88935e-11
-2.77655e-10
-1.40656e-10
-1.95143e-10
-8.88646e-11
-2.98812e-10
-3.87722e-10
1.90223e-11
-9.05093e-11
-3.29097e-11
4.85028e-12
-3.40153e-11
6.19479e-11
-3.6714e-10
-1.319e-10
-3.38733e-11
2.11478e-12
2.39106e-10
2.8587e-10
-8.61094e-12
3.08574e-12
-9.15097e-11
-2.1556e-10
-1.20167e-10
1.0745e-10
4.20917e-10
3.19352e-10
2.82594e-10
1.02362e-10
-6.48518e-11
-6.90206e-11
-1.90454e-10
-2.26453e-10
-1.46636e-12
-2.06754e-10
-1.09492e-10
-3.00675e-10
-2.35997e-10
1.72643e-10
1.04916e-10
2.02243e-10
3.62026e-10
-3.88694e-11
-2.47457e-10
4.21655e-11
1.28137e-10
-2.94794e-10
-2.66271e-10
-1.03456e-10
1.59496e-12
-8.67005e-11
-7.99873e-11
-1.03234e-10
-5.26994e-11
1.38175e-10
4.1945e-10
2.96445e-10
-9.0778e-11
-5.95722e-11
-2.67289e-10
-2.48576e-10
-9.6432e-13
1.9192e-10
-3.75858e-11
-1.57562e-11
2.23506e-10
2.15915e-10
1.06714e-12
-2.31813e-11
-1.60571e-11
1.89746e-10
1.11044e-10
1.31545e-10
4.6642e-10
2.32577e-10
-1.07863e-10
-4.39655e-11
-7.11882e-11
1.14084e-10
9.76388e-11
-2.09435e-10
-1.13508e-10
-7.34434e-11
-8.17463e-11
-1.70055e-10
-4.50778e-11
-6.24037e-11
-5.19949e-11
2.53222e-10
2.44967e-10
1.61674e-10
1.22356e-10
-1.55343e-10
-1.89439e-10
-1.76258e-10
-2.50879e-10
-7.98901e-11
-2.42451e-10
-3.22514e-10
7.91052e-11
1.3276e-10
1.72565e-10
7.0466e-11
-1.53421e-10
-1.08622e-10
1.72774e-10
8.90151e-11
2.02381e-11
-1.10541e-10
8.40344e-11
1.57277e-10
7.43345e-11
-1.73634e-10
-1.84095e-10
-3.40517e-10
-1.54617e-10
-1.77123e-10
-1.48453e-10
9.4682e-11
1.43558e-10
1.73867e-10
1.82663e-10
1.12863e-10
1.05244e-10
7.78818e-11
-1.81421e-11
-2.24549e-11
-3.08821e-10
-2.91694e-10
-3.34185e-11
-2.36609e-10
-2.4253e-10
-4.15488e-10
-6.99691e-10
-1.12996e-09
-1.99239e-09
-2.9863e-09
-4.69909e-09
-7.17992e-09
-1.10466e-08
-1.75815e-08
-2.75514e-08
-4.35903e-08
-6.85597e-08
-1.07732e-07
-1.69627e-07
-2.65758e-07
-4.17098e-07
-6.55463e-07
-1.0303e-06
-1.61526e-06
-2.53084e-06
-3.97723e-06
-6.23687e-06
-9.74902e-06
-1.53089e-05
-2.40888e-05
-3.77073e-05
-5.92298e-05
-9.36023e-05
-0.000146592
-0.000228379
-0.000359946
-0.000566734
-0.000885144
-0.00140999
-0.00224264
-0.00344873
-0.00534314
-0.00843494
-0.0127451
-0.0192548
-0.0257922
-8.18824e-12
3.7131e-11
7.25171e-11
-1.74134e-10
-9.01598e-11
2.95074e-11
2.83775e-10
2.07944e-10
-6.49558e-11
6.67011e-11
-1.52798e-10
-1.27013e-10
-2.59451e-11
-2.15219e-10
1.12216e-10
2.18798e-10
2.97588e-11
6.78777e-11
-1.32515e-10
-1.14674e-10
-3.32416e-10
-7.06845e-12
6.37454e-11
2.06488e-10
1.96165e-10
1.00339e-10
-1.8307e-11
1.42642e-10
3.83148e-11
1.29526e-10
9.28971e-11
1.41523e-10
-7.38953e-11
-2.40435e-10
-4.35085e-10
-3.18473e-10
-1.55169e-10
9.22111e-11
2.18578e-10
4.28481e-11
-1.21797e-10
-2.32758e-10
-8.00982e-11
-1.14801e-10
1.31011e-10
-1.88888e-10
-1.61651e-10
-6.69288e-11
1.89056e-10
2.89458e-10
3.29973e-10
3.27681e-10
2.06067e-10
-1.00712e-10
-2.84243e-10
-2.12983e-10
-1.66691e-10
-5.74548e-11
-6.20499e-11
-6.97687e-11
7.27312e-11
6.50014e-11
-7.67796e-11
1.07394e-10
1.09461e-10
2.90828e-10
2.4558e-10
1.68508e-10
3.08699e-11
2.87431e-10
9.78539e-11
-5.93237e-11
1.99936e-11
-1.50575e-10
-3.64847e-10
1.34567e-10
2.2607e-10
-1.29789e-11
-1.8228e-10
-1.04776e-10
-5.50783e-11
-2.95664e-10
1.25426e-11
2.85779e-10
1.8072e-10
-1.76068e-10
-1.04156e-10
-2.33187e-10
3.36445e-11
6.12234e-11
-7.77181e-11
-2.42634e-10
-2.04307e-10
-9.43937e-11
1.33505e-11
-5.63814e-12
6.12377e-11
-2.16012e-11
-1.43033e-10
-1.63526e-10
-2.31124e-10
-3.02046e-10
-2.95817e-10
-3.04179e-10
1.77512e-11
-8.34068e-11
1.85303e-10
2.05536e-10
4.07036e-11
2.73185e-10
3.54784e-10
2.88108e-11
1.32198e-10
1.14337e-10
3.36139e-10
2.78904e-11
-1.1302e-10
-2.75114e-11
-7.60587e-11
-2.81542e-11
9.69327e-11
1.33278e-10
8.64755e-11
2.7007e-10
1.48936e-10
1.63206e-10
-4.52446e-11
-9.696e-11
1.10445e-10
-3.73026e-11
6.76009e-11
4.52541e-11
5.7135e-11
-1.4018e-10
-2.74936e-10
-2.05306e-10
8.9968e-11
-3.21929e-10
-3.02248e-10
-1.58754e-10
-8.87321e-11
-5.90738e-11
-1.30757e-10
3.08042e-10
1.8161e-10
1.55953e-10
9.96247e-11
-8.312e-11
-1.50088e-11
2.35813e-10
3.34227e-10
9.4118e-11
-2.65468e-11
1.00038e-10
-1.06165e-10
-9.30829e-11
-3.78134e-11
9.0574e-11
-1.72767e-11
7.73937e-11
1.06917e-10
-5.0606e-11
1.20555e-10
1.3697e-10
2.99331e-10
5.66994e-11
2.28035e-10
6.08913e-11
-9.86315e-11
-1.71975e-11
-1.77797e-10
5.6097e-11
3.73258e-11
2.22505e-11
7.90082e-11
-2.78198e-10
-9.17025e-11
-3.59804e-10
-6.45426e-11
2.67675e-10
1.16822e-10
-3.87574e-11
-5.26368e-11
1.42533e-10
-1.38838e-10
2.99492e-12
1.27603e-10
-5.16661e-11
-1.25602e-10
-6.67087e-11
-1.23304e-11
7.7993e-11
2.00662e-10
9.9835e-11
1.35384e-10
1.54347e-10
3.54765e-11
7.9474e-11
1.10305e-10
1.527e-10
1.33066e-10
-2.41792e-10
1.28658e-10
-8.51245e-11
-5.50522e-11
1.07325e-10
-3.52521e-11
-3.41452e-11
-1.70355e-10
-9.90962e-11
-1.20668e-11
-1.92413e-11
-1.602e-11
7.25906e-11
5.01038e-11
1.4347e-11
-5.12985e-11
-2.03144e-10
-2.38202e-10
1.08621e-10
6.72908e-11
-1.32404e-10
-2.57722e-10
-1.40153e-10
-2.27747e-10
-2.68755e-10
-1.94127e-10
-3.5978e-10
-2.30606e-10
-2.92905e-11
2.49424e-10
-5.31637e-11
3.78948e-11
-6.71612e-11
6.58133e-11
1.26736e-10
1.73604e-10
2.49812e-10
1.1528e-10
2.08949e-10
1.65629e-10
1.45925e-11
-7.47574e-11
-2.86347e-10
-4.67247e-10
-2.81187e-10
-4.52089e-11
-1.99236e-10
-1.26004e-10
-1.42387e-10
-1.66879e-10
1.0383e-10
-1.9658e-10
-1.2655e-10
-1.07464e-11
-2.71202e-11
-6.893e-11
-1.03968e-10
-1.24149e-10
-1.85021e-10
-3.71547e-10
-1.13362e-09
-1.27327e-09
-2.43242e-09
-3.73483e-09
-6.1345e-09
-9.48263e-09
-1.43835e-08
-2.27875e-08
-3.59232e-08
-5.64924e-08
-8.82114e-08
-1.38392e-07
-2.17014e-07
-3.4022e-07
-5.33303e-07
-8.37564e-07
-1.31062e-06
-2.04921e-06
-3.21416e-06
-5.03247e-06
-7.84948e-06
-1.22971e-05
-1.93216e-05
-3.01901e-05
-4.73009e-05
-7.46326e-05
-0.00011669
-0.000181178
-0.000284872
-0.000448351
-0.000698902
-0.00111167
-0.00177184
-0.0027259
-0.0042197
-0.00670401
-0.010216
-0.0155503
-0.0210135
-1.22668e-11
-8.05686e-11
4.12784e-11
1.40364e-10
1.56431e-10
-1.20513e-10
1.11611e-10
5.04729e-11
1.0274e-11
-5.7904e-11
-2.57521e-10
-1.06285e-10
-1.30802e-10
-6.2016e-11
2.9652e-11
1.38544e-10
4.37503e-12
5.04752e-11
1.12815e-10
-2.71899e-10
-3.61507e-11
-1.00406e-10
3.43088e-12
2.6037e-10
2.7367e-10
1.96365e-10
2.17333e-10
2.64995e-10
9.55051e-11
-1.70184e-10
-2.74777e-10
1.1007e-10
3.84952e-10
5.83606e-11
-1.00083e-10
3.71887e-11
-2.2561e-10
2.45822e-11
-3.74286e-10
-6.44319e-10
-2.16877e-10
-2.25262e-10
-1.34871e-10
1.28436e-10
2.097e-10
2.65009e-10
1.34281e-10
9.7104e-11
-2.25988e-10
-5.05029e-11
-1.20057e-10
3.47353e-12
-1.97725e-11
-9.25734e-11
-1.26791e-10
-7.46873e-11
1.74422e-11
2.54754e-10
2.01021e-11
-1.1982e-10
-1.56322e-10
-1.89089e-10
3.17448e-10
4.48288e-10
-7.0998e-11
2.93204e-10
7.26013e-11
-3.03194e-12
-1.62342e-10
-1.93164e-10
-1.49377e-10
-1.55333e-10
1.94018e-10
2.72159e-10
-1.24995e-10
-6.29073e-11
6.58889e-11
-2.99424e-10
-7.11905e-11
-2.80249e-10
-1.70932e-10
2.1789e-10
3.27523e-10
3.48027e-10
3.87169e-11
-2.13912e-10
-1.75002e-10
-2.61357e-10
-2.82657e-10
7.19823e-11
2.28321e-10
1.74106e-11
8.05181e-13
2.42296e-11
-4.91068e-11
-1.2564e-10
-3.05856e-10
-2.77762e-10
-5.26049e-12
-1.39171e-10
-2.19762e-10
7.04872e-11
2.65492e-10
1.39167e-11
3.3504e-11
-1.03776e-10
-2.27416e-11
5.42057e-11
2.71154e-10
1.40642e-10
1.72855e-10
2.18657e-10
1.70113e-10
1.2296e-10
4.88479e-12
-3.48248e-11
-4.61642e-11
-1.01059e-10
-1.76153e-10
-1.14007e-10
-8.46883e-11
4.86343e-11
7.34924e-11
4.19885e-10
2.48872e-10
3.2853e-10
1.52222e-11
-4.39766e-11
1.10641e-11
-1.05643e-10
-1.01427e-12
6.00962e-11
2.01618e-10
1.59793e-10
1.33215e-10
-4.07476e-11
2.42679e-11
-4.37956e-10
-1.34696e-10
-7.21224e-11
-2.40972e-10
-3.86134e-10
-3.09429e-10
-1.94396e-10
-1.2836e-10
-2.51467e-10
1.82544e-10
1.42135e-10
1.18966e-10
1.06277e-10
3.03887e-10
1.65171e-10
2.22057e-10
2.44985e-10
2.47243e-10
3.16284e-10
1.80865e-10
2.2842e-10
2.41797e-10
1.87583e-10
5.61872e-11
2.40322e-10
1.45588e-10
3.04691e-10
1.77208e-10
2.13517e-10
-1.00592e-10
-2.22164e-10
-1.45823e-10
-1.39061e-10
-2.21441e-11
7.64165e-11
-3.27689e-10
-2.90148e-10
-2.09358e-10
-1.61002e-10
-1.23365e-10
-4.06246e-10
-4.96479e-10
-4.15736e-10
-2.19238e-10
-9.59902e-11
2.91872e-11
1.89968e-11
1.06733e-10
2.54947e-10
1.63843e-10
-5.88068e-11
-1.85375e-10
5.6061e-11
1.0774e-10
1.00277e-10
-1.46429e-10
6.43787e-11
1.35761e-10
4.09143e-10
8.00582e-11
1.89722e-10
3.09412e-10
9.24637e-11
1.98418e-10
1.69309e-10
1.33953e-11
1.82958e-10
-2.62461e-10
-2.15671e-10
-2.35724e-10
1.707e-10
-1.02201e-11
5.14958e-11
1.78764e-10
-3.62184e-12
-4.22373e-11
7.16558e-11
-6.39488e-11
2.70079e-10
-1.86562e-11
8.43076e-12
-4.42564e-10
-8.37323e-11
-8.54449e-12
1.41332e-12
1.74215e-11
-3.04558e-10
-2.37708e-10
-2.46319e-10
-2.94004e-10
-2.56877e-10
-1.25439e-10
-1.14157e-10
3.15104e-11
2.77935e-10
2.20556e-12
1.08155e-10
1.34304e-10
1.86044e-10
2.59814e-10
-1.98224e-10
-2.72626e-11
-5.57805e-11
-1.14617e-10
-1.03318e-10
-2.03902e-10
-2.02107e-10
-5.81008e-11