/*--------------------------------*- C++ -*----------------------------------*\
| =========                 |                                                 |
| \\      /  F ield         | OpenFOAM: The Open Source CFD Toolbox           |
|  \\    /   O peration     | Version:  2412                                  |
|   \\  /    A nd           | Website:  www.openfoam.com                      |
|    \\/     M anipulation  |                                                 |
\*---------------------------------------------------------------------------*/
FoamFile
{
    version     2.0;
    format      ascii;
    arch        "LSB;label=32;scalar=64";
    class       volScalarField;
    location    "0.005";
    object      ddt0(rho,K);
}
// * * * * * * * * * * * * * * * * * * * * * * * * * * * * * * * * * * * * * //

dimensions      [1 -1 -3 0 0 0 0];

internalField   nonuniform List<scalar> 
180000
(
1.10675e-05
1.16797e-05
1.89566e-05
-1.47078e-05
2.41387e-05
-3.03593e-06
7.01921e-06
2.50146e-05
3.43622e-05
-7.52717e-06
-3.17205e-05
-1.71915e-05
-4.94223e-05
-3.12339e-05
-3.49783e-05
6.47742e-06
4.3578e-05
3.10965e-05
1.38458e-05
-4.26069e-05
6.2658e-05
2.19748e-06
-1.0948e-05
4.1588e-05
9.95388e-05
9.38925e-05
5.05299e-05
-1.99334e-05
-1.16077e-06
-5.79989e-06
-2.7796e-05
-1.98198e-05
5.8465e-05
-3.0142e-05
3.00937e-05
2.4023e-05
3.06532e-05
-2.59632e-05
1.06342e-05
-4.10639e-06
-9.33364e-05
-0.000143722
-0.000109075
-5.85041e-05
-1.05247e-05
-2.37229e-05
2.65663e-05
6.78276e-05
3.58919e-05
-1.07346e-05
7.53743e-06
-2.06308e-05
-1.034e-06
-7.16691e-06
6.00705e-05
-1.96819e-05
-4.42474e-05
-9.69687e-05
-7.7769e-05
-2.92112e-05
5.13315e-05
1.61652e-05
3.47029e-05
1.8866e-06
3.32718e-05
6.24939e-05
2.71014e-05
7.43131e-06
4.31348e-05
6.03279e-06
1.96029e-06
1.11506e-05
1.95283e-05
-4.16852e-05
-7.86678e-05
-2.58528e-05
1.16734e-05
-8.92611e-06
3.37856e-05
5.04913e-05
3.84787e-05
3.22231e-05
2.18769e-05
9.06081e-06
2.37259e-05
5.62422e-05
3.41918e-05
2.38297e-05
-4.87828e-06
-3.63215e-06
-3.71694e-05
-8.81705e-07
-0.000117867
-3.87613e-05
-5.05005e-05
-4.16982e-05
-7.68035e-05
-4.35539e-05
-6.89197e-05
-3.79693e-05
7.23585e-05
5.25191e-05
-4.47571e-05
-3.40055e-05
-1.52365e-05
5.97987e-05
4.47557e-05
-2.06068e-05
1.62549e-05
2.08035e-05
-9.67762e-06
-5.25005e-05
-5.62422e-05
2.00187e-05
-1.94068e-05
4.87928e-06
3.4482e-05
7.12244e-05
8.03906e-05
3.53591e-05
1.91047e-05
-2.38148e-06
-1.33987e-05
1.57803e-05
-2.88524e-05
-1.81454e-05
5.18488e-06
2.4298e-06
1.00476e-05
2.69241e-05
3.90189e-05
3.25801e-05
2.81039e-07
-4.18663e-05
5.15071e-07
4.23402e-05
2.61955e-05
3.0262e-05
1.41094e-05
-6.05047e-05
7.91561e-06
5.42686e-05
-2.39892e-05
-6.62889e-05
-8.9544e-05
2.2786e-05
3.95632e-05
2.31249e-05
1.04029e-05
-1.42507e-05
-2.19495e-05
-5.88364e-05
4.80356e-05
7.10887e-05
1.22358e-05
-4.05587e-05
1.45941e-08
-7.51778e-06
-8.70797e-05
-7.1919e-05
-1.14915e-05
-2.02938e-05
5.70182e-05
5.66416e-05
-3.13352e-05
-3.18615e-05
-7.89978e-05
8.92695e-06
2.46704e-05
4.49869e-05
7.65391e-05
2.42373e-05
2.2551e-05
5.65419e-05
1.59874e-05
8.16403e-07
3.64215e-05
3.38072e-05
9.5485e-05
5.14772e-05
3.26904e-05
7.69871e-06
-3.54358e-05
-4.57048e-05
-1.02647e-05
1.25856e-05
-2.43913e-05
-5.67878e-06
5.49182e-05
3.88684e-05
7.2506e-05
0.000145308
1.91429e-05
4.44605e-05
4.43854e-05
-1.7976e-05
-1.02198e-05
-1.54192e-05
1.86315e-06
-7.82543e-07
-2.15209e-05
1.33982e-05
1.17717e-05
8.71096e-08
-2.35754e-06
1.19889e-05
9.58944e-05
3.0583e-05
-1.9781e-05
-2.71384e-06
-1.26525e-05
-1.35762e-05
7.19685e-06
-1.41215e-05
2.21581e-06
-8.6319e-05
-0.000182554
-0.000100964
-6.86721e-05
-2.88986e-05
-5.48016e-05
5.29634e-07
-5.40026e-06
-1.74019e-05
6.66817e-05
8.48727e-05
7.92911e-05
5.73689e-05
1.30799e-05
-5.12978e-05
-4.36684e-05
1.43481e-05
-4.94462e-05
2.16984e-05
6.49621e-05
2.53484e-05
-2.86652e-06
8.15091e-06
-1.44443e-06
3.76469e-05
-2.36412e-05
-3.4087e-05
-5.45289e-05
2.03597e-05
3.13855e-06
3.27439e-06
-1.72113e-05
-1.06887e-05
2.85858e-05
1.62352e-05
-6.89312e-06
-4.28125e-05
6.7437e-06
-6.42515e-05
-2.0234e-05
5.13607e-06
-7.00263e-05
-0.000135803
-0.000198121
-0.000277949
-0.000374112
-0.000639261
-0.00107733
-0.00172402
-0.00270547
-0.00416211
-0.0065357
-0.0103346
-0.0164207
-0.0260373
-0.0413097
-0.0655479
-0.103806
-0.164529
-0.261034
-0.41403
-0.656484
-1.04158
-1.65392
-2.62511
-4.16719
-6.62553
-10.5321
-16.7292
-26.6414
-42.5192
-67.8092
-108.3
-173.174
-275.856
-438.775
-700.943
-1117.51
-1758.23
-2749.3
-4242.04
-6374.41
-9429.24
-14048.3
-19305.8
-2.54674e-06
1.15325e-06
-4.42068e-07
2.03962e-05
-1.65559e-05
-4.58187e-05
-3.3262e-05
-4.72447e-05
2.79921e-05
3.3013e-05
-1.02914e-05
4.85112e-06
-1.97943e-05
-2.96834e-05
-2.35201e-05
3.17804e-05
6.076e-05
3.65653e-05
2.59079e-05
-1.74485e-05
-3.39953e-05
5.80112e-06
1.17592e-05
1.02562e-05
-6.6385e-06
-2.87827e-05
-4.41669e-05
3.63883e-06
-4.07356e-05
-1.54589e-05
6.21548e-05
4.98359e-05
1.4863e-05
-2.37155e-06
-2.12447e-05
-6.7816e-05
1.48304e-05
6.15432e-05
2.38566e-05
-2.26438e-06
-1.33892e-05
-3.48638e-05
-0.000104213
-7.51987e-05
6.91056e-06
5.94568e-05
-2.3081e-06
-5.53345e-05
-1.11111e-05
1.06764e-05
4.36608e-05
-1.58463e-06
3.70088e-06
1.39981e-05
-2.64989e-05
-2.3114e-05
2.76387e-05
6.63993e-05
6.66117e-05
1.23494e-05
-1.5832e-06
-4.72446e-05
-3.07141e-05
1.99774e-05
5.07285e-05
4.21695e-05
-1.2681e-05
-3.99717e-05
-3.91754e-05
-2.23052e-05
-7.91422e-07
-1.69062e-05
-1.72825e-05
1.61504e-05
4.08999e-05
6.39412e-06
5.08564e-05
4.74678e-05
1.0648e-05
-2.36946e-05
6.40832e-05
2.05452e-05
1.62448e-05
7.83589e-06
2.21985e-06
-8.77129e-06
-8.10859e-05
-1.32825e-05
1.25172e-05
2.0713e-05
8.58642e-05
9.62043e-05
3.88098e-05
1.89515e-05
-4.13574e-05
-0.000162362
-0.00011904
-4.13954e-05
-4.63443e-05
-2.01215e-05
-4.28594e-05
-4.723e-05
-6.33451e-05
-0.000130383
-5.9234e-05
4.87379e-05
5.44124e-05
1.29314e-05
8.7816e-05
0.000112043
2.96578e-05
1.79483e-05
7.37632e-06
-8.37156e-06
-3.49712e-05
6.88237e-06
7.27366e-05
3.70945e-05
2.46046e-05
-3.06396e-05
2.02676e-05
4.06472e-05
-6.33908e-05
-3.40575e-05
-1.88975e-05
-4.84779e-05
-2.40771e-05
2.93254e-05
1.32802e-05
7.2166e-05
6.41349e-05
-1.34423e-05
-4.81653e-05
1.16595e-05
-1.93114e-05
-7.55308e-05
-7.38349e-05
-6.82544e-05
-2.56306e-06
0.000103883
3.76926e-05
9.76543e-06
4.47901e-05
4.67268e-05
5.04737e-05
-4.25358e-05
-2.09055e-05
5.77489e-05
-6.607e-06
-6.93748e-05
-2.16254e-05
-9.62222e-05
-0.000148725
-0.000145939
-4.89157e-05
-2.84626e-07
3.3566e-05
0.000100565
9.65725e-05
0.000109821
5.08952e-05
9.99753e-05
3.81619e-05
2.45387e-05
-1.33182e-05
-2.39453e-05
-2.12545e-05
-6.84273e-05
-4.64364e-05
2.69372e-05
5.45492e-05
2.60607e-05
-5.67826e-06
1.44804e-06
1.18437e-05
-4.53294e-05
-2.94822e-05
-4.18358e-05
-5.1473e-05
-1.71764e-05
-1.3228e-05
-3.93207e-05
2.5553e-05
-2.40018e-05
-1.06084e-05
-5.90082e-06
1.2023e-05
3.5765e-05
1.84684e-05
2.05821e-05
8.85844e-05
7.73047e-05
5.90183e-06
0.000106717
5.33829e-05
-5.24256e-05
-2.01072e-05
4.42023e-06
-1.74082e-05
2.98205e-05
1.96756e-05
-4.38856e-05
5.68917e-06
-4.62463e-05
-1.76911e-05
-4.33191e-05
-4.03748e-05
3.58509e-07
-9.43844e-06
6.43219e-06
3.21197e-05
4.33164e-05
4.47569e-05
6.47216e-05
3.12681e-05
-2.63249e-05
3.55603e-05
-1.1319e-05
-8.27211e-05
-0.00011097
-3.63748e-05
-5.72221e-05
-7.13996e-05
6.56063e-06
3.6657e-05
-5.14484e-05
-6.97407e-05
1.75031e-05
3.12366e-05
-5.7817e-05
5.60337e-07
4.44315e-05
3.26143e-05
6.77104e-05
4.03878e-05
-2.03947e-05
-4.60958e-05
7.17287e-05
5.98237e-05
4.2298e-05
3.00007e-05
-4.55876e-05
-5.41871e-05
-6.22075e-05
-5.49082e-05
-2.14323e-05
-6.42924e-06
-2.32351e-05
-2.33018e-06
-6.12071e-05
-7.4636e-05
-4.36943e-05
-6.52256e-05
-8.69943e-05
-0.00011568
-7.22562e-05
-1.31841e-05
-8.9693e-05
-0.000184497
-0.000243015
-0.000412583
-0.000595031
-0.000985895
-0.00150106
-0.00248821
-0.00403075
-0.00634139
-0.00999317
-0.0156917
-0.0248249
-0.0393405
-0.0624124
-0.0989209
-0.156657
-0.248071
-0.393124
-0.622649
-0.986022
-1.5629
-2.47752
-3.92397
-6.2217
-9.87596
-15.6568
-24.8385
-39.5265
-62.8828
-99.9472
-159.149
-253.19
-401.211
-636.911
-1014.7
-1599.08
-2495.34
-3882.25
-5913.17
-8811.22
-13141.8
-18600.6
-9.95178e-06
4.13212e-05
-8.18585e-06
-6.36601e-05
-3.74109e-05
-1.46594e-05
-2.15529e-05
2.45328e-05
1.22776e-05
2.5259e-05
5.65523e-05
-1.81612e-05
-1.51258e-05
1.97541e-05
-5.87093e-06
-3.23299e-05
1.19938e-05
4.36868e-05
3.69631e-05
2.65403e-05
1.32894e-05
-6.60706e-05
-7.8899e-05
-1.31538e-05
-4.56762e-05
-6.05118e-05
-1.1934e-05
2.00693e-05
5.52286e-05
2.32578e-05
3.08203e-05
4.8366e-05
9.27517e-06
2.12319e-05
3.03608e-05
-2.14665e-05
-2.02958e-05
-5.35158e-05
-5.47982e-05
-3.90663e-05
-8.35568e-07
-2.21176e-06
1.1285e-05
8.91268e-05
3.2537e-05
-0.00013287
-8.21511e-05
2.51036e-05
6.18338e-05
3.42662e-05
2.64792e-05
6.19954e-05
8.63759e-05
7.69017e-05
3.83841e-05
3.27508e-05
-4.61525e-05
-4.81562e-05
-5.7354e-06
-9.45544e-06
-1.66408e-06
5.53583e-05
6.88565e-05
4.39065e-05
-3.5056e-05
-0.000136441
-2.80495e-05
0.000124576
0.00010044
-1.57899e-05
-9.20515e-05
-3.77001e-05
-1.70689e-05
1.75767e-05
7.58332e-06
5.13517e-05
8.27155e-05
5.48039e-05
-1.94432e-05
6.18826e-05
2.89179e-05
1.56809e-05
1.52379e-05
-1.18893e-05
-6.13132e-05
-9.41844e-05
-6.11405e-05
-4.33749e-05
2.03885e-05
5.58168e-05
7.31323e-05
7.23356e-05
-4.45713e-06
-2.39283e-05
-8.69424e-05
-3.71627e-05
1.20235e-05
6.90374e-05
5.44294e-06
-0.000116173
-0.000124332
-8.95283e-05
-2.56876e-05
2.66562e-05
7.1514e-05
-3.04741e-05
9.32678e-06
2.06456e-05
4.51744e-05
3.05313e-05
1.85263e-05
-2.61444e-05
3.61908e-05
4.17366e-05
2.48406e-05
3.76485e-05
1.91272e-05
2.28807e-06
-9.23997e-06
-1.31238e-05
2.33032e-05
1.9631e-05
1.68777e-05
-1.5336e-05
-1.17113e-05
3.95318e-05
9.32278e-06
-5.10204e-05
-8.1972e-05
-4.59416e-05
-4.80787e-05
4.87829e-05
9.98115e-06
-1.67263e-05
-1.5053e-05
-0.000101486
-3.54526e-05
-6.12222e-05
-0.000109106
-3.01292e-06
1.71804e-05
3.48321e-05
5.05642e-05
-1.19912e-06
-5.42439e-05
-6.22351e-05
-0.000113161
-2.21569e-05
-3.29243e-05
7.15481e-06
2.97465e-05
-8.43141e-05
-6.75549e-05
-1.46671e-05
1.24886e-05
6.56903e-05
4.35358e-05
-4.35261e-05
-5.20855e-05
-4.11131e-05
-3.69697e-05
1.87183e-05
4.03144e-05
0.000139594
6.39041e-05
5.3904e-05
-5.13585e-05
4.95906e-06
7.41452e-06
2.1957e-06
3.31351e-05
5.30959e-05
3.16915e-05
-2.22763e-06
2.03262e-05
6.29471e-05
-1.35737e-05
7.53089e-07
-2.44379e-05
-8.22664e-05
-4.64781e-05
1.25213e-05
2.03015e-05
3.12532e-05
6.25281e-05
7.47671e-05
1.50444e-05
4.0521e-05
0.000112721
0.00010611
-8.74748e-07
-6.92495e-06
4.68467e-06
5.69601e-05
8.47017e-05
3.35291e-05
-7.74384e-06
-4.05473e-05
-8.29281e-05
-3.63616e-05
3.33636e-05
3.80373e-05
3.74669e-05
-4.60474e-05
-1.38962e-05
-3.39386e-05
-6.69426e-07
-5.0215e-05
-3.8623e-05
-1.98634e-05
-7.45043e-05
-2.01638e-05
6.52238e-05
-1.26835e-05
-5.76689e-05
7.15634e-05
3.42236e-05
-3.68348e-05
-4.04266e-05
-3.16853e-05
-7.4605e-05
-1.82504e-05
1.63532e-05
1.28803e-05
-2.97676e-05
-3.42805e-05
5.12869e-05
-4.94898e-05
-5.24262e-05
2.95885e-05
4.17238e-05
1.0514e-05
5.94598e-06
1.51838e-05
1.54064e-05
1.95446e-06
4.33064e-05
1.33757e-06
3.91642e-06
1.69558e-05
5.19382e-05
-4.48983e-06
-2.53039e-05
-3.23498e-05
-5.65623e-05
-5.3143e-05
1.03628e-05
5.58492e-05
4.42371e-06
-2.92589e-05
2.8281e-05
1.13121e-05
-4.51048e-05
-1.69593e-05
-1.42359e-05
-4.11703e-05
-7.36634e-05
-7.55162e-05
-9.90591e-05
-0.000201688
-0.000320816
-0.000576741
-0.000914461
-0.00142898
-0.00227075
-0.00367586
-0.00577816
-0.00913583
-0.0143734
-0.0227972
-0.0360855
-0.0570668
-0.0903642
-0.142869
-0.225754
-0.356988
-0.564414
-0.891464
-1.40936
-2.22974
-3.52178
-5.56431
-8.81106
-13.9365
-22.0218
-34.9226
-55.4103
-87.6104
-138.747
-220.349
-348.349
-550.808
-877.834
-1383.92
-2151.87
-3358.82
-5176.17
-7762.8
-11662.1
-16461.6
-3.58917e-06
2.72791e-05
1.39374e-07
6.96661e-06
-2.64129e-06
-3.08875e-05
5.59521e-06
7.57056e-05
1.99424e-05
-4.07607e-05
-4.94079e-05
-6.92985e-06
-1.43016e-05
3.22004e-05
4.18437e-05
1.31844e-06
6.95561e-06
7.28197e-05
-5.90488e-06
-5.67892e-05
2.44045e-05
-3.57979e-06
2.7744e-05
-2.60293e-05
2.36968e-05
1.55499e-05
-1.25604e-05
-5.37735e-06
1.55001e-05
7.65598e-05
-7.56845e-06
-6.63537e-05
-7.8108e-05
-2.77131e-05
-2.81726e-06
3.44188e-05
5.78039e-05
-5.84677e-06
-4.73765e-05
4.92281e-05
1.03731e-05
1.05344e-05
-5.63388e-05
-6.96458e-05
-3.91248e-05
-2.15714e-05
-4.54089e-06
3.1367e-05
3.97174e-05
-8.3902e-05
-1.23406e-05
5.12291e-05
1.77964e-05
5.34197e-06
-3.39689e-06
1.30244e-05
-2.23859e-05
1.10868e-05
6.50772e-05
4.75006e-05
-2.82169e-07
4.86366e-06
-3.29609e-05
-6.22347e-05
-5.28136e-05
-1.98836e-05
1.11231e-05
6.45878e-06
-8.60055e-07
2.09947e-05
2.54992e-05
-1.68911e-06
-3.72514e-05
-3.09849e-05
-4.01717e-05
4.21159e-05
3.3756e-05
2.72678e-05
2.70769e-05
-4.25654e-05
-0.000107077
-7.4607e-05
-8.02638e-06
-3.93151e-05
-5.11442e-05
4.98258e-05
7.05266e-05
6.70768e-05
2.82723e-05
3.00005e-05
-1.27574e-05
-8.00231e-06
1.31139e-05
5.79788e-05
2.44112e-05
-2.96338e-05
-6.64211e-05
-8.15444e-06
8.1688e-05
-6.73368e-06
-1.47603e-05
-3.97234e-05
-4.67787e-05
-6.52045e-05
-6.99246e-05
-3.23262e-05
2.9034e-05
-3.2249e-05
5.55652e-05
5.41125e-05
6.23896e-05
7.55587e-05
3.41146e-05
2.37505e-05
2.68281e-05
2.39767e-05
4.72159e-06
3.86776e-06
5.28159e-05
-1.66929e-06
-2.24792e-05
-1.2669e-06
-6.7457e-05
7.41864e-06
-1.88256e-05
-1.36117e-05
-8.02159e-05
-7.32754e-05
3.65086e-05
4.72045e-05
-1.27976e-05
-0.000100923
-9.46305e-05
-5.09313e-05
7.26359e-08
2.37184e-05
5.48489e-05
5.31043e-05
6.87909e-05
-4.85081e-06
-9.75905e-05
-3.3087e-05
-7.36799e-06
-1.69612e-05
-2.39516e-05
-3.15718e-05
-5.34001e-05
-1.69514e-05
-3.47836e-05
-5.38528e-05
-1.54976e-05
-5.90155e-07
4.97056e-05
8.79587e-05
0.000128071
3.89141e-05
-4.1564e-05
-6.19067e-05
6.51754e-05
4.44277e-05
3.97017e-05
2.80477e-06
4.31368e-05
7.34737e-06
-1.18083e-05
5.04892e-05
5.04482e-05
-1.3963e-05
-2.17845e-05
3.30953e-05
-2.36224e-05
-5.76845e-05
-3.1149e-05
-1.89676e-05
-3.93672e-05
-8.36473e-06
-2.44785e-05
-7.28954e-05
2.92366e-05
-6.14585e-05
-0.000118605
-2.66831e-06
0.000100691
2.37869e-05
6.79132e-06
-1.47021e-05
1.5756e-05
3.17689e-05
1.43172e-05
7.22392e-06
6.72459e-05
8.5186e-05
0.000128464
7.07595e-05
6.98866e-05
5.02921e-05
3.47434e-05
-5.29209e-06
-8.35065e-06
7.35739e-05
2.59998e-05
3.02537e-06
-1.94821e-05
3.31626e-06
1.53861e-05
4.25616e-05
2.47636e-05
-3.3698e-05
-2.0663e-05
-3.06677e-05
-4.52076e-05
-4.41325e-05
-4.67679e-05
-5.092e-05
-2.74314e-05
2.86031e-05
9.78754e-06
2.85399e-05
9.15062e-06
-1.81715e-05
7.22781e-06
-2.48259e-05
-2.56105e-05
-1.37066e-05
5.40217e-05
7.42129e-05
1.07417e-05
-2.53604e-05
-3.88816e-06
-7.00871e-06
-2.76324e-05
-1.07435e-05
-1.59686e-05
-4.4189e-05
-7.95875e-07
-5.02373e-05
-1.99102e-05
3.2308e-07
-5.36897e-06
-2.09998e-05
1.545e-05
1.71005e-05
3.68776e-05
6.92285e-06
-9.48152e-06
-0.000104575
-0.000101531
-9.934e-05
-6.17916e-05
1.90555e-05
-6.7536e-05
-7.56736e-05
-4.33402e-06
2.4555e-05
-5.07317e-05
-7.23437e-05
-4.61459e-05
-5.21718e-05
-0.000119267
-0.000142175
-0.000217701
-0.000496352
-0.000838341
-0.00137989
-0.00210148
-0.00326056
-0.00515541
-0.00816084
-0.0128212
-0.0202217
-0.0318969
-0.0504062
-0.0795804
-0.125498
-0.197904
-0.312296
-0.492823
-0.776522
-1.22402
-1.93179
-3.04362
-4.79155
-7.56371
-11.936
-18.793
-29.6867
-46.9832
-73.9905
-116.509
-184.428
-290.952
-458.175
-729.404
-1152.74
-1789.76
-2794.29
-4350.03
-6574.43
-9948.2
-14077.9
-1.80429e-05
1.46352e-05
-1.12292e-05
3.98186e-05
-1.82138e-05
-4.83161e-06
-2.09887e-05
3.11134e-05
-1.44747e-05
7.07762e-06
-2.19196e-05
-1.89438e-05
-1.63755e-05
4.26182e-07
4.94302e-07
-5.74634e-05
-2.22721e-05
-2.0368e-06
3.3622e-05
-6.57973e-06
-1.14841e-05
-2.86276e-05
4.1277e-05
4.96005e-05
7.86552e-05
9.10976e-05
3.63387e-05
3.23453e-06
4.58122e-05
-4.75478e-05
-3.81052e-05
2.26666e-05
3.07636e-05
6.12736e-06
3.65134e-05
8.90496e-05
-5.98805e-05
-0.000110749
-8.59725e-05
-2.99752e-05
-4.27178e-05
3.78857e-05
0.000112109
5.14114e-05
3.01175e-05
3.67518e-05
5.75351e-06
3.61194e-05
6.08753e-05
-5.749e-06
4.68542e-05
-1.23913e-05
-1.87458e-05
-5.62151e-05
-9.36332e-05
-8.47004e-05
-1.52306e-05
-1.58612e-05
6.95972e-05
3.36275e-05
-4.47031e-06
-2.04485e-05
-4.25703e-06
8.40838e-05
8.10866e-05
-6.25772e-06
-8.08965e-07
3.94358e-05
4.50625e-05
9.50217e-06
-4.60416e-05
-6.63977e-05
-3.97668e-05
-5.38168e-05
-9.54869e-06
7.40264e-06
1.79585e-05
-4.62631e-06
-1.30304e-05
-7.78315e-05
-2.67023e-05
8.8026e-06
1.38915e-06
-3.10542e-05
-7.94451e-06
8.38066e-05
7.29167e-05
2.30725e-05
3.77943e-05
1.65263e-06
4.06977e-06
6.04451e-05
4.59903e-05
-2.88367e-05
-1.60528e-05
1.63977e-06
2.80076e-05
4.75231e-05
-1.83202e-05
-3.0505e-05
-2.75486e-05
-2.85299e-06
-2.32054e-05
-4.69335e-05
-4.71176e-05
-7.95527e-05
-1.90739e-05
4.76065e-05
3.89331e-05
2.25305e-05
6.852e-06
2.49696e-05
4.27973e-05
-1.67343e-06
-3.57148e-05
-4.56577e-05
4.56258e-05
7.0061e-05
4.18914e-05
7.41916e-06
-6.49953e-06
-1.2119e-05
-9.79538e-05
-4.0416e-05
1.48372e-05
2.73681e-05
3.95804e-05
-6.12585e-05
2.31821e-05
-7.4048e-06
-6.49876e-05
8.45184e-06
-1.47798e-05
-0.000101859
5.00135e-05
1.06195e-05
-5.64829e-05
-4.51129e-05
-1.55743e-05
-5.745e-05
3.40486e-06
-2.36768e-05
1.09405e-05
-2.59702e-05
-1.21793e-05
-6.57474e-05
-7.25736e-06
5.35984e-06
3.76166e-05
1.42997e-05
-3.80073e-06
7.05619e-06
4.19507e-05
6.81487e-05
8.91673e-05
7.58923e-05
6.11431e-05
-2.34918e-05
-4.75554e-05
-2.8329e-05
-2.48206e-05
8.01581e-05
6.4431e-05
-1.40458e-05
1.14859e-05
1.06085e-06
7.0946e-05
-1.29746e-05
-6.73329e-05
-0.000100457
-1.6187e-05
1.8476e-05
-4.09273e-05
-1.24827e-05
4.97639e-05
-1.35119e-05
-1.41129e-05
3.77543e-05
-1.49045e-05
-8.76181e-05
-6.25189e-05
-0.000110048
-7.21844e-05
3.19266e-05
-1.81281e-05
-1.5337e-06
5.70285e-05
-7.82495e-06
-5.91142e-05
3.89027e-06
0.000108056
5.70681e-05
2.18085e-05
4.36357e-05
-7.04354e-06
4.45205e-05
9.28844e-05
0.000102159
6.74798e-05
6.46258e-05
8.51651e-05
-3.43797e-05
-9.15416e-05
-8.12703e-06
1.04586e-05
-2.00177e-05
-4.34009e-05
-4.95451e-06
7.23052e-06
2.59261e-05
-1.5683e-05
-0.000116433
-5.19618e-05
-4.24893e-06
-2.88428e-05
-7.63439e-06
4.49355e-06
3.17879e-05
-6.08633e-06
-2.89252e-05
3.16208e-05
-2.14786e-05
2.8158e-05
6.12646e-05
5.03481e-05
0.000103951
9.08012e-05
-1.42601e-05
-2.93909e-05
-5.86064e-06
5.54569e-05
-5.372e-06
-2.05556e-05
-1.49225e-05
1.14643e-05
-4.81409e-05
-3.93848e-05
-7.37133e-05
-8.82979e-05
2.80308e-05
1.4164e-05
-6.86586e-05
-5.87389e-06
-3.08664e-06
-5.22695e-05
-6.42481e-05
-0.000108977
-0.00012645
-0.000108271
-1.39015e-05
3.24147e-05
1.91334e-05
1.76892e-05
3.47568e-05
2.76564e-05
1.0063e-05
3.87456e-05
-3.42171e-05
-0.000132504
-0.000180171
-0.000214187
-0.000454928
-0.000819707
-0.00117909
-0.00175983
-0.00284491
-0.00451435
-0.00709622
-0.0111431
-0.0173511
-0.0274146
-0.0431662
-0.0680548
-0.107131
-0.16858
-0.26545
-0.417974
-0.656993
-1.03276
-1.62612
-2.55612
-4.01151
-6.3134
-9.94152
-15.6057
-24.564
-38.7851
-60.8994
-95.4401
-150.613
-237.245
-372.269
-591.458
-936.467
-1452.89
-2267.28
-3558.85
-5422.38
-8262.21
-11737.2
4.10752e-06
5.16182e-05
-3.1883e-06
-9.90984e-06
9.2329e-06
9.17189e-06
3.57359e-05
-8.71153e-05
-4.66298e-05
-1.34866e-05
2.18398e-05
1.98609e-05
5.11035e-05
2.36935e-05
-5.13085e-05
-6.13332e-05
-3.61706e-05
-1.46423e-05
-1.35621e-06
1.52223e-05
-2.36772e-05
3.83877e-06
1.2172e-05
2.59419e-05
1.30578e-05
1.56126e-05
-5.89642e-06
-7.73623e-06
5.49627e-05
1.07924e-06
-5.77578e-06
1.89811e-05
-1.06886e-05
4.25134e-05
-1.53334e-05
-2.23534e-05
8.18677e-06
-2.80325e-05
2.43795e-05
1.46674e-05
-6.05832e-05
-9.99995e-05
-1.49286e-05
3.35423e-06
-5.94851e-05
-4.8107e-05
7.9271e-07
4.05118e-05
5.66923e-05
1.95376e-06
9.3007e-06
2.63297e-06
4.8411e-05
8.43421e-05
7.64349e-05
-6.36531e-05
-3.81558e-06
9.80629e-07
2.9924e-05
5.66944e-06
1.24133e-05
4.63649e-05
1.34562e-05
-4.65157e-06
4.87925e-05
1.30605e-05
1.13364e-05
1.69331e-05
9.66574e-06
-3.46586e-05
-2.58437e-05
-8.10599e-05
-2.68461e-05
6.7196e-06
-5.44732e-05
-3.79776e-05
7.84733e-06
-3.22306e-06
1.55651e-05
8.46319e-05
-1.64119e-05
-7.0767e-05
-5.23048e-05
-2.73908e-05
-1.26014e-05
1.39926e-05
1.14171e-05
-5.37778e-05
-8.16102e-05
-6.0025e-05
2.18657e-05
5.96142e-05
4.03165e-05
2.70037e-06
4.17598e-05
2.2548e-05
6.52677e-05
0.000118217
5.53855e-05
2.61232e-05
1.4918e-05
-4.02902e-05
-7.5654e-05
-0.000112325
-7.83174e-05
-7.43791e-05
-5.49149e-05
-7.62013e-05
3.37095e-05
9.39665e-05
3.72431e-05
2.99837e-05
4.23414e-05
7.80357e-05
7.00763e-05
4.89536e-05
2.15425e-06
-2.88313e-05
3.45174e-05
-9.55656e-06
1.43363e-05
7.39443e-05
8.44263e-05
-1.12329e-05
-1.9061e-05
-2.16846e-05
-4.728e-05
-5.4661e-06
-3.87212e-05
-6.33198e-05
-2.1312e-05
-2.34396e-05
-7.56005e-05
-0.000104872
-8.4724e-06
-1.36326e-05
-3.56535e-05
8.20788e-06
-4.92071e-06
5.67598e-06
-6.91686e-05
-4.41016e-05
1.88147e-05
-8.87469e-06
2.88551e-05
3.63176e-05
3.41767e-05
2.412e-05
-2.4769e-05
-4.98758e-05
-1.97449e-05
7.48423e-06
9.23396e-05
0.000100908
0.000107373
1.99167e-05
-2.09852e-05
-2.92116e-05
-3.93499e-05
-4.72766e-05
-2.97877e-05
-2.90339e-05
-4.28751e-05
-4.331e-05
-6.6e-05
2.28079e-05
6.30075e-05
6.08259e-05
5.25135e-05
4.24934e-05
-7.15569e-05
-7.24507e-06
3.53749e-05
-4.94178e-05
-7.98979e-05
-1.34104e-05
1.67459e-05
-2.03282e-05
-5.70362e-05
-2.34999e-05
1.33331e-05
2.36595e-05
0.000110353
5.50362e-05
-8.27888e-07
-2.23366e-05
-9.9629e-06
-7.70624e-05
-7.0527e-06
4.29641e-05
6.22644e-06
-3.23099e-05
4.21519e-05
2.99232e-05
4.99536e-06
-3.35682e-05
-2.56487e-05
3.66451e-05
5.12088e-05
2.5568e-05
7.67702e-05
8.98435e-05
-2.80523e-05
-4.36523e-05
2.9126e-05
-9.30789e-06
2.91019e-05
-7.37016e-05
-4.58116e-05
-1.073e-05
1.37079e-06
-4.1457e-05
-3.96369e-05
-5.84878e-06
-3.56163e-05
2.89091e-05
8.15256e-05
2.56585e-05
2.25615e-05
-6.36401e-05
-2.20134e-05
-4.68445e-05
-3.62951e-05
-6.29763e-05
-5.79662e-05
-3.80636e-05
-2.66785e-05
3.26199e-05
-5.36691e-06
4.86035e-05
5.62933e-06
-3.98523e-05
1.27455e-05
3.30882e-05
9.5458e-06
-1.91083e-05
4.63291e-05
1.46228e-05
5.71085e-06
-3.06606e-05
-5.56308e-05
-7.87291e-05
-1.00411e-05
-4.47022e-05
-7.11239e-05
2.23366e-05
5.23049e-05
1.16903e-05
5.15877e-05
3.19175e-05
6.50963e-06
-2.53272e-05
5.86584e-07
-7.0924e-06
-3.59325e-05
-8.54905e-05
-3.99065e-05
-5.46545e-05
-0.000106191
-0.000165178
-0.000242361
-0.000379336
-0.000614231
-0.00101876
-0.00156075
-0.00243752
-0.00372841
-0.00591372
-0.0093006
-0.0146146
-0.0230402
-0.0362362
-0.0569367
-0.0893696
-0.140287
-0.220415
-0.346489
-0.543526
-0.852286
-1.33904
-2.1007
-3.2881
-5.16137
-8.11225
-12.7041
-19.9374
-31.4148
-49.2136
-76.836
-120.926
-190.26
-297.754
-472.129
-748.376
-1160.46
-1809.04
-2855.81
-4380.64
-6714.27
-9577.98
-2.15722e-06
6.81844e-06
5.47083e-06
-3.80231e-05
-3.40626e-05
-2.58474e-06
5.85392e-05
7.56137e-05
-1.16783e-05
-2.96659e-05
-4.63327e-05
-7.57188e-06
-4.41538e-05
-4.43438e-05
-1.9679e-05
7.89416e-05
6.20427e-05
-2.25076e-05
-5.38996e-05
-4.09119e-05
-2.79261e-05
-6.24095e-05
4.21015e-05
4.17207e-05
5.00839e-05
2.3064e-05
3.80372e-06
5.54876e-05
3.32721e-05
1.41986e-05
2.30848e-06
-1.29396e-05
-7.72252e-06
-3.8425e-05
-0.000100434
-9.3119e-05
-5.25095e-05
1.4869e-05
5.93316e-05
-9.72532e-06
-5.67595e-05
-2.24054e-05
-1.89197e-05
-4.84012e-05
-1.28563e-05
-2.41058e-05
-6.86586e-05
-4.53952e-06
3.95951e-05
8.27688e-05
7.26742e-05
6.72296e-05
5.31508e-05
-7.8012e-06
-7.39847e-05
-5.46361e-05
-5.45184e-05
2.3115e-05
-3.43573e-05
-4.5927e-06
-1.01133e-05
1.52327e-05
-5.07386e-05
1.74204e-05
2.2904e-05
4.49696e-05
4.48056e-05
5.72065e-05
2.88264e-05
6.90078e-05
5.359e-05
-2.85699e-05
6.92852e-06
-2.74574e-05
-7.13459e-05
1.02732e-05
5.56354e-05
-3.068e-05
-1.81509e-05
-3.46316e-05
-4.49682e-05
-1.6396e-05
1.37484e-06
1.03063e-05
1.29886e-05
-3.67085e-05
-4.13121e-05
-1.66288e-05
-3.60623e-05
-3.208e-07
-1.63998e-05
-4.68031e-05
-3.93575e-05
-1.31748e-05
7.77993e-08
1.64432e-06
3.43334e-05
-1.74137e-05
-1.83853e-05
-1.68186e-05
-5.56294e-05
-6.67391e-05
-7.88346e-05
-4.14257e-05
-1.0681e-05
-1.64683e-06
5.09861e-05
6.30299e-05
2.74028e-05
2.66072e-05
6.85856e-05
4.29819e-05
2.14487e-05
2.24533e-05
5.96113e-05
6.3276e-05
-3.92353e-05
-4.49333e-06
-2.49887e-05
-1.45858e-05
4.49944e-05
4.32782e-06
3.75387e-05
6.5978e-05
4.30175e-05
4.43921e-05
2.25679e-05
-3.36848e-05
2.57992e-05
2.66175e-05
1.95998e-05
9.07957e-06
1.65853e-05
-4.39442e-05
-7.2999e-05
-3.4866e-05
-1.36707e-05
-2.34621e-05
-0.000144063
-3.93464e-05
-1.08794e-05
-2.0723e-05
-2.80317e-05
2.89734e-05
9.05938e-05
2.38164e-05
-1.1025e-05
-8.77867e-06
6.89912e-06
7.23009e-05
8.13483e-05
3.40766e-05
-7.69631e-06
1.88079e-05
1.17679e-05
-2.3271e-05
-4.77651e-06
4.46265e-06
3.40556e-06
-1.01223e-06
1.21621e-05
2.13347e-05
-1.76445e-05
4.19976e-05
8.7082e-05
2.34977e-05
1.9735e-05
3.23984e-05
-4.16314e-05
-1.32289e-06
-2.319e-05
5.29718e-06
1.21417e-05
3.00954e-05
-2.25121e-05
-4.45521e-05
-5.89801e-05
-7.11104e-05
-1.498e-05
5.0327e-05
3.14725e-05
-5.51427e-06
-1.27947e-05
-4.51918e-06
-4.25922e-06
-2.00054e-05
6.22726e-07
1.70485e-05
-3.88879e-05
-2.78069e-06
-2.49816e-05
1.09358e-05
4.53116e-05
1.389e-05
2.67271e-05
2.09248e-07
4.07655e-05
1.50373e-05
1.80927e-05
3.73533e-05
-6.43146e-06
-1.60204e-05
4.56965e-06
-3.20404e-05
-2.09033e-05
2.10232e-05
3.74208e-05
-2.42413e-05
-5.18494e-05
-3.5647e-05
-9.75971e-06
-1.52304e-05
-3.76059e-06
2.59779e-05
3.83545e-06
1.20271e-05
-1.41582e-05
-7.6927e-05
-2.98261e-05
-1.41353e-05
-1.47948e-05
-3.76555e-05
-2.8303e-05
-6.00261e-05
-5.41519e-05
-3.31797e-05
-4.41634e-05
-6.75753e-05
-4.82119e-05
-3.79843e-05
4.01045e-05
2.59644e-05
-2.65418e-05
1.14761e-06
8.84215e-06
1.13259e-05
5.27637e-05
1.34694e-05
2.28083e-05
2.52842e-05
4.42238e-05
1.63302e-05
-1.80349e-05
-6.29305e-05
-6.69996e-05
-9.58694e-05
2.9472e-05
-4.8239e-05
-2.27775e-05
-7.15777e-05
-2.77984e-05
1.96234e-05
-4.95398e-05
-6.97128e-05
-3.80707e-05
-1.15478e-05
-1.08653e-05
-5.39717e-05
-8.34897e-05
-6.34489e-05
-0.000154492
-0.0003616
-0.000479121
-0.0007683
-0.00129223
-0.00207755
-0.00316356
-0.00488014
-0.00768609
-0.0121119
-0.0189798
-0.0297511
-0.0466287
-0.0731438
-0.114675
-0.17972
-0.2821
-0.44189
-0.691447
-1.0843
-1.69826
-2.65274
-4.15508
-6.52018
-10.1923
-15.9579
-25.1009
-39.2531
-61.1068
-95.9504
-150.818
-235.556
-372.845
-591.389
-916.697
-1427.37
-2261.61
-3486.53
-5367.21
-7682.51
-1.55157e-06
-2.1167e-05
7.60863e-06
1.21313e-05
-1.12185e-06
2.57745e-06
2.59477e-05
2.32574e-05
1.74059e-05
-6.62888e-06
-4.45888e-05
-4.74016e-05
-1.2126e-05
-4.96771e-05
1.89492e-05
-5.03493e-06
3.36101e-06
6.64315e-06
5.54193e-05
-9.44249e-05
-3.58112e-05
1.80572e-05
-2.71357e-05
3.23467e-05
0.000121885
2.90452e-05
2.74877e-05
8.20044e-05
2.73497e-05
-4.92474e-05
-5.67812e-05
2.1119e-05
6.56379e-05
4.53843e-05
-2.90374e-05
2.02233e-05
-4.17874e-05
-1.30154e-05
-7.40576e-05
-0.000133456
-4.58758e-05
-5.75691e-05
-4.89332e-05
2.58648e-05
3.52896e-05
2.41496e-05
6.10351e-05
3.55628e-05
-3.31702e-05
-3.33005e-05
-1.58429e-05
-1.58307e-05
3.90795e-06
-5.57196e-05
-2.4548e-05
-1.15855e-05
-1.4762e-05
3.96156e-05
6.08886e-05
-3.35194e-05
-4.8409e-05
-5.12374e-05
5.538e-05
8.81308e-05
4.20548e-06
3.12777e-05
3.56671e-05
1.14558e-05
-4.88349e-05
-4.34832e-05
-3.64887e-05
-2.59189e-05
6.19877e-06
8.54035e-05
-2.24158e-05
9.93105e-06
-1.25034e-05
-3.22621e-05
-8.05047e-05
-6.03297e-05
-3.91437e-05
3.36891e-05
6.43448e-05
5.87854e-05
1.86377e-05
-3.84456e-05
-6.26013e-05
-3.97517e-05
-6.16286e-05
-3.12111e-05
6.56495e-05
1.16579e-05
-1.83718e-05
-3.87338e-06
-2.52226e-06
-7.33677e-05
-9.46006e-05
-7.01696e-05
-1.27957e-05
-3.75733e-06
-4.24003e-05
1.76877e-05
9.29368e-05
-1.01505e-05
-4.00557e-06
-5.66925e-06
-1.7459e-05
2.76965e-05
5.71923e-05
8.18694e-05
5.16268e-05
1.90298e-05
-1.07992e-05
1.35514e-05
-4.65108e-06
3.62105e-06
1.83243e-05
-2.31821e-05
-1.05935e-05
-5.51565e-05
2.89126e-06
-9.75573e-06
1.94236e-05
6.58792e-05
7.75684e-05
4.38045e-05
4.58219e-05
-3.91965e-05
5.1448e-05
-2.2495e-05
-5.61748e-06
3.68472e-05
5.69609e-05
9.36247e-05
-2.97486e-05
1.69652e-06
2.48611e-05
-8.16689e-05
-1.86979e-05
1.19983e-05
-4.61709e-05
-8.16082e-05
-8.03857e-05
-8.30073e-05
7.98624e-06
-5.27687e-05
3.98038e-06
6.57928e-05
5.44086e-06
1.50215e-05
7.17917e-05
3.38785e-05
4.54111e-05
5.54153e-05
4.35972e-05
4.56561e-05
5.69628e-05
6.03619e-05
3.83108e-05
2.10031e-05
1.99513e-05
6.77055e-05
9.97706e-06
5.26843e-05
2.8437e-05
4.14633e-05
-3.89242e-06
-6.3901e-05
-4.52875e-05
-2.58463e-05
-7.90801e-06
4.12776e-06
-6.44326e-05
-5.02803e-05
-1.37866e-05
-5.84254e-05
-3.25097e-05
-9.60802e-05
-0.000144019
-0.00010184
-6.93352e-05
-4.31177e-05
1.05067e-06
-1.11785e-05
2.08092e-05
6.09956e-05
4.84878e-06
6.04156e-07
-4.38824e-05
8.07238e-06
2.71991e-05
1.79388e-05
-6.32616e-06
7.09274e-06
3.1218e-05
3.51093e-05
6.87249e-05
4.04033e-05
9.40555e-05
3.63323e-07
2.88995e-05
-2.53489e-06
6.02984e-06
1.81858e-05
-5.70265e-05
-4.81482e-05
-1.92553e-05
3.43271e-05
2.70185e-06
-1.86465e-05
4.91948e-05
-1.79326e-06
-2.61333e-05
1.13946e-05
1.73877e-05
4.04582e-05
1.24238e-05
-2.46241e-05
-2.55146e-05
-4.46515e-05
2.93771e-05
7.34935e-06
1.19176e-05
-0.000100095
-7.61257e-05
-6.64745e-05
-8.67265e-05
-7.07924e-05
-3.85417e-05
-3.75908e-05
1.64299e-05
4.77155e-05
1.21671e-05
1.41391e-06
5.69128e-05
3.62526e-05
4.85593e-05
-3.22945e-05
-9.48527e-06
-3.48115e-05
-6.12864e-05
-3.57561e-05
-2.35597e-05
-5.68034e-05
-5.28928e-05
-1.01118e-05
-9.93768e-06
-6.72189e-05
-3.52569e-07
6.63351e-06
-4.42546e-06
-2.87248e-05
-5.25376e-05
2.14431e-05
-4.90858e-05
-7.82779e-05
-9.2284e-05
-0.000107027
-0.000132799
-8.93883e-05
-0.000170679
-0.000250255
-0.00039902
-0.000671865
-0.000989382
-0.00158038
-0.00255854
-0.00396178
-0.00624368
-0.00986121
-0.015398
-0.0240399
-0.0377031
-0.0590963
-0.0924276
-0.144634
-0.226611
-0.354343
-0.55358
-0.866816
-1.35586
-2.11432
-3.30588
-5.18076
-8.08682
-12.6388
-19.8524
-31.0032
-48.1596
-75.4804
-118.536
-184.852
-292.149
-463.474
-718.147
-1117.03
-1773.89
-2744.02
-4237.05
-6080.73
2.1914e-05
2.94906e-05
-6.35601e-06
8.61875e-06
-5.09766e-05
-4.66196e-05
3.40243e-06
2.07069e-05