/*--------------------------------*- C++ -*----------------------------------*\
| =========                 |                                                 |
| \\      /  F ield         | OpenFOAM: The Open Source CFD Toolbox           |
|  \\    /   O peration     | Version:  2412                                  |
|   \\  /    A nd           | Website:  www.openfoam.com                      |
|    \\/     M anipulation  |                                                 |
\*---------------------------------------------------------------------------*/
FoamFile
{
    version     2.0;
    format      ascii;
    arch        "LSB;label=32;scalar=64";
    class       surfaceScalarField;
    location    "0.005";
    object      ddtCorrDdt0(phi);
}
// * * * * * * * * * * * * * * * * * * * * * * * * * * * * * * * * * * * * * //

dimensions      [1 0 -2 0 0 0 0];

oriented        oriented;

internalField   nonuniform List<scalar> 
359100
(
1.74158e-10
1.17958e-13
5.03518e-11
3.47625e-12
-2.07681e-11
-9.17994e-13
1.29305e-10
3.15862e-12
3.54517e-11
3.72802e-12
4.67589e-11
3.42457e-12
1.29017e-10
-1.12842e-12
2.86046e-10
-2.23989e-12
3.93566e-10
-4.10588e-12
-1.22792e-10
4.95676e-12
-3.51529e-10
8.97479e-13
-4.46693e-10
-1.23546e-12
-4.10346e-10
-1.43691e-13
-4.84776e-10
4.82209e-12
-3.60659e-11
1.04781e-11
4.38747e-10
6.94697e-12
3.78805e-10
-1.43441e-11
2.06434e-10
-2.1859e-11
-8.80896e-11
-6.35228e-12
2.06944e-10
1.2334e-11
3.65703e-10
1.721e-11
-1.57568e-10
1.73218e-11
3.35062e-11
2.67334e-12
7.37265e-10
-1.11786e-11
1.10568e-09
-8.63228e-12
8.39243e-10
-8.90349e-13
-1.40357e-11
8.89266e-12
9.0756e-11
3.91707e-12
-7.60846e-11
-5.62712e-12
-5.76455e-10
1.79183e-12
-1.00058e-10
7.34566e-12
1.79148e-10
4.47039e-13
8.50204e-11
1.5217e-12
1.52906e-10
-3.86963e-12
2.89833e-10
-1.21601e-12
5.07684e-10
7.03424e-12
-4.66057e-11
9.99954e-12
-2.1567e-10
-4.93379e-12
-1.89189e-10
-2.01405e-11
-7.73052e-10
-1.8755e-11
-1.3643e-09
-1.53509e-11
-1.55712e-09
-2.22757e-11
-1.11358e-09
-3.16244e-13
-5.20618e-10
2.37086e-11
-1.78253e-10
3.02863e-11
2.22487e-11
1.43044e-11
7.44989e-10
-1.7007e-12
5.4416e-10
-1.11092e-11
2.84408e-10
-1.41388e-11
-1.99769e-10
-8.80664e-12
-6.92898e-11
-3.19731e-12
-1.75677e-10
-6.46694e-13
-6.28527e-11
-3.17504e-12
3.5811e-10
-4.32933e-12
9.4023e-11
-2.41249e-12
-3.375e-10
-1.15721e-11
-1.09377e-09
-2.09411e-11
-1.17621e-09
-1.11994e-11
-3.88495e-10
-1.13957e-12
1.23079e-10
-1.42839e-11
3.83016e-10
-1.81838e-11
3.62963e-10
-1.87873e-11
2.83338e-10
-1.15075e-11
4.31181e-10
-1.52703e-12
5.19048e-10
1.41287e-11
5.19412e-10
2.28054e-11
2.32648e-10
1.40333e-11
2.38766e-10
7.18868e-12
4.00016e-10
-5.09537e-12
1.40289e-10
-3.80814e-12
2.96862e-10
-5.60041e-12
1.46689e-10
-6.33367e-12
-1.59062e-10
-1.10603e-11
-7.49449e-10
-6.75156e-12
-5.76961e-10
3.21459e-13
-9.74272e-11
2.70212e-12
1.65352e-11
1.14804e-12
7.96564e-11
5.29685e-12
3.40195e-10
1.01529e-11
7.32884e-10
1.14183e-11
5.5168e-10
-2.30956e-12
1.69671e-10
-1.70008e-11
3.25184e-10
-3.72743e-12
5.33318e-10
1.01738e-11
6.76869e-10
4.94873e-12
5.19761e-10
-2.28394e-13
3.93963e-10
-3.04209e-12
8.83963e-11
-2.78832e-13
8.44464e-11
1.91881e-12
-1.2584e-10
-2.26107e-12
-8.23129e-11
-6.01288e-12
-9.70851e-10
-1.46123e-11
-1.16554e-09
-8.07907e-12
-5.56548e-10
5.86297e-13
-5.57133e-10
-4.30581e-12
-7.01099e-10
-4.78084e-12
-7.07163e-10
-4.68363e-12
-7.94997e-10
-1.04536e-11
-7.85999e-10
-1.68815e-13
6.58044e-11
1.7396e-11
6.36698e-10
2.73672e-11
-4.17699e-11
2.00013e-11
-5.29298e-10
8.23178e-12
-1.17518e-10
1.29285e-12
2.52148e-11
5.58319e-12
4.64503e-10
1.72531e-11
1.26846e-10
2.30464e-11
-3.9029e-11
1.44501e-11
-2.40046e-11
2.0664e-12
9.26399e-11
8.20281e-12
-5.14145e-10
5.60848e-12
-5.18439e-10
-2.29583e-12
-4.22471e-10
-5.10486e-12
-2.65175e-10
6.92161e-12
4.3917e-11
1.3301e-11
3.3703e-10
3.34115e-12
6.41653e-10
-2.26529e-12
1.15758e-09
1.77962e-13
7.72923e-10
4.28321e-12
3.09603e-10
1.10638e-11
-1.90062e-11
2.48189e-11
-1.19291e-10
2.25157e-11
-3.47721e-11
3.95561e-12
-5.8111e-11
-1.5922e-11
-2.73708e-10
-1.41995e-11
-7.79174e-11
-6.43469e-12
1.31867e-10
5.27008e-12
1.88698e-10
-2.26999e-12
3.99885e-10
-8.34751e-12
3.77052e-10
-2.02655e-11
2.45314e-10
-1.78103e-11
-6.0665e-11
5.29344e-12
-5.78477e-10
1.1161e-11
-3.82004e-10
1.15817e-11
2.17638e-10
1.30945e-11
5.70854e-10
1.88198e-11
1.81884e-10
1.6428e-11
2.55484e-10
9.12123e-12
-2.96614e-10
1.43527e-11
-3.02108e-10
8.47266e-13
2.20721e-10
-1.15045e-12
-5.0408e-11
9.15091e-12
-3.83461e-10
1.56595e-11
-8.17559e-10
1.42558e-11
-7.89683e-11
5.8933e-12
4.18192e-10
6.6222e-12
4.91437e-10
7.40771e-12
3.56545e-10
-7.13663e-13
3.61465e-11
-1.69941e-11
-1.82704e-10
-1.97538e-12
-5.91436e-10
1.41621e-11
-2.88387e-10
2.38017e-11
6.04037e-10
2.25233e-11
4.92848e-10
1.7262e-11
-1.29057e-10
8.05394e-12
-2.31675e-10
2.02562e-12
-6.92885e-11
6.89334e-12
-4.91774e-10
1.80604e-11
-9.02839e-10
6.9983e-12
-2.38833e-11
-3.10831e-12
-2.79693e-11
3.64531e-12
2.63756e-10
5.14731e-12
5.77661e-10
3.50989e-12
1.7644e-10
6.00667e-12
-1.80962e-10
1.24592e-11
-5.53355e-10
2.8209e-12
-2.31617e-10
-3.97784e-12
2.79797e-10
-2.45288e-12
2.94117e-10
-5.93546e-12
7.36883e-10
-7.84962e-12
4.79189e-10
6.57887e-12
3.8557e-10
1.73827e-11
6.38041e-10
9.70231e-12
4.11532e-10
-7.88744e-14
7.74048e-11
1.41036e-12
3.01385e-10
6.4494e-12
3.87443e-10
1.32951e-11
4.9463e-10
2.10538e-11
8.67624e-10
3.15737e-11
5.0618e-10
2.31066e-11
3.81388e-10
8.4374e-12
-2.27575e-10
-9.94891e-13
-5.94292e-10
-6.49753e-12
-1.6621e-10
-1.3664e-11
-1.09402e-10
-4.08102e-12
-1.01167e-10
4.61064e-12
2.25316e-11
1.09394e-11
2.2327e-10
1.09546e-11
5.06246e-10
9.84895e-12
7.74203e-10
1.62699e-12
1.09823e-09
-1.59632e-11
5.98235e-10
-2.09964e-11
1.23098e-10
-1.23479e-11
5.0398e-10
4.03305e-12
-1.16082e-10
1.84799e-11
-2.42835e-11
2.36616e-11
1.40113e-10
1.1823e-11
1.97949e-11
-3.34889e-12
-6.35948e-12
1.01265e-12
2.31197e-11
5.07029e-12
-1.14824e-10
-2.5324e-12
2.79955e-10
4.17493e-12
-3.70534e-11
1.19671e-11
1.56839e-10
1.41115e-11
2.66321e-10
1.87509e-11
6.7982e-10
1.20431e-11
6.37613e-10
5.38602e-12
-1.36561e-10
-3.09951e-12
-8.9115e-11
-3.3115e-12
-6.83634e-11
-1.24307e-12
-2.5852e-10
1.84944e-12
5.41361e-11
5.86237e-12
2.13367e-10
4.29763e-12
4.36921e-11
-2.3139e-13
-7.23034e-10
-1.74426e-11
-1.45294e-09
-2.39122e-11
-1.67266e-09
-1.91932e-11
-1.04874e-09
-6.90164e-12
-3.37224e-10
-2.3104e-12
-4.76973e-10
-1.44361e-11
-5.27206e-10
-1.11403e-11
-8.64487e-11
4.29994e-12
-3.49589e-10
1.38704e-11
4.13346e-10
1.4542e-11
7.06225e-10
5.78809e-12
9.88408e-10
1.74605e-12
7.52609e-10
2.67537e-12
4.67829e-10
9.08231e-13
-4.19183e-10
-1.2791e-11
-7.5987e-10
-1.46309e-11
-1.85321e-10
7.21579e-12
-2.22103e-11
1.92255e-11
-1.25522e-10
2.35551e-11
6.12221e-10
2.22105e-11
5.72072e-10
2.15143e-11
2.7417e-10
1.98537e-11
8.26015e-11
8.37351e-12
1.7785e-11
7.49689e-12
4.23184e-10
4.1666e-12
2.15076e-10
-2.61255e-12
-3.84351e-10
-1.60895e-11
-3.99123e-10
-1.79145e-11
-3.12511e-10
-1.66499e-11
8.53688e-11
-2.09509e-11
-1.10302e-11
-2.12635e-11
-2.11581e-10
-1.73124e-11
-9.45291e-11
-2.06701e-11
1.35393e-10
-1.90597e-11
2.70338e-10
-7.58844e-12
8.70997e-11
6.28765e-12
-2.73157e-10
2.12783e-11
-1.65188e-10
1.69753e-11
-1.7054e-10
1.21777e-11
-2.90054e-10
1.79048e-12
-1.06652e-10
-6.62821e-12
-3.57553e-10
-1.69779e-12
-1.09956e-09
4.36853e-12
-1.82825e-09
-7.42656e-13
-2.70197e-09
1.25774e-11
-3.50213e-09
2.58824e-11
-5.27332e-09
2.87827e-11
-9.14661e-09
1.81747e-11
-1.4868e-08
2.4004e-11
-2.33249e-08
3.99642e-11
-3.63338e-08
6.16156e-11
-5.63227e-08
1.06655e-10
-8.88936e-08
1.81014e-10
-1.41278e-07
2.92846e-10
-2.24175e-07
4.63382e-10
-3.55672e-07
7.2979e-10
-5.6423e-07
1.15682e-09
-8.93965e-07
1.84535e-09
-1.41658e-06
2.96688e-09
-2.24682e-06
4.79151e-09
-3.5641e-06
7.75282e-09
-5.65159e-06
1.25701e-08
-8.96482e-06
2.04042e-08
-1.42325e-05
3.30607e-08
-2.25967e-05
5.35537e-08
-3.58725e-05
8.67692e-08
-5.70167e-05
1.40591e-07
-9.0672e-05
2.27988e-07
-0.000144089
3.70409e-07
-0.000229306
6.02556e-07
-0.000365889
9.81895e-07
-0.000583973
1.60453e-06
-0.000932501
2.6287e-06
-0.00149079
4.31368e-06
-0.00237675
7.09803e-06
-0.00377612
1.17162e-05
-0.00600984
1.93778e-05
-0.00956014
3.20951e-05
-0.0150252
5.32276e-05
-0.0233113
8.81666e-05
-0.0355821
0.000145659
-0.0526244
0.000240758
-0.0753597
0.000401473
-0.106944
0.000681716
-0.143479
0.00118489
0.00231763
-0.189784
-5.26998e-11
-1.93061e-13
2.82766e-11
9.95884e-13
2.8433e-10
-6.02382e-13
1.83711e-10
9.40258e-13
-2.96125e-10
-2.50251e-12
-4.61108e-10
-2.20285e-12
-5.60275e-10
3.3789e-12
4.36347e-11
5.20996e-12
3.84994e-10
8.52243e-12
1.57979e-10
9.4498e-12
1.58043e-10
6.68569e-12
1.41645e-10
-2.31885e-12
-6.46063e-10
-2.24917e-12
-3.39017e-10
-3.43501e-12
-2.40767e-11
1.34144e-12
3.97637e-10
-7.93063e-13
7.22554e-10
-6.87724e-13
4.58622e-10
-3.22588e-12
-7.77251e-11
1.71331e-13
-3.03507e-10
2.88739e-13
-1.99195e-10
2.67708e-12
-2.68623e-11
3.37819e-12
-1.46108e-11
1.48624e-12
-3.17331e-11
-2.20486e-12
-2.44095e-10
-1.37564e-11
-5.34363e-10
-1.08683e-11
-5.09962e-10
-5.81134e-12
-2.86512e-10
3.21503e-12
-1.77658e-10
8.83402e-13
4.52125e-10
2.06304e-12
7.04928e-10
5.88167e-12
4.84408e-10
3.71062e-12
1.01509e-10
-1.23583e-11
-1.56769e-10
-8.73373e-12
-5.18777e-10
1.66589e-12
-1.20512e-10
1.04236e-11
6.49255e-10
6.22629e-12
5.51464e-10
-1.05248e-11
8.25534e-11
-1.71755e-11
-2.4469e-10
-1.60161e-11
-4.67656e-10
-1.40888e-11
-8.90131e-10
-1.61352e-11
-1.01395e-09
-5.39084e-12
-4.63508e-10
2.72488e-12
2.4876e-10
1.93564e-12
2.19849e-10
-2.82258e-12
-3.91907e-10
-7.80417e-12
-2.63613e-10
-1.75922e-11
-2.35132e-10
-1.57217e-11
3.44009e-10
-4.2723e-12
4.51372e-10
-2.02446e-12
3.08595e-10
-2.37289e-12
-1.12634e-10
-8.12641e-12
-4.02658e-10
1.71793e-12
-2.85356e-10
1.30609e-11
1.19539e-10
9.99074e-12
8.59714e-10
-2.14551e-12
8.68573e-10
-1.64944e-12
4.63395e-10
7.69036e-13
1.61782e-10
-5.28472e-12
-4.64467e-10
-6.78028e-12
-5.01583e-10
-5.20402e-13
3.12505e-11
5.29416e-12
5.22918e-10
2.52365e-12
5.10429e-10
5.75489e-12
4.92358e-11
1.04723e-11
-3.78144e-10
1.82526e-11
-4.84423e-10
8.44049e-12
-4.19395e-10
4.5618e-14
-1.9701e-10
1.02852e-12
-7.23059e-11
-3.37035e-12
-2.97203e-10
-1.14021e-11
2.57194e-10
-2.21602e-11
1.71231e-10
-2.29456e-11
2.35676e-10
-2.39963e-11
3.7117e-10
-2.62459e-11
5.42049e-10
-1.54179e-11
4.84663e-10
8.75826e-13
-1.04969e-10
1.62287e-11
1.55904e-10
1.86612e-11
4.26382e-10
2.09184e-11
1.6819e-10
2.05561e-11
1.16505e-10
5.25794e-12
1.00702e-10
1.08697e-12
-1.63613e-10
3.04197e-13
-6.54267e-10
-1.54358e-12
-5.94962e-10
6.28218e-13
2.01288e-12
1.506e-11
2.09758e-10
2.29931e-11
7.66377e-10
1.72223e-11
8.06638e-10
6.73262e-12
8.2509e-10
-3.2786e-12
2.82804e-10
-1.69945e-11
-2.42791e-10
-1.59008e-11
-1.25577e-09
-1.44108e-11
-1.5815e-09
6.87077e-13
-9.46582e-10
1.12327e-11
-6.66955e-10
8.35368e-12
-5.76883e-10
4.02659e-12
-4.85968e-10
9.32825e-12
-6.7205e-10
1.28206e-11
-8.29048e-10
1.14258e-11
-1.25743e-09
1.20262e-11
-1.0984e-09
1.42152e-11
-1.51348e-11
1.05467e-11
5.34902e-10
8.37906e-12
4.15903e-10
7.58116e-12
6.62861e-10
2.84238e-12
1.2274e-09
-6.60978e-12
7.10418e-10
-1.49395e-11
1.52605e-10
-1.12905e-11
2.87037e-10
-4.26838e-12
1.5272e-10
5.93696e-12
-5.79717e-10
1.28066e-11
-2.06527e-10
1.16101e-11
3.05632e-10
1.06206e-12
4.7097e-10
-3.39598e-12
3.14826e-10
2.80048e-13
-1.71181e-10
4.23347e-12
-1.23798e-11
1.16539e-11
7.09887e-11
1.6889e-11
-2.34362e-10
1.60031e-11
-5.77174e-10
5.81265e-12
-2.87871e-10
1.03894e-12
-3.51444e-10
4.61559e-12
-3.92413e-10
5.75897e-12
4.01875e-11
-1.03425e-12
1.69254e-10
-9.43213e-12
3.66768e-10
-1.4186e-11
7.59704e-10
-1.76085e-11
4.06759e-10
-1.33809e-11
-3.68288e-10
-3.23744e-12
6.02727e-12
-2.73195e-12
-1.51845e-11
-4.56242e-12
-5.24888e-10
-5.20579e-12
-1.02773e-09
3.22463e-12
-9.28109e-10
7.23371e-12
-1.98238e-10
1.28351e-11
7.6024e-10
1.03654e-11
7.9871e-10
2.23654e-12
3.42079e-10
3.71132e-12
5.14147e-10
1.22425e-11
5.79308e-10
1.75472e-11
7.29049e-10
2.501e-11
-4.47618e-11
2.44136e-11
-2.67283e-10
2.32336e-11
3.12531e-10
1.76011e-11
1.9636e-10
1.79744e-11
-3.92917e-10
4.71863e-12
-3.74549e-10
-4.32751e-12
-7.97116e-10
2.38933e-12
-1.49871e-09
1.41922e-11
-1.79024e-09
9.40359e-12
-8.48329e-10
2.49259e-12
-3.83364e-10
-6.32075e-12
2.22874e-10
-8.1141e-12
7.88094e-10
3.03271e-12
1.0822e-09
1.28932e-11
1.25991e-09
6.44951e-12
9.64947e-10
6.96185e-13
8.75893e-10
6.00996e-12
6.42994e-10
1.66509e-11
3.57211e-10
2.22639e-11
2.10729e-10
3.0024e-11
-1.22075e-10
2.25704e-11
-2.45934e-10
1.41932e-11
-3.24849e-10
1.2068e-11
-6.00152e-10
1.54535e-11
8.68054e-11
1.47108e-11
4.95411e-10
1.64368e-11
5.08602e-10
2.17199e-11
1.60433e-10
2.53806e-11
9.45747e-11
1.3234e-11
5.3463e-11
5.00247e-12
-3.95224e-10
4.51757e-12
-3.56864e-10
4.43729e-13
-3.99671e-10
6.62582e-12
-5.55639e-10
1.88819e-11
-2.70962e-10
2.33593e-11
-2.05886e-10
2.51836e-11
-3.19615e-10
1.62336e-11
-1.32693e-10
8.78902e-12
8.66811e-11
3.74034e-12
9.38246e-12
-4.02199e-12
-1.38447e-10
-4.4551e-12
6.11853e-11
-1.44124e-12
3.20618e-10
3.18238e-13
2.79329e-10
9.465e-12
2.80633e-10
1.06004e-11
8.88185e-10
8.85215e-12
1.04968e-09
7.95783e-12
6.18579e-10
1.42174e-12
9.86889e-10
-5.54839e-12
9.96966e-10
-1.80607e-11
1.25074e-10
-1.65254e-11
-2.3919e-11
-1.7748e-11
-3.02758e-10
-1.02489e-11
-2.76142e-11
4.24034e-12
2.9412e-10
1.81358e-11
3.15933e-10
2.26029e-11
-5.85574e-11
1.58904e-11
-1.18241e-10
1.64561e-11
-3.29562e-10
2.08299e-11
-4.35095e-10
1.4787e-11
-4.96757e-10
1.40579e-11
-3.92465e-10
3.07089e-12
-3.00254e-10
-2.44168e-12
-1.02593e-10
-9.11769e-12
-9.82003e-11
-2.79968e-12
8.8805e-11
6.5382e-12
5.2327e-10
2.94094e-12
5.25577e-10
-1.86583e-12
6.00266e-10
-1.22491e-11
3.15752e-10
-1.74056e-11
2.22406e-10
-2.74942e-11
1.6723e-10
-2.70659e-11
-6.43876e-11
-6.6992e-12
-4.62571e-10
2.04842e-11
-1.19017e-09
2.19847e-11
-8.00352e-10
5.94696e-12
-5.67344e-10
1.53566e-13
-7.46385e-10
6.83395e-13
-1.9948e-10
-5.13827e-13
2.17713e-10
-1.20268e-12
-1.33134e-10
-8.9437e-12
-5.8255e-10
-1.76612e-11
-1.95041e-10
-1.85174e-11
-5.03339e-11
-1.75667e-11
-1.61813e-10
-8.25614e-12
-3.28114e-10
6.67736e-12
2.83989e-10
2.06322e-11
5.89259e-10
2.84236e-11
6.41211e-10
3.37113e-11
7.68362e-10
2.96858e-11
1.03357e-10
2.42415e-11
-1.71678e-10
2.03133e-11
1.9815e-10
1.43532e-11
9.17721e-10
8.14789e-12
6.53038e-10
-2.60505e-12
4.61499e-10
-1.90855e-11
-5.69104e-11
-3.00344e-11
-6.79816e-10
-2.97226e-11
-8.07775e-10
-1.76689e-11
-8.76222e-10
3.6489e-13
-5.54482e-10
1.71162e-11
-3.40625e-10
2.69279e-11
-7.02487e-11
2.55509e-11
-1.48572e-10
1.37357e-11
-1.30729e-10
7.38133e-12
-6.91766e-10
1.09567e-11
-6.07389e-10
8.83712e-12
-6.96554e-10
3.93516e-12
-7.92127e-10
-7.94264e-12
-1.05843e-09
-1.40593e-11
-1.11979e-09
-1.24276e-11
-4.18905e-10
-2.23372e-13
-4.46704e-10
6.37328e-12
-1.05706e-09
7.15977e-12
-2.21003e-09
1.34169e-11
-3.37845e-09
2.4013e-11
-5.24593e-09
3.15571e-11
-8.2833e-09
4.6048e-11
-1.30397e-08
6.07258e-11
-2.10116e-08
8.37275e-11
-3.44671e-08
1.21078e-10
-5.49636e-08
1.96404e-10
-8.63411e-08
3.21257e-10
-1.35248e-07
5.06094e-10
-2.13596e-07
8.03569e-10
-3.3856e-07
1.29343e-09
-5.36943e-07
2.07668e-09
-8.51499e-07
3.34767e-09
-1.34871e-06
5.39724e-09
-2.13567e-06
8.69703e-09
-3.38378e-06
1.40201e-08
-5.35994e-06
2.2599e-08
-8.48804e-06
3.64383e-08
-1.34494e-05
5.87755e-08
-2.13213e-05
9.48258e-08
-3.37813e-05
1.53023e-07
-5.35445e-05
2.46944e-07
-8.49821e-05
3.98619e-07
-0.000134818
6.44105e-07
-0.000213854
1.04155e-06
-0.000340077
1.68594e-06
-0.000541379
2.73355e-06
-0.000860987
4.44034e-06
-0.00137017
7.22096e-06
-0.00218002
1.17627e-05
-0.00345531
1.92026e-05
-0.00547072
3.14011e-05
-0.00868531
5.14177e-05
-0.0136881
8.4331e-05
-0.0212791
0.0001383
-0.0327827
0.000226463
-0.0494935
0.000370413
-0.0724306
0.00060677
-0.104503
0.000999747
-0.144548
0.00164956
0.00285553
-0.1891
2.74926e-10
-5.04482e-13
2.32578e-10
-3.10625e-12
-4.92049e-10
1.83426e-12
-2.81071e-10
-1.16019e-12
-2.28037e-10
-1.88787e-12
-1.93718e-10
1.94649e-12
1.24593e-11
3.82113e-12
6.99308e-11
-2.55485e-12
7.91129e-11
2.00955e-12
3.92933e-10
4.60448e-12
3.55529e-10
6.17134e-12
-1.01696e-10
-2.16187e-12
-1.47282e-10
1.50511e-12
-7.59377e-11
2.32276e-15
-3.16056e-10
-3.08424e-12
-1.91211e-10
4.1544e-12
2.41508e-10
1.23335e-11
4.4509e-10
1.1119e-11
3.93624e-10
-6.98027e-13
1.36013e-10
-6.6287e-12
-1.88917e-10
-1.28167e-11
-6.53166e-10
-1.4013e-11
-5.61483e-10
-6.83827e-12
-5.98879e-10
-1.68304e-12
-4.79016e-10
1.04123e-12
-4.0185e-10
-8.89462e-13
1.68851e-11
-5.9532e-12
6.65894e-10
-5.25322e-12
6.49895e-10
4.81501e-12
3.79597e-10
-2.84298e-12
4.97314e-10
-1.3305e-11
1.57229e-10
-1.24542e-11
2.53861e-10
-1.54119e-11
3.01798e-10
-8.51885e-12
1.13676e-10
3.54678e-12
-3.41162e-10
5.66782e-12
-4.87212e-10
-2.86651e-13
-8.32514e-10
7.20703e-12
-5.26205e-10
2.22212e-12
-5.01404e-13
1.98295e-12
2.83156e-11
4.83921e-12
1.08315e-11
4.74112e-12
8.38445e-10
-1.37955e-11
8.20901e-10
-2.53749e-11
-6.9e-10
-2.59035e-11
-1.00538e-09
-1.42616e-11
-4.09844e-10
-1.36006e-12
5.55294e-10
6.56289e-12
3.92261e-10
1.82514e-11
3.92801e-10
1.95459e-11
6.92621e-10
-2.08438e-12
1.05402e-09
-1.63e-11
1.06813e-09
-1.63123e-11
4.73669e-10
-1.64911e-11
4.43446e-10
-8.15719e-12
-2.77398e-10
-2.1009e-12
-5.85002e-10
1.16178e-11
-1.40034e-10
1.82363e-11
-2.00652e-10
1.64016e-11
-8.56218e-11
8.32883e-12
4.74028e-10
4.65419e-12
7.9906e-10
5.00211e-12
6.2797e-10
1.07415e-11
8.53747e-11
-3.43629e-12
-9.54392e-10
-2.2801e-11
-8.1338e-10
-1.33034e-11
3.40657e-10
4.77311e-12
1.08764e-09
1.60212e-11
5.74907e-10
1.3359e-11
-7.97988e-10
1.92612e-12
-9.12376e-10
-6.09027e-12
-6.77749e-10
-8.75755e-12
-1.5576e-10
-1.13853e-11
6.24555e-11
-1.03353e-11
2.60361e-10
-1.00541e-11
8.75359e-10
-2.86874e-12
8.90696e-10
3.04111e-12
2.89805e-10
6.32823e-12
1.99069e-10
5.77248e-12
3.92349e-10
1.2954e-11
3.60949e-10
2.11142e-11
1.85073e-10
2.13643e-11
-1.1322e-10
7.1118e-12
-4.31154e-10
-3.74111e-12
-8.80971e-10
9.70386e-13
-1.1013e-09
5.35144e-12
-6.33192e-10
1.06207e-11
8.05135e-11
2.52493e-11
5.87878e-10
2.7069e-11
6.83107e-10
2.20583e-11
5.99758e-10
1.59333e-11
4.37327e-10
1.39573e-11
9.36321e-11
-1.33818e-12
-5.75927e-10
-1.31045e-11
-6.51129e-10
-1.9727e-11
-5.27505e-11
-1.24727e-11
5.58615e-10
-6.17579e-12
3.99566e-10
-6.42811e-12
-6.13808e-10
-7.8263e-12
-1.16632e-09
-7.89353e-12
-1.12952e-09
-1.1129e-11
-6.13408e-10
-8.03071e-12
1.00968e-10
1.57517e-12
4.29561e-10
1.68162e-11
9.90279e-11
1.85255e-11
-2.50247e-12
3.43461e-12
3.6822e-11
-9.57569e-12
2.85754e-10
-7.96754e-12
5.23745e-10
-1.0751e-11
3.13962e-10
-1.88585e-11
-2.65769e-11
-1.9919e-11
9.53608e-11
-9.42787e-12
6.67613e-10
-3.52827e-13
4.33418e-10
-1.12074e-12
2.44277e-11
3.13148e-12
3.88374e-10
1.82596e-12
1.12606e-10
8.85891e-13
1.30009e-10
1.38056e-13
-2.04929e-10
6.31741e-14
1.95342e-10
-2.70927e-12
3.42309e-10
-1.04351e-12
2.67195e-10
4.41958e-12
1.07487e-10
9.3004e-12
-1.14593e-10
1.09745e-11
9.75928e-11
9.19271e-12
3.71043e-10
5.03222e-12
-3.81833e-10
6.32604e-12
-6.13668e-10
5.90552e-12
-7.78622e-10
-5.21619e-13
-4.55202e-10
-1.11957e-12
-1.29301e-11
4.29782e-12
2.50228e-10
3.18316e-12
1.11225e-10
-3.51359e-14
-3.30991e-11
2.9253e-12
-5.83423e-10
-2.64657e-12
-8.32784e-10
-1.39861e-12
-5.27687e-10
4.90729e-12
-9.72527e-10
5.04982e-12
-6.52502e-10
-2.65284e-12
1.0776e-11
-3.23095e-12
2.94567e-10
-5.60054e-12
5.36008e-10
-3.22151e-12
3.57639e-10
3.17385e-12
-4.07534e-10
1.11183e-11
-6.89929e-10
2.3583e-11
-1.19351e-09
3.04762e-11
-9.04235e-10
2.32099e-11
-3.7242e-10
1.09915e-11
-1.64289e-10
2.08515e-12
1.10787e-10
-1.14074e-11
-4.11769e-10
-1.00767e-11
-8.62243e-10
-4.93112e-12
-2.54567e-10
-8.18934e-12
-9.60072e-11
-9.76043e-12
5.15543e-10
-1.01819e-11
5.69207e-10
-5.75757e-12
-1.13633e-10
-2.15716e-12
-6.39062e-10
-2.43398e-12
-6.9732e-10
5.42924e-12
-5.87169e-10
2.48008e-12
-9.58567e-11
6.33084e-12
6.08009e-10
6.37812e-12
1.20089e-09
8.25474e-12
1.30293e-09
1.49454e-11
7.40166e-10
9.36523e-12
5.19929e-11
1.32681e-12
-1.05264e-10
2.63988e-12
5.60629e-11
6.75499e-12
2.54839e-10
1.81552e-11
3.78383e-10
2.95476e-11
5.86431e-10
2.53671e-11
5.82553e-10
2.19114e-11
-1.20292e-10
1.75337e-11
-8.17377e-11
2.043e-11
6.26708e-10
1.79913e-11
2.32464e-10
7.89335e-12
-5.83369e-11
1.31718e-12
-2.84758e-10
-1.06947e-12
-6.4164e-10
-1.86414e-12
-5.09387e-10
-8.12457e-13
-7.57663e-11
2.74934e-12
8.22298e-11
1.05589e-11
1.70361e-10
1.33371e-11
6.96835e-10
1.89098e-11
1.00709e-09
1.69085e-11
6.19437e-10
3.39286e-12
5.31294e-10
1.06354e-12
9.31798e-10
2.85542e-12
1.37488e-09
-3.25147e-12
5.63715e-10
3.37889e-12
-7.37037e-12
1.03677e-11
-6.02785e-11
1.55524e-11
5.37522e-10
9.0855e-12
7.14342e-10
-3.61706e-12
7.26282e-10
-8.91921e-12
1.7372e-10
-1.62286e-11
-5.13262e-10
-1.29809e-11
-6.89647e-10
9.48595e-14
-5.09108e-10
1.18176e-11
2.67944e-10
1.37846e-11
4.7677e-10
8.23478e-12
2.90482e-10
5.46294e-12
3.12595e-11
8.16322e-12
-3.88766e-10
2.57856e-12
-2.25633e-10
-1.24382e-12
-3.6632e-10
-2.22557e-12
-2.22494e-10
-1.22789e-12
-4.123e-10
-7.99676e-12
-3.41042e-10
-1.17108e-11
-2.69998e-10
-1.20803e-11
-2.73386e-10
-1.26112e-11
3.60233e-10
-1.20459e-11
5.78746e-11
-1.1126e-11
-3.15026e-10
-1.06745e-11
2.92235e-10
-2.17122e-12
4.51732e-10
7.56508e-12
-2.04032e-10
1.90064e-11
-4.73053e-10
1.65362e-11
-3.64186e-10
-2.05886e-12
-5.5926e-10
-1.17957e-11
-7.30686e-10
-1.54366e-11
-2.65785e-10
-1.45336e-11
4.77315e-11
-1.27442e-12
2.27821e-11
5.69338e-12
-4.08798e-10
8.98765e-12
1.50814e-10
8.90873e-12
-5.18119e-11
1.33924e-11
-6.98103e-10
1.46017e-11
1.01861e-10
1.26236e-11
5.31162e-10
1.35575e-11
3.64718e-10
5.98064e-12
2.67186e-10
6.70551e-12
1.81787e-10
3.92874e-12
8.84147e-11
2.45955e-12
1.48384e-10
1.12561e-12
2.42244e-10
4.71829e-12
1.30114e-10
5.27993e-12
1.52127e-10
-4.84409e-13
8.50077e-11
-1.31162e-11
4.47883e-10
-2.13662e-11
1.66121e-10
-1.80204e-11
-2.56002e-10
-1.09825e-11
-2.93538e-10
-6.24149e-12
-5.81257e-10
-4.59345e-12
-7.03656e-10
2.13723e-12
-3.90852e-10
2.1112e-11
5.65152e-10
2.94862e-11
3.9959e-10
3.15708e-11
5.6449e-11
3.35527e-11
9.8095e-11
3.42016e-11
1.34916e-10
2.01842e-11
-3.46525e-10
1.28119e-11
-3.79117e-10
3.30079e-12
-7.89993e-11
-8.0077e-12
-4.5554e-10
-7.35449e-12
-3.87074e-10
-1.90941e-13
-6.82836e-10
-1.08711e-12
-6.65819e-10
6.4618e-12
-1.40379e-09
3.18386e-12
-2.50911e-09
1.32816e-11
-4.70122e-09
3.29534e-11
-7.85706e-09
5.41954e-11
-1.25166e-08
7.89584e-11
-1.96472e-08
1.0806e-10
-3.15287e-08
1.5442e-10
-4.98252e-08
2.40301e-10
-7.88062e-08
3.8552e-10
-1.23901e-07
6.29577e-10
-1.95897e-07
1.03869e-09
-3.10527e-07
1.68413e-09
-4.91395e-07
2.70604e-09
-7.77275e-07
4.34344e-09
-1.23e-06
6.97214e-09
-1.94393e-06
1.11826e-08
-3.07278e-06
1.79528e-08
-4.85835e-06
2.87986e-08
-7.6756e-06
4.62119e-08
-1.21288e-05
7.41818e-08
-1.91847e-05
1.19128e-07
-3.0319e-05
1.91319e-07
-4.78921e-05
3.07278e-07
-7.57878e-05
4.93459e-07
-0.000119957
7.92738e-07
-0.000189634
1.27394e-06
-0.000300432
2.04806e-06
-0.000476897
3.29478e-06
-0.000755156
5.30668e-06
-0.00119503
8.55339e-06
-0.00189587
1.37991e-05
-0.00300031
2.22924e-05
-0.00473686
3.60612e-05
-0.0075188
5.83875e-05
-0.0118741
9.46577e-05
-0.0184518
0.000153559
-0.0285258
0.000248998
-0.0436763
0.000403219
-0.0649512
0.000652651
-0.0951382
0.00105946
-0.132529
0.00171747
0.00286772
-0.171426
2.74981e-10
4.31945e-15
1.94975e-10
-2.92896e-12
1.73281e-12
-1.48485e-12
-1.5572e-11
-2.03316e-12
-4.27524e-10
2.17985e-12
-3.52068e-10
4.3815e-12
4.72568e-10
-3.50784e-12
2.93477e-10
-6.70929e-12
-2.90984e-10
-7.78909e-12
-5.60451e-10
-2.03039e-12
-3.24346e-10
8.23422e-12
-2.57284e-10
6.51764e-12
2.75651e-10
7.03538e-12
4.79924e-10
8.87783e-12
8.07854e-11
9.40225e-12
1.55279e-10
1.69098e-12
4.6657e-10
3.74778e-12
2.81263e-10
5.13587e-12
-5.08502e-10
-2.30344e-12
-1.35197e-10
-7.41041e-12
-1.9827e-11
-4.11604e-12
3.54722e-11
1.06521e-12
8.37747e-11
5.96942e-12
-1.17284e-10
8.82829e-12
3.06579e-10
1.06125e-11
8.02866e-11
6.84853e-12
1.1601e-11
-4.42154e-12
-3.06846e-11
-4.65254e-12
2.72302e-10
-4.62433e-12
2.79732e-10
-9.78298e-12
-5.2794e-10
-1.38325e-11
-8.05189e-10
-1.61543e-11
-6.2687e-10
-3.33589e-12
-1.2906e-10
4.93049e-12
8.99554e-11
9.0877e-12
5.83453e-10
6.82843e-12
1.53884e-10
2.96283e-12
-1.20181e-10
9.16925e-12
2.48708e-10
1.17402e-11
3.80062e-10
3.63882e-12
9.85844e-11
4.01433e-12
-5.25318e-10
9.1282e-12
-8.43542e-10
-1.63492e-12
-7.85667e-10
-1.32121e-11
-3.27619e-10
-7.05431e-12
-1.52762e-10
-1.9579e-12
2.41546e-11
5.32568e-12
7.97422e-11
1.76531e-11
-2.45909e-10
1.81066e-11
-4.06231e-10
1.55231e-11
3.99095e-10
9.40277e-12
3.41001e-10
3.55447e-13
3.1486e-11
-7.93339e-12
1.39711e-10
-1.10627e-11
2.29932e-10
-1.50482e-11
-1.56112e-10
-1.492e-11
-3.05779e-11
-1.89566e-12
6.85031e-10
8.22375e-12
6.5315e-10
1.01934e-11
3.52826e-10
8.82357e-12
2.55108e-10
6.66855e-12
-3.1503e-10
2.59785e-12
-8.47798e-10
-2.50566e-12
-7.29991e-10
-1.17952e-11
-3.97445e-10
-2.58979e-11
-2.32199e-10
-2.13291e-11
5.91762e-11
-9.59251e-12
-2.44569e-11
3.33156e-12
1.60493e-10
3.07717e-12
2.90984e-10
-7.81658e-12
1.48315e-10
-6.02737e-12
-2.05816e-10
1.47614e-12
-5.60732e-10
1.52771e-11
-3.45416e-10
1.57103e-11
2.8965e-10
1.36675e-11
4.80525e-10
1.64131e-11
6.58224e-10
2.144e-11
5.57472e-10
1.17683e-11
-2.81824e-10
-5.06586e-12
-8.72231e-10
-3.55153e-12
-1.03616e-09
-2.75306e-12
-2.87612e-10
6.47028e-12
-2.96443e-10
1.93682e-11
-5.37878e-10
1.69664e-11
8.12139e-11
1.98814e-12
7.20784e-10
-7.66333e-13
9.23638e-10
6.9973e-12
7.8253e-10
1.16366e-11
4.1235e-10
1.09141e-11
2.19927e-10
1.81733e-13
3.84669e-11
-6.41294e-12
7.72144e-11
-3.46363e-12
3.13219e-10
-1.46531e-12
3.56335e-10
-9.76348e-12
1.4638e-10
-7.47695e-12
-6.19264e-10
-1.27546e-11
-1.51506e-10
-1.04588e-11
4.10721e-10
-1.36063e-11
5.26627e-10
-7.24239e-12
-2.16536e-10
-6.49491e-12
-1.39287e-10
-6.3409e-13
-4.58491e-10
1.72462e-12
-7.47133e-10
6.18981e-12
-1.00671e-09
1.58121e-12
-5.44709e-10
1.40531e-12
2.28494e-10
-1.96086e-12
1.40074e-10
-5.28164e-12
-7.48024e-11
5.67135e-13
6.33269e-10
-1.03895e-12
6.66558e-10
-2.07687e-12
7.4351e-10
-6.566e-12
4.92922e-10
-9.22345e-12
5.10144e-10
-1.00212e-11
2.92171e-10
-8.51457e-12
3.76583e-10
4.73168e-12
5.22202e-12
6.60863e-12
5.71498e-11
-5.45558e-12
1.50008e-10
-1.27397e-11
3.3435e-10
-1.82303e-11
-2.33366e-10
-2.05347e-11
-9.8405e-11
-2.01984e-11
-4.03177e-10
-8.19915e-12
-2.8803e-10
8.87581e-12
-3.02567e-10
1.85099e-11
-1.64814e-10
1.43906e-11
-3.74396e-10
1.3397e-11
-9.37738e-10
2.05851e-11
-2.00659e-10
1.93359e-11
4.5536e-10
1.36409e-11
2.24568e-10
6.42633e-12
-5.93899e-10
-3.20601e-12
-1.05058e-09
-6.44715e-12
-7.59072e-10
-9.18711e-12
-2.96165e-10
1.22945e-12
2.07592e-10
5.64663e-12
4.48854e-10
4.79177e-12
6.15555e-10
3.81215e-13
7.25885e-10
-5.88273e-13
1.44636e-10
-2.59213e-12
-6.008e-10
-2.33987e-12
-5.48493e-10
-2.83585e-12
-4.52323e-10
-2.01098e-13
-5.64612e-12
3.8281e-12
-1.69885e-10
-8.08794e-13
-2.59855e-10
5.8811e-12
-4.20076e-10
1.47965e-11
-5.13067e-10
8.82326e-12
-5.42314e-10
-8.1892e-12
-4.40887e-10
-1.73931e-11
-4.1768e-10
-1.02174e-11
5.50104e-11
-1.09637e-11
3.05995e-10
-1.59366e-11
6.5285e-10
-1.32797e-11
1.18528e-09
-1.58343e-11
9.14892e-10
-1.33338e-11
-4.48281e-11
-1.42716e-11
-5.78673e-10
-1.59e-11
-5.77176e-11
-1.49378e-11
4.75656e-10
-9.26438e-12
5.85163e-10
1.35453e-14
3.84062e-10
1.86463e-13
1.29313e-10
-1.08417e-11
2.49448e-10
-6.696e-12
1.25281e-10
-3.66102e-12
1.91338e-10
7.09506e-12
3.66171e-10
1.08921e-11
7.07471e-11
1.09864e-11
-1.68031e-10
8.7344e-12
8.98702e-11
9.138e-12
1.10812e-10
6.72681e-12
-7.17185e-10
-3.9967e-12
-6.12876e-10
-8.86489e-13
-2.60734e-10
9.33332e-12
-3.44219e-10
1.74559e-11
-1.31114e-10
2.41067e-11
-1.71082e-10
1.05259e-11
-7.47834e-10
-3.26243e-12
-9.95887e-11
-7.75367e-12
-3.07487e-10
-5.4616e-12
-1.14613e-09
1.61914e-12
-7.2112e-10
7.43439e-12
6.0817e-10
2.02527e-11
7.00942e-10
2.6244e-11
4.47584e-10
2.38001e-11
1.45089e-10
2.3299e-11
-1.12331e-10
1.34914e-11
2.51676e-10
-2.42227e-12
4.59768e-10
-2.16856e-11
7.15574e-11
-2.38202e-11
4.97717e-10
-1.65995e-11
8.81581e-10
-1.26872e-11
1.38633e-09
-1.18175e-11
1.04249e-09
-3.81015e-12
7.28138e-10
1.87305e-11
5.65712e-10
3.23893e-11
5.26325e-10
2.48126e-11
3.49835e-10
1.92372e-11
1.41489e-10
8.58722e-12
6.9566e-10
2.13749e-12
5.81484e-10
-3.66511e-12
1.45904e-10
-1.9712e-12
1.61419e-11
-8.83349e-12
-6.02766e-11
-1.72049e-11
-1.21345e-10
-2.50573e-11
4.48226e-10
-3.73796e-11
5.25377e-10
-3.3124e-11
-1.37437e-10
-1.68167e-11
-2.52646e-10
2.88364e-13
-2.50911e-10
5.37912e-12
-5.24016e-10
5.89385e-12
-6.34127e-10
1.24024e-11
-7.75524e-10
1.45451e-11
-5.68713e-10
1.33014e-11
-3.53701e-10
8.66702e-12
-4.86478e-12
8.00864e-12
1.12585e-10
1.07275e-11
1.74379e-10
4.85632e-12
7.46714e-11
-6.44348e-12
1.23677e-10
-1.68484e-11
-2.24642e-10
-1.79811e-11
-9.02594e-11
-2.83755e-11
-2.52884e-10
-3.06189e-11
-5.34092e-11
-1.61019e-11
3.53579e-10
-2.1478e-12
8.35444e-10
5.29953e-12
7.2412e-10
7.15495e-12
-2.24992e-11
7.81236e-12
-1.9233e-10
2.60283e-11
8.5649e-12
3.30496e-11
-2.13912e-11
2.3905e-11
-2.71674e-10
1.121e-11
-3.24265e-10
-1.15116e-11
-2.51455e-10
-1.97548e-11
-1.83518e-10
-1.6865e-11
-2.55096e-10
-9.58941e-12
-6.43153e-10
-1.49961e-12
-2.77806e-10
3.41027e-12
-1.97451e-10
1.30227e-11
-2.55866e-10
1.90518e-11
1.123e-10
2.71579e-11
-5.44072e-11
1.803e-11
4.09156e-10
6.62249e-12
3.16675e-10
-7.58736e-13
1.88679e-10
-1.84705e-11
-6.62902e-10
-2.59891e-11
-1.26889e-09
-2.34317e-11
-1.42405e-09
-1.13671e-11
-7.9026e-10
5.82807e-12
-1.46916e-10
1.53962e-11
-3.28261e-10
1.2128e-11
-7.80952e-10
9.46636e-12
-5.73235e-10
1.10561e-11
2.35136e-10
1.09048e-11
-2.14909e-10
1.44664e-11
-7.19e-10
6.5719e-12
-3.48907e-10
-4.90134e-12
-5.37736e-10
-1.2527e-11
-1.05496e-09
-1.2066e-11
-1.37348e-09
-8.61132e-12
-1.88033e-09
-5.9743e-13
-3.62194e-09
1.81455e-11
-7.12506e-09
4.53338e-11
-1.19841e-08
7.48208e-11
-1.82528e-08
1.18582e-10
-2.79405e-08
1.8874e-10
-4.43008e-08
2.8729e-10
-7.01413e-08
4.51527e-10
-1.10593e-07
7.31217e-10
-1.74145e-07
1.17601e-09
-2.74506e-07
1.87672e-09
-4.33685e-07
2.98662e-09
-6.85042e-07
4.77138e-09
-1.08063e-06
7.63908e-09
-1.70364e-06
1.22083e-08
-2.68759e-06
1.95211e-08
-4.24153e-06
3.12153e-08
-6.68594e-06
4.99194e-08
-1.05348e-05
7.97978e-08
-1.66186e-05