/*--------------------------------*- C++ -*----------------------------------*\
| =========                 |                                                 |
| \\      /  F ield         | OpenFOAM: The Open Source CFD Toolbox           |
|  \\    /   O peration     | Version:  2412                                  |
|   \\  /    A nd           | Website:  www.openfoam.com                      |
|    \\/     M anipulation  |                                                 |
\*---------------------------------------------------------------------------*/
FoamFile
{
    version     2.0;
    format      ascii;
    arch        "LSB;label=32;scalar=64";
    class       surfaceScalarField;
    location    "0.005";
    object      phi;
}
// * * * * * * * * * * * * * * * * * * * * * * * * * * * * * * * * * * * * * //

dimensions      [1 0 -1 0 0 0 0];

oriented        oriented;

internalField   nonuniform List<scalar> 
359100
(
3.27398
1.38778e-17
3.27398
1.38778e-17
3.27398
4.16334e-17
3.27398
1.38778e-17
3.27398
-2.77556e-17
3.27398
-1.38778e-17
3.27398
-8.32667e-17
3.27398
-1.38778e-16
3.27398
-2.35922e-16
3.27398
-3.46945e-16
3.27398
-4.44089e-16
3.27398
-5.41234e-16
3.27398
-6.38378e-16
3.27398
-7.63278e-16
3.27398
-1.04083e-15
3.27398
-1.29063e-15
3.27398
-1.45717e-15
3.27398
-1.42941e-15
3.27398
-1.31839e-15
3.27398
-1.23512e-15
3.27398
-1.31839e-15
3.27398
-1.48492e-15
3.27398
-1.51268e-15
3.27398
-1.38778e-15
3.27398
-1.13798e-15
3.27398
-8.74301e-16
3.27398
-7.77156e-16
3.27398
-8.04912e-16
3.27398
-8.74301e-16
3.27398
-9.15934e-16
3.27398
-8.74301e-16
3.27398
-9.15934e-16
3.27398
-9.4369e-16
3.27398
-9.4369e-16
3.27398
-9.15934e-16
3.27398
-9.99201e-16
3.27398
-1.09635e-15
3.27398
-1.19349e-15
3.27398
-1.30451e-15
3.27398
-1.249e-15
3.27398
-1.04083e-15
3.27398
-8.32667e-16
3.27398
-6.245e-16
3.27398
-6.245e-16
3.27398
-9.02056e-16
3.27398
-1.34615e-15
3.27398
-1.69309e-15
3.27398
-1.94289e-15
3.27398
-1.97065e-15
3.27398
-1.90126e-15
3.27398
-1.8735e-15
3.27398
-1.88738e-15
3.27398
-1.92901e-15
3.27398
-2.01228e-15
3.27398
-1.95677e-15
3.27398
-1.9984e-15
3.27398
-1.84575e-15
3.27398
-1.70697e-15
3.27398
-1.58207e-15
3.27398
-1.56819e-15
3.27398
-1.38778e-15
3.27398
-1.26288e-15
3.27398
-1.16573e-15
3.27398
-1.1241e-15
3.27398
-1.15186e-15
3.27398
-1.31839e-15
3.27398
-1.67921e-15
3.27398
-1.9984e-15
3.27398
-2.26208e-15
3.27398
-2.28983e-15
3.27398
-2.26208e-15
3.27398
-2.22045e-15
3.27398
-2.16493e-15
3.27398
-2.01228e-15
3.27398
-1.9984e-15
3.27398
-1.97065e-15
3.27398
-1.95677e-15
3.27398
-1.92901e-15
3.27398
-1.92901e-15
3.27398
-2.02616e-15
3.27398
-2.04003e-15
3.27398
-1.85962e-15
3.27398
-1.58207e-15
3.27398
-1.42941e-15
3.27398
-1.44329e-15
3.27398
-1.48492e-15
3.27398
-1.51268e-15
3.27398
-1.52656e-15
3.27398
-1.59595e-15
3.27398
-1.84575e-15
3.27398
-2.02616e-15
3.27398
-2.05391e-15
3.27398
-2.05391e-15
3.27398
-1.88738e-15
3.27398
-1.84575e-15
3.27398
-1.92901e-15
3.27398
-1.8735e-15
3.27398
-1.7486e-15
3.27398
-1.52656e-15
3.27398
-1.27676e-15
3.27398
-1.29063e-15
3.27398
-1.52656e-15
3.27398
-1.77636e-15
3.27398
-1.92901e-15
3.27398
-1.95677e-15
3.27398
-1.90126e-15
3.27398
-2.04003e-15
3.27398
-2.33147e-15
3.27398
-2.52576e-15
3.27398
-2.55351e-15
3.27398
-2.53964e-15
3.27398
-2.51188e-15
3.27398
-2.41474e-15
3.27398
-2.3731e-15
3.27398
-2.34535e-15
3.27398
-2.40086e-15
3.27398
-2.38698e-15
3.27398
-2.33147e-15
3.27398
-2.2482e-15
3.27398
-2.26208e-15
3.27398
-2.35922e-15
3.27398
-2.59515e-15
3.27398
-2.88658e-15
3.27398
-2.98372e-15
3.27398
-2.90046e-15
3.27398
-2.72005e-15
3.27398
-2.45637e-15
3.27398
-2.28983e-15
3.27398
-2.1233e-15
3.27398
-1.77636e-15
3.27398
-1.36002e-15
3.27398
-9.99201e-16
3.27398
-8.32667e-16
3.27398
-7.49401e-16
3.27398
-7.91034e-16
3.27398
-8.88178e-16
3.27398
-1.05471e-15
3.27398
-1.33227e-15
3.27398
-1.42941e-15
3.27398
-1.51268e-15
3.27398
-1.63758e-15
3.27398
-1.72085e-15
3.27398
-1.79023e-15
3.27398
-1.81799e-15
3.27398
-1.90126e-15
3.27398
-1.91513e-15
3.27398
-2.01228e-15
3.27398
-2.02616e-15
3.27398
-1.90126e-15
3.27398
-1.66533e-15
3.27398
-1.40166e-15
3.27398
-1.34615e-15
3.27398
-1.55431e-15
3.27398
-1.88738e-15
3.27398
-2.08167e-15
3.27398
-2.20657e-15
3.27398
-2.27596e-15
3.27398
-2.41474e-15
3.27398
-2.53964e-15
3.27398
-2.60902e-15
3.27398
-2.53964e-15
3.27398
-2.53964e-15
3.27398
-2.498e-15
3.27398
-2.48412e-15
3.27398
-2.56739e-15
3.27398
-2.59515e-15
3.27398
-2.59515e-15
3.27398
-2.55351e-15
3.27398
-2.47025e-15
3.27398
-2.2482e-15
3.27398
-1.9984e-15
3.27398
-1.81799e-15
3.27398
-1.76248e-15
3.27398
-1.76248e-15
3.27398
-1.59595e-15
3.27398
-1.44329e-15
3.27398
-1.31839e-15
3.27398
-1.34615e-15
3.27398
-1.42941e-15
3.27398
-1.72085e-15
3.27398
-1.9984e-15
3.27398
-2.17881e-15
3.27398
-2.2482e-15
3.27398
-2.09555e-15
3.27398
-1.85962e-15
3.27398
-1.73472e-15
3.27398
-1.70697e-15
3.27398
-1.81799e-15
3.27398
-2.04003e-15
3.27398
-2.16493e-15
3.27398
-2.15106e-15
3.27398
-1.9984e-15
3.27398
-1.70697e-15
3.27398
-1.40166e-15
3.27398
-1.34615e-15
3.27398
-1.42941e-15
3.27398
-1.66533e-15
3.27398
-1.80411e-15
3.27398
-1.77636e-15
3.27398
-1.66533e-15
3.27398
-1.69309e-15
3.27398
-1.7486e-15
3.27398
-1.7486e-15
3.27398
-1.85962e-15
3.27398
-2.02616e-15
3.27398
-2.20657e-15
3.27398
-2.42861e-15
3.27398
-2.51188e-15
3.27398
-2.52576e-15
3.27398
-2.45637e-15
3.27398
-2.34535e-15
3.27398
-2.3731e-15
3.27398
-2.51188e-15
3.27398
-2.63678e-15
3.27398
-2.70617e-15
3.27398
-2.69229e-15
3.27398
-2.44249e-15
3.27398
-2.19269e-15
3.27398
-2.15106e-15
3.27398
-2.13718e-15
3.27398
-2.01228e-15
3.27398
-1.90126e-15
3.27398
-1.85962e-15
3.27398
-1.94289e-15
3.27398
-1.94289e-15
3.27398
-1.90126e-15
3.27398
-1.8735e-15
3.27398
-1.97065e-15
3.27398
-1.8735e-15
3.27398
-1.67921e-15
3.27398
-1.48492e-15
3.27398
-1.42941e-15
3.27398
-1.58207e-15
3.27398
-1.8735e-15
3.27398
-2.23432e-15
3.27398
-2.48412e-15
3.27398
-2.69229e-15
3.27398
-2.73392e-15
3.27398
-2.53964e-15
3.27398
-2.33147e-15
3.27398
-1.80411e-15
3.27398
-7.63278e-16
3.27398
9.85323e-16
3.27398
3.70537e-15
3.27398
8.11851e-15
3.27398
1.52239e-14
3.27398
2.68396e-14
3.27398
4.5991e-14
3.27398
7.74797e-14
3.27398
1.29285e-13
3.27398
2.14911e-13
3.27398
3.56659e-13
3.27398
5.91874e-13
3.27398
9.82547e-13
3.27398
1.63157e-12
3.27398
2.71007e-12
3.27398
4.50324e-12
3.27398
7.48626e-12
3.27398
1.24517e-11
3.27398
2.07223e-11
3.27398
3.45076e-11
3.27398
5.75008e-11
3.27398
9.58805e-11
3.27398
1.59991e-10
3.27398
2.67167e-10
3.27398
4.46483e-10
3.27398
7.46753e-10
3.27398
1.25001e-09
3.27398
2.09426e-09
3.27398
3.51193e-09
3.27398
5.89485e-09
3.27398
9.90445e-09
3.27398
1.66585e-08
3.27398
2.80485e-08
3.27398
4.72791e-08
3.27398
7.97875e-08
3.27398
1.34811e-07
3.27398
2.28067e-07
3.27398
3.86338e-07
3.27398
6.5533e-07
3.27398
1.11317e-06
3.27398
1.89364e-06
3.27397
3.22617e-06
3.27397
5.50496e-06
3.27396
9.40859e-06
3.27394
1.61073e-05
3.27391
2.76238e-05
3.27387
4.74612e-05
3.27378
8.17038e-05
3.27364
0.000140947
3.2734
0.000243721
3.27298
0.000422557
3.27224
0.000735066
3.27096
0.00128384
3.2687
0.00225546
3.26471
0.00399117
3.25756
0.00714741
3.24459
0.0129695
3.22049
0.0240995
0.0454275
3.17506
3.27398
1.38778e-17
3.27398
2.77556e-17
3.27398
2.77556e-17
3.27398
1.11022e-16
3.27398
1.94289e-16
3.27398
2.08167e-16
3.27398
2.08167e-16
3.27398
1.38778e-16
3.27398
-1.38778e-17
3.27398
-5.55112e-17
3.27398
-2.22045e-16
3.27398
-3.60822e-16
3.27398
-4.85723e-16
3.27398
-4.71845e-16
3.27398
-4.85723e-16
3.27398
-5.55112e-16
3.27398
-6.66134e-16
3.27398
-7.77156e-16
3.27398
-8.18789e-16
3.27398
-8.46545e-16
3.27398
-9.02056e-16
3.27398
-1.04083e-15
3.27398
-1.22125e-15
3.27398
-1.29063e-15
3.27398
-1.249e-15
3.27398
-1.16573e-15
3.27398
-1.06859e-15
3.27398
-8.88178e-16
3.27398
-8.18789e-16
3.27398
-7.91034e-16
3.27398
-8.32667e-16
3.27398
-9.02056e-16
3.27398
-1.02696e-15
3.27398
-9.4369e-16
3.27398
-8.74301e-16
3.27398
-8.88178e-16
3.27398
-1.05471e-15
3.27398
-1.26288e-15
3.27398
-1.3739e-15
3.27398
-1.36002e-15
3.27398
-1.27676e-15
3.27398
-1.20737e-15
3.27398
-1.08247e-15
3.27398
-9.4369e-16
3.27398
-9.02056e-16
3.27398
-9.99201e-16
3.27398
-1.15186e-15
3.27398
-1.1241e-15
3.27398
-1.09635e-15
3.27398
-1.04083e-15
3.27398
-1.01308e-15
3.27398
-1.04083e-15
3.27398
-1.05471e-15
3.27398
-9.99201e-16
3.27398
-1.11022e-15
3.27398
-1.30451e-15
3.27398
-1.52656e-15
3.27398
-1.58207e-15
3.27398
-1.55431e-15
3.27398
-1.58207e-15
3.27398
-1.58207e-15
3.27398
-1.55431e-15
3.27398
-1.48492e-15
3.27398
-1.54043e-15
3.27398
-1.73472e-15
3.27398
-1.94289e-15
3.27398
-2.10942e-15
3.27398
-2.2482e-15
3.27398
-2.3731e-15
3.27398
-2.48412e-15
3.27398
-2.55351e-15
3.27398
-2.56739e-15
3.27398
-2.47025e-15
3.27398
-2.30371e-15
3.27398
-1.88738e-15
3.27398
-1.45717e-15
3.27398
-1.01308e-15
3.27398
-7.07767e-16
3.27398
-5.55112e-16
3.27398
-5.55112e-16
3.27398
-8.04912e-16
3.27398
-1.13798e-15
3.27398
-1.42941e-15
3.27398
-1.6237e-15
3.27398
-1.58207e-15
3.27398
-1.63758e-15
3.27398
-1.65146e-15
3.27398
-1.69309e-15
3.27398
-1.84575e-15
3.27398
-2.05391e-15
3.27398
-2.26208e-15
3.27398
-2.42861e-15
3.27398
-2.44249e-15
3.27398
-2.3731e-15
3.27398
-2.27596e-15
3.27398
-2.19269e-15
3.27398
-2.08167e-15
3.27398
-2.1233e-15
3.27398
-2.15106e-15
3.27398
-2.23432e-15
3.27398
-2.31759e-15
3.27398
-2.40086e-15
3.27398
-2.47025e-15
3.27398
-2.42861e-15
3.27398
-2.34535e-15
3.27398
-2.47025e-15
3.27398
-2.53964e-15
3.27398
-2.53964e-15
3.27398
-2.52576e-15
3.27398
-2.40086e-15
3.27398
-2.2482e-15
3.27398
-2.1233e-15
3.27398
-2.02616e-15
3.27398
-1.9984e-15
3.27398
-2.04003e-15
3.27398
-2.04003e-15
3.27398
-1.98452e-15
3.27398
-1.88738e-15
3.27398
-1.88738e-15
3.27398
-1.98452e-15
3.27398
-2.15106e-15
3.27398
-2.30371e-15
3.27398
-2.52576e-15
3.27398
-2.65066e-15
3.27398
-2.63678e-15
3.27398
-2.58127e-15
3.27398
-2.60902e-15
3.27398
-2.56739e-15
3.27398
-2.40086e-15
3.27398
-2.17881e-15
3.27398
-1.85962e-15
3.27398
-1.42941e-15
3.27398
-1.15186e-15
3.27398
-1.08247e-15
3.27398
-9.99201e-16
3.27398
-9.15934e-16
3.27398
-9.02056e-16
3.27398
-8.74301e-16
3.27398
-1.05471e-15
3.27398
-1.13798e-15
3.27398
-1.15186e-15
3.27398
-1.09635e-15
3.27398
-1.13798e-15
3.27398
-1.29063e-15
3.27398
-1.48492e-15
3.27398
-1.70697e-15
3.27398
-1.90126e-15
3.27398
-2.1233e-15
3.27398
-2.31759e-15
3.27398
-2.33147e-15
3.27398
-2.23432e-15
3.27398
-2.16493e-15
3.27398
-2.20657e-15
3.27398
-2.19269e-15
3.27398
-2.15106e-15
3.27398
-1.91513e-15
3.27398
-1.69309e-15
3.27398
-1.56819e-15
3.27398
-1.59595e-15
3.27398
-1.60982e-15
3.27398
-1.55431e-15
3.27398
-1.51268e-15
3.27398
-1.66533e-15
3.27398
-1.81799e-15
3.27398
-1.9984e-15
3.27398
-2.26208e-15
3.27398
-2.42861e-15
3.27398
-2.44249e-15
3.27398
-2.40086e-15
3.27398
-2.44249e-15
3.27398
-2.58127e-15
3.27398
-2.60902e-15
3.27398
-2.77556e-15
3.27398
-2.84495e-15
3.27398
-2.67841e-15
3.27398
-2.47025e-15
3.27398
-2.31759e-15
3.27398
-2.13718e-15
3.27398
-2.06779e-15
3.27398
-2.19269e-15
3.27398
-2.44249e-15
3.27398
-2.66454e-15
3.27398
-2.70617e-15
3.27398
-2.63678e-15
3.27398
-2.47025e-15
3.27398
-2.2482e-15
3.27398
-2.13718e-15
3.27398
-2.04003e-15
3.27398
-1.98452e-15
3.27398
-1.95677e-15
3.27398
-2.02616e-15
3.27398
-2.16493e-15
3.27398
-2.13718e-15
3.27398
-2.13718e-15
3.27398
-1.85962e-15
3.27398
-1.60982e-15
3.27398
-1.33227e-15
3.27398
-1.17961e-15
3.27398
-1.22125e-15
3.27398
-1.51268e-15
3.27398
-1.73472e-15
3.27398
-1.81799e-15
3.27398
-1.84575e-15
3.27398
-2.01228e-15
3.27398
-2.23432e-15
3.27398
-2.40086e-15
3.27398
-2.38698e-15
3.27398
-2.3731e-15
3.27398
-2.23432e-15
3.27398
-2.08167e-15
3.27398
-2.15106e-15
3.27398
-2.16493e-15
3.27398
-2.16493e-15
3.27398
-2.04003e-15
3.27398
-1.91513e-15
3.27398
-1.70697e-15
3.27398
-1.4988e-15
3.27398
-1.45717e-15
3.27398
-1.67921e-15
3.27398
-2.06779e-15
3.27398
-2.33147e-15
3.27398
-2.38698e-15
3.27398
-2.40086e-15
3.27398
-2.44249e-15
3.27398
-2.44249e-15
3.27398
-2.41474e-15
3.27398
-2.13718e-15
3.27398
-1.83187e-15
3.27398
-1.59595e-15
3.27398
-1.34615e-15
3.27398
-1.27676e-15
3.27398
-1.45717e-15
3.27398
-1.76248e-15
3.27398
-2.10942e-15
3.27398
-2.41474e-15
3.27398
-2.58127e-15
3.27398
-2.69229e-15
3.27398
-2.66454e-15
3.27398
-2.48412e-15
3.27398
-1.85962e-15
3.27398
-6.10623e-16
3.27398
1.52656e-15
3.27398
4.73233e-15
3.27398
9.64506e-15
3.27398
1.73195e-14
3.27398
2.97123e-14
3.27398
5.00017e-14
3.27398
8.35304e-14
3.27398
1.39083e-13
3.27398
2.31051e-13
3.27398
3.83069e-13
3.27398
6.3452e-13
3.27398
1.05058e-12
3.27398
1.73912e-12
3.27398
2.8787e-12
3.27398
4.76508e-12
3.27398
7.88865e-12
3.27398
1.30634e-11
3.27398
2.16398e-11
3.27398
3.58597e-11
3.27398
5.94458e-11
3.27398
9.85838e-11
3.27398
1.63555e-10
3.27398
2.71458e-10
3.27398
4.50737e-10
3.27398
7.48738e-10
3.27398
1.2443e-09
3.27398
2.06878e-09
3.27398
3.44112e-09
3.27398
5.72644e-09
3.27398
9.53391e-09
3.27398
1.58804e-08
3.27398
2.64642e-08
3.27398
4.41229e-08
3.27398
7.36002e-08
3.27398
1.2283e-07
3.27398
2.05088e-07
3.27398
3.426e-07
3.27398
5.7259e-07
3.27398
9.57434e-07
3.27398
1.6017e-06
3.27398
2.68074e-06
3.27398
4.48878e-06
3.27397
7.51965e-06
3.27397
1.26025e-05
3.27397
2.11303e-05
3.27396
3.54436e-05
3.27395
5.94781e-05
3.27393
9.98547e-05
3.2739
0.000167723
3.27386
0.000281881
3.27381
0.000474091
3.27375
0.000798175
3.27369
0.00134583
3.27367
0.00227425
3.2738
0.00385652
3.27438
0.00657101
3.27606
0.0112808
3.28065
0.0195069
0.0341588
3.29192
3.27398
-6.93889e-17
3.27398
-8.32667e-17
3.27398
-4.16334e-17
3.27398
-4.16334e-17
3.27398
-2.77556e-17
3.27398
1.11638e-48
3.27398
4.16334e-17
3.27398
2.77556e-17
3.27398
1.11022e-16
3.27398
-2.77556e-17
3.27398
-1.38778e-16
3.27398
-2.08167e-16
3.27398
-3.05311e-16
3.27398
-4.02456e-16
3.27398
-4.02456e-16
3.27398
-4.44089e-16
3.27398
-5.41234e-16
3.27398
-7.21645e-16
3.27398
-9.71445e-16
3.27398
-1.19349e-15
3.27398
-1.23512e-15
3.27398
-1.11022e-15
3.27398
-1.04083e-15
3.27398
-1.08247e-15
3.27398
-1.19349e-15
3.27398
-1.30451e-15
3.27398
-1.36002e-15
3.27398
-1.41553e-15
3.27398
-1.33227e-15
3.27398
-1.23512e-15
3.27398
-1.11022e-15
3.27398
-9.57567e-16
3.27398
-8.18789e-16
3.27398
-8.18789e-16
3.27398
-8.18789e-16
3.27398
-9.02056e-16
3.27398
-9.02056e-16
3.27398
-9.71445e-16
3.27398
-1.04083e-15
3.27398
-1.15186e-15
3.27398
-1.26288e-15
3.27398
-1.3739e-15
3.27398
-1.48492e-15
3.27398
-1.48492e-15
3.27398
-1.33227e-15
3.27398
-1.05471e-15
3.27398
-8.46545e-16
3.27398
-8.18789e-16
3.27398
-9.57567e-16
3.27398
-1.22125e-15
3.27398
-1.48492e-15
3.27398
-1.52656e-15
3.27398
-1.42941e-15
3.27398
-1.33227e-15
3.27398
-1.13798e-15
3.27398
-9.99201e-16
3.27398
-9.85323e-16
3.27398
-1.08247e-15
3.27398
-1.26288e-15
3.27398
-1.44329e-15
3.27398
-1.58207e-15
3.27398
-1.59595e-15
3.27398
-1.73472e-15
3.27398
-1.88738e-15
3.27398
-1.80411e-15
3.27398
-1.48492e-15
3.27398
-1.249e-15
3.27398
-1.249e-15
3.27398
-1.3739e-15
3.27398
-1.45717e-15
3.27398
-1.45717e-15
3.27398
-1.31839e-15
3.27398
-1.16573e-15
3.27398
-1.04083e-15
3.27398
-9.57567e-16
3.27398
-8.46545e-16
3.27398
-7.63278e-16
3.27398
-6.80012e-16
3.27398
-7.35523e-16
3.27398
-7.91034e-16
3.27398
-9.29812e-16
3.27398
-1.17961e-15
3.27398
-1.3739e-15
3.27398
-1.45717e-15
3.27398
-1.54043e-15
3.27398
-1.45717e-15
3.27398
-1.45717e-15
3.27398
-1.51268e-15
3.27398
-1.63758e-15
3.27398
-1.88738e-15
3.27398
-2.23432e-15
3.27398
-2.498e-15
3.27398
-2.76168e-15
3.27398
-2.88658e-15
3.27398
-2.80331e-15
3.27398
-2.55351e-15
3.27398
-2.51188e-15
3.27398
-2.498e-15
3.27398
-2.44249e-15
3.27398
-2.27596e-15
3.27398
-2.16493e-15
3.27398
-1.9984e-15
3.27398
-1.92901e-15
3.27398
-2.02616e-15
3.27398
-2.2482e-15
3.27398
-2.52576e-15
3.27398
-2.70617e-15
3.27398
-2.7478e-15
3.27398
-2.72005e-15
3.27398
-2.59515e-15
3.27398
-2.3731e-15
3.27398
-2.01228e-15
3.27398
-1.70697e-15
3.27398
-1.6237e-15
3.27398
-1.60982e-15
3.27398
-1.63758e-15
3.27398
-1.72085e-15
3.27398
-1.7486e-15
3.27398
-1.72085e-15
3.27398
-1.6237e-15
3.27398
-1.54043e-15
3.27398
-1.4988e-15
3.27398
-1.52656e-15
3.27398
-1.55431e-15
3.27398
-1.67921e-15
3.27398
-1.79023e-15
3.27398
-1.8735e-15
3.27398
-1.97065e-15
3.27398
-2.10942e-15
3.27398
-2.09555e-15
3.27398
-2.08167e-15
3.27398
-2.30371e-15
3.27398
-2.55351e-15
3.27398
-2.60902e-15
3.27398
-2.63678e-15
3.27398
-2.53964e-15
3.27398
-2.42861e-15
3.27398
-2.33147e-15
3.27398
-2.20657e-15
3.27398
-2.15106e-15
3.27398
-2.08167e-15
3.27398
-1.92901e-15
3.27398
-1.73472e-15
3.27398
-1.65146e-15
3.27398
-1.72085e-15
3.27398
-1.92901e-15
3.27398
-2.33147e-15
3.27398
-2.69229e-15
3.27398
-2.95597e-15
3.27398
-3.17801e-15
3.27398
-3.2474e-15
3.27398
-3.16414e-15
3.27398
-3.09475e-15
3.27398
-2.85882e-15
3.27398
-2.58127e-15
3.27398
-2.34535e-15
3.27398
-2.2482e-15
3.27398
-2.19269e-15
3.27398
-2.04003e-15
3.27398
-1.97065e-15
3.27398
-1.97065e-15
3.27398
-1.91513e-15
3.27398
-1.88738e-15
3.27398
-1.98452e-15
3.27398
-2.15106e-15
3.27398
-2.23432e-15
3.27398
-2.15106e-15
3.27398
-2.05391e-15
3.27398
-1.98452e-15
3.27398
-2.04003e-15
3.27398
-2.1233e-15
3.27398
-2.35922e-15
3.27398
-2.52576e-15
3.27398
-2.65066e-15
3.27398
-2.90046e-15
3.27398
-3.08087e-15
3.27398
-3.15026e-15
3.27398
-3.16414e-15
3.27398
-3.05311e-15
3.27398
-2.8727e-15
3.27398
-2.66454e-15
3.27398
-2.41474e-15
3.27398
-2.31759e-15
3.27398
-2.34535e-15
3.27398
-2.47025e-15
3.27398
-2.53964e-15
3.27398
-2.498e-15
3.27398
-2.35922e-15
3.27398
-2.26208e-15
3.27398
-2.22045e-15
3.27398
-2.1233e-15
3.27398
-2.13718e-15
3.27398
-2.28983e-15
3.27398
-2.38698e-15
3.27398
-2.47025e-15
3.27398
-2.35922e-15
3.27398
-2.20657e-15
3.27398
-1.9984e-15
3.27398
-1.94289e-15
3.27398
-1.98452e-15
3.27398
-2.08167e-15
3.27398
-2.26208e-15
3.27398
-2.41474e-15
3.27398
-2.47025e-15
3.27398
-2.47025e-15
3.27398
-2.35922e-15
3.27398
-2.20657e-15
3.27398
-2.05391e-15
3.27398
-1.91513e-15
3.27398
-1.77636e-15
3.27398
-1.58207e-15
3.27398
-1.40166e-15
3.27398
-1.19349e-15
3.27398
-1.11022e-15
3.27398
-1.02696e-15
3.27398
-9.71445e-16
3.27398
-1.17961e-15
3.27398
-1.55431e-15
3.27398
-1.91513e-15
3.27398
-2.13718e-15
3.27398
-2.15106e-15
3.27398
-2.06779e-15
3.27398
-1.97065e-15
3.27398
-1.94289e-15
3.27398
-2.1233e-15
3.27398
-2.20657e-15
3.27398
-2.41474e-15
3.27398
-2.60902e-15
3.27398
-2.60902e-15
3.27398
-2.70617e-15
3.27398
-2.83107e-15
3.27398
-2.84495e-15
3.27398
-2.76168e-15
3.27398
-2.66454e-15
3.27398
-2.53964e-15
3.27398
-2.3731e-15
3.27398
-2.10942e-15
3.27398
-1.76248e-15
3.27398
-1.15186e-15
3.27398
-1.94289e-16
3.27398
1.31839e-15
3.27398
3.747e-15
3.27398
7.54952e-15
3.27398
1.36141e-14
3.27398
2.33702e-14
3.27398
3.92325e-14
3.27398
6.51423e-14
3.27398
1.07511e-13
3.27398
1.77414e-13
3.27398
2.92724e-13
3.27398
4.82753e-13
3.27398
7.96002e-13
3.27398
1.31231e-12
3.27398
2.16305e-12
3.27398
3.56493e-12
3.27398
5.87524e-12
3.27398
9.68317e-12
3.27398
1.59607e-11
3.27398
2.63111e-11
3.27398
4.33805e-11
3.27398
7.15355e-11
3.27398
1.17983e-10
3.27398
1.94621e-10
3.27398
3.21095e-10
3.27398
5.29844e-10
3.27398
8.74443e-10
3.27398
1.44338e-09
3.27398
2.38284e-09
3.27398
3.93431e-09
3.27398
6.49679e-09
3.27398
1.07295e-08
3.27398
1.77219e-08
3.27398
2.92739e-08
3.27398
4.836e-08
3.27398
7.98949e-08
3.27398
1.31999e-07
3.27398
2.18088e-07
3.27398
3.60323e-07
3.27398
5.95305e-07
3.27398
9.83473e-07
3.27398
1.6246e-06
3.27398
2.68332e-06
3.27398
4.43125e-06
3.27398
7.31623e-06
3.27398
1.20763e-05
3.27398
1.99272e-05
3.27398
3.287e-05
3.27399
5.41964e-05
3.274
8.93176e-05
3.27402
0.000147124
3.27406
0.000242213
3.27414
0.000398559
3.27428
0.000655534
3.27455
0.00107795
3.27505
0.00177262
3.27599
0.00291712
3.27775
0.00480665
3.28108
0.00794491
3.28742
0.0131651
0.0219916
3.29959
3.27398
2.77556e-17
3.27398
6.93889e-17
3.27398
4.16334e-17
3.27398
9.71445e-17
3.27398
6.93889e-17
3.27398
6.93889e-17
3.27398
6.93889e-17
3.27398
1.66533e-16
3.27398
2.91434e-16
3.27398
4.16334e-16
3.27398
4.44089e-16
3.27398
2.91434e-16
3.27398
2.22045e-16
3.27398
6.93889e-17
3.27398
-1.80411e-16
3.27398
-2.91434e-16
3.27398
-4.02456e-16
3.27398
-5.13478e-16
3.27398
-5.41234e-16
3.27398
-5.27356e-16
3.27398
-4.30211e-16
3.27398
-4.16334e-16
3.27398
-4.44089e-16
3.27398
-5.68989e-16
3.27398
-7.77156e-16
3.27398
-9.71445e-16
3.27398
-1.11022e-15
3.27398
-1.16573e-15
3.27398
-1.17961e-15
3.27398
-1.26288e-15
3.27398
-1.26288e-15
3.27398
-1.11022e-15
3.27398
-9.29812e-16
3.27398
-7.49401e-16
3.27398
-7.35523e-16
3.27398
-6.66134e-16
3.27398
-8.04912e-16
3.27398
-8.46545e-16
3.27398
-9.57567e-16
3.27398
-1.05471e-15
3.27398
-1.17961e-15
3.27398
-1.19349e-15
3.27398
-1.249e-15
3.27398
-1.29063e-15
3.27398
-1.11022e-15
3.27398
-1.04083e-15
3.27398
-9.57567e-16
3.27398
-1.05471e-15
3.27398
-1.30451e-15
3.27398
-1.59595e-15
3.27398
-1.85962e-15
3.27398
-1.9984e-15
3.27398
-1.98452e-15
3.27398
-1.85962e-15
3.27398
-1.80411e-15
3.27398
-1.72085e-15
3.27398
-1.63758e-15
3.27398
-1.67921e-15
3.27398
-1.85962e-15
3.27398
-1.97065e-15
3.27398
-2.06779e-15
3.27398
-2.30371e-15
3.27398
-2.35922e-15
3.27398
-2.22045e-15
3.27398
-1.9984e-15
3.27398
-1.67921e-15
3.27398
-1.17961e-15
3.27398
-8.60423e-16
3.27398
-7.35523e-16
3.27398
-5.96745e-16
3.27398
-4.57967e-16
3.27398
-3.747e-16
3.27398
-3.46945e-16
3.27398
-3.88578e-16
3.27398
-4.85723e-16
3.27398
-5.96745e-16
3.27398
-7.49401e-16
3.27398
-1.01308e-15
3.27398
-1.17961e-15
3.27398
-1.20737e-15
3.27398
-1.08247e-15
3.27398
-9.57567e-16
3.27398
-1.04083e-15
3.27398
-1.26288e-15
3.27398
-1.42941e-15
3.27398
-1.44329e-15
3.27398
-1.42941e-15
3.27398
-1.41553e-15
3.27398
-1.55431e-15
3.27398
-1.77636e-15
3.27398
-1.83187e-15
3.27398
-1.81799e-15
3.27398
-1.80411e-15
3.27398
-1.8735e-15
3.27398
-1.88738e-15
3.27398
-1.8735e-15
3.27398
-1.69309e-15
3.27398
-1.54043e-15
3.27398
-1.51268e-15
3.27398
-1.54043e-15
3.27398
-1.4988e-15
3.27398
-1.55431e-15
3.27398
-1.59595e-15
3.27398
-1.67921e-15
3.27398
-1.76248e-15
3.27398
-1.84575e-15
3.27398
-1.92901e-15
3.27398
-1.91513e-15
3.27398
-1.92901e-15
3.27398
-1.9984e-15
3.27398
-2.08167e-15
3.27398
-2.26208e-15
3.27398
-2.33147e-15
3.27398
-2.2482e-15
3.27398
-2.26208e-15
3.27398
-2.34535e-15
3.27398
-2.3731e-15
3.27398
-2.30371e-15
3.27398
-2.17881e-15
3.27398
-2.05391e-15
3.27398
-1.80411e-15
3.27398
-1.56819e-15
3.27398
-1.41553e-15
3.27398
-1.51268e-15
3.27398
-1.6237e-15
3.27398
-1.7486e-15
3.27398
-1.83187e-15
3.27398
-1.95677e-15
3.27398
-2.23432e-15
3.27398
-2.52576e-15
3.27398
-2.73392e-15
3.27398
-2.73392e-15
3.27398
-2.60902e-15
3.27398
-2.56739e-15
3.27398
-2.55351e-15
3.27398
-2.66454e-15
3.27398
-2.72005e-15
3.27398
-2.7478e-15
3.27398
-2.83107e-15
3.27398
-2.72005e-15
3.27398
-2.498e-15
3.27398
-2.31759e-15
3.27398
-2.28983e-15
3.27398
-2.31759e-15
3.27398
-2.40086e-15
3.27398
-2.55351e-15
3.27398
-2.85882e-15
3.27398
-3.1225e-15
3.27398
-3.23352e-15
3.27398
-3.09475e-15
3.27398
-2.94209e-15
3.27398
-2.88658e-15
3.27398
-2.72005e-15
3.27398
-2.69229e-15
3.27398
-2.6229e-15
3.27398
-2.498e-15
3.27398
-2.2482e-15
3.27398
-2.04003e-15
3.27398
-1.97065e-15
3.27398
-1.85962e-15
3.27398
-1.80411e-15
3.27398
-1.77636e-15
3.27398
-1.66533e-15
3.27398
-1.55431e-15
3.27398
-1.44329e-15
3.27398
-1.51268e-15
3.27398
-1.66533e-15
3.27398
-1.83187e-15
3.27398
-2.08167e-15
3.27398
-2.33147e-15
3.27398
-2.48412e-15
3.27398
-2.44249e-15
3.27398
-2.35922e-15
3.27398
-2.38698e-15
3.27398
-2.55351e-15
3.27398
-2.84495e-15
3.27398
-3.02536e-15
3.27398
-2.92821e-15
3.27398
-2.72005e-15
3.27398
-2.51188e-15
3.27398
-2.38698e-15
3.27398
-2.44249e-15
3.27398
-2.59515e-15
3.27398
-2.76168e-15
3.27398
-2.95597e-15
3.27398
-3.16414e-15
3.27398
-3.21965e-15
3.27398
-3.19189e-15
3.27398
-2.94209e-15
3.27398
-2.56739e-15
3.27398
-2.2482e-15
3.27398
-2.04003e-15
3.27398
-1.80411e-15
3.27398
-1.67921e-15
3.27398
-1.76248e-15
3.27398
-2.19269e-15
3.27398
-2.65066e-15
3.27398
-2.92821e-15
3.27398
-3.10862e-15
3.27398
-3.1225e-15
3.27398
-3.1225e-15
3.27398
-3.17801e-15
3.27398
-3.13638e-15
3.27398
-2.92821e-15
3.27398
-2.72005e-15
3.27398
-2.3731e-15
3.27398
-2.05391e-15
3.27398
-1.85962e-15
3.27398
-1.77636e-15
3.27398
-1.76248e-15
3.27398
-1.76248e-15
3.27398
-1.95677e-15
3.27398
-2.17881e-15
3.27398
-2.30371e-15
3.27398
-2.47025e-15
3.27398
-2.63678e-15
3.27398
-2.83107e-15
3.27398
-2.98372e-15
3.27398
-2.9976e-15
3.27398
-2.78944e-15
3.27398
-2.66454e-15
3.27398
-2.44249e-15
3.27398
-2.22045e-15
3.27398
-2.04003e-15
3.27398
-2.05391e-15
3.27398
-2.16493e-15
3.27398
-2.23432e-15
3.27398
-2.35922e-15
3.27398
-2.72005e-15
3.27398
-3.1225e-15
3.27398
-3.40006e-15
3.27398
-3.4972e-15
3.27398
-3.3723e-15
3.27398
-3.08087e-15
3.27398
-2.69229e-15
3.27398
-2.23432e-15
3.27398
-1.81799e-15
3.27398
-1.40166e-15
3.27398
-9.02056e-16
3.27398
-9.71445e-17
3.27398
1.23512e-15
3.27398
3.33067e-15
3.27398
6.95277e-15
3.27398
1.32533e-14
3.27398
2.38004e-14
3.27398
4.10783e-14
3.27398
6.90836e-14
3.27398
1.14742e-13
3.27398
1.89376e-13
3.27398
3.11598e-13
3.27398
5.12035e-13
3.27398
8.40814e-13
3.27398
1.37987e-12
3.27398
2.26391e-12
3.27398
3.7136e-12
3.27398
6.09077e-12
3.27398
9.98916e-12
3.27398
1.63819e-11
3.27398
2.68649e-11
3.27398
4.40548e-11
3.27398
7.22423e-11
3.27398
1.18462e-10
3.27398
1.94248e-10
3.27398
3.18506e-10
3.27398
5.22226e-10
3.27398
8.56198e-10
3.27398
1.40365e-09
3.27398
2.30095e-09
3.27398
3.77146e-09
3.27398
6.18102e-09
3.27398
1.01286e-08
3.27398
1.65948e-08
3.27398
2.7184e-08
3.27398
4.45212e-08
3.27398
7.28985e-08
3.27398
1.19332e-07
3.27398
1.95285e-07
3.27398
3.19478e-07
3.27398
5.22464e-07
3.27398
8.54079e-07
3.27398
1.39556e-06
3.27398
2.27923e-06
3.27398
3.72044e-06
3.27398
6.06942e-06
3.27398
9.89513e-06
3.27399
1.6121e-05
3.274
2.62443e-05
3.27401
4.26897e-05
3.27403
6.93792e-05
3.27406
0.00011265
3.27412
0.000182732
3.27422
0.00029612
3.2744
0.000479399
3.2747
0.00077544
3.27522
0.00125335
3.27611
0.00202517
3.27765
0.00327196
3.2803
0.00529319
3.28489
0.00856815
0.0139479
3.29293
3.27398
4.16334e-17
3.27398
9.71445e-17
3.27398
2.35922e-16
3.27398
2.498e-16
3.27398
2.498e-16
3.27398
2.35922e-16
3.27398
2.498e-16
3.27398
2.91434e-16
3.27398
3.19189e-16
3.27398
4.57967e-16
3.27398
5.55112e-16
3.27398
6.80012e-16
3.27398
6.10623e-16
3.27398
5.13478e-16
3.27398
5.13478e-16
3.27398
5.13478e-16
3.27398
6.245e-16
3.27398
7.07767e-16
3.27398
7.07767e-16
3.27398
6.66134e-16
3.27398
5.41234e-16
3.27398
4.16334e-16
3.27398
1.94289e-16
3.27398
-9.71445e-17
3.27398
-3.33067e-16
3.27398
-4.57967e-16
3.27398
-5.68989e-16
3.27398
-6.66134e-16
3.27398
-8.46545e-16
3.27398
-8.74301e-16
3.27398
-8.74301e-16
3.27398
-9.4369e-16
3.27398
-9.02056e-16
3.27398
-9.02056e-16
3.27398
-8.46545e-16
3.27398
-9.57567e-16
3.27398
-1.01308e-15
3.27398
-1.02696e-15
3.27398
-8.74301e-16
3.27398
-7.35523e-16
3.27398
-5.82867e-16
3.27398
-5.68989e-16
3.27398
-6.38378e-16
3.27398
-6.80012e-16
3.27398
-9.02056e-16
3.27398
-1.15186e-15
3.27398
-1.3739e-15
3.27398
-1.47105e-15
3.27398
-1.55431e-15
3.27398
-1.58207e-15
3.27398
-1.59595e-15
3.27398
-1.69309e-15
3.27398
-1.85962e-15
3.27398
-2.05391e-15
3.27398
-2.06779e-15
3.27398
-2.13718e-15
3.27398
-2.04003e-15
3.27398
-1.83187e-15
3.27398
-1.6237e-15
3.27398
-1.55431e-15
3.27398
-1.59595e-15
3.27398
-1.56819e-15
3.27398
-1.54043e-15
3.27398
-1.60982e-15
3.27398
-1.6237e-15
3.27398
-1.60982e-15
3.27398
-1.66533e-15
3.27398
-1.60982e-15
3.27398
-1.34615e-15
3.27398
-1.06859e-15
3.27398
-7.77156e-16
3.27398
-5.27356e-16
3.27398
-3.46945e-16
3.27398
-1.80411e-16
3.27398
-1.66533e-16
3.27398
-3.05311e-16
3.27398
-4.16334e-16
3.27398
-5.96745e-16
3.27398
-7.49401e-16
3.27398
-8.32667e-16
3.27398
-8.60423e-16
3.27398
-9.4369e-16
3.27398
-8.74301e-16
3.27398
-7.91034e-16
3.27398
-6.80012e-16
3.27398
-5.41234e-16
3.27398
-4.30211e-16
3.27398
-4.996e-16
3.27398
-6.10623e-16
3.27398
-7.49401e-16
3.27398
-9.02056e-16
3.27398
-1.05471e-15
3.27398
-1.1241e-15
3.27398
-1.22125e-15
3.27398
-1.29063e-15
3.27398
-1.44329e-15
3.27398
-1.56819e-15
3.27398
-1.65146e-15
3.27398
-1.55431e-15
3.27398
-1.54043e-15
3.27398
-1.66533e-15
3.27398
-1.81799e-15
3.27398
-1.9984e-15
3.27398
-2.15106e-15
3.27398
-2.20657e-15
3.27398
-2.15106e-15
3.27398
-2.19269e-15
3.27398
-2.44249e-15
3.27398
-2.60902e-15
3.27398
-2.67841e-15
3.27398
-2.76168e-15
3.27398
-2.83107e-15
3.27398
-2.85882e-15
3.27398
-2.76168e-15
3.27398
-2.60902e-15
3.27398
-2.6229e-15
3.27398
-2.85882e-15
3.27398
-3.10862e-15
3.27398
-3.15026e-15
3.27398
-2.98372e-15
3.27398
-2.83107e-15
3.27398
-2.55351e-15
3.27398
-2.33147e-15
3.27398
-2.17881e-15
3.27398
-2.34535e-15
3.27398
-2.59515e-15
3.27398
-2.8727e-15
3.27398
-3.13638e-15
3.27398
-3.35842e-15
3.27398
-3.52496e-15
3.27398
-3.4972e-15
3.27398
-3.40006e-15
3.27398
-3.19189e-15
3.27398
-2.84495e-15
3.27398
-2.498e-15
3.27398
-2.16493e-15
3.27398
-1.9984e-15
3.27398
-1.84575e-15
3.27398
-1.65146e-15
3.27398
-1.76248e-15
3.27398
-2.10942e-15
3.27398
-2.498e-15
3.27398
-2.72005e-15
3.27398
-2.84495e-15
3.27398
-2.83107e-15
3.27398
-2.7478e-15
3.27398
-2.65066e-15
3.27398
-2.73392e-15
3.27398
-2.7478e-15
3.27398
-2.83107e-15
3.27398
-2.94209e-15
3.27398
-2.95597e-15
3.27398
-2.91434e-15
3.27398
-2.76168e-15
3.27398
-2.65066e-15
3.27398
-2.56739e-15
3.27398
-2.45637e-15
3.27398
-2.28983e-15
3.27398
-2.02616e-15
3.27398
-1.85962e-15
3.27398
-1.7486e-15
3.27398
-1.63758e-15
3.27398
-1.54043e-15
3.27398
-1.36002e-15
3.27398
-1.38778e-15
3.27398
-1.41553e-15
3.27398
-1.6237e-15
3.27398
-1.90126e-15
3.27398
-2.13718e-15
3.27398
-2.27596e-15
3.27398
-2.35922e-15
3.27398
-2.40086e-15
3.27398
-2.38698e-15
3.27398
-2.35922e-15
3.27398
-2.498e-15
3.27398
-2.55351e-15
3.27398
-2.56739e-15
3.27398
-2.6229e-15
3.27398
-2.78944e-15
3.27398
-2.98372e-15
3.27398
-3.09475e-15
3.27398
-3.16414e-15
3.27398
-3.2474e-15
3.27398
-3.44169e-15
3.27398
-3.58047e-15
3.27398
-3.64986e-15
3.27398
-3.77476e-15
3.27398
-3.747e-15
3.27398
-3.46945e-15
3.27398
-3.13638e-15
3.27398
-2.84495e-15
3.27398
-2.55351e-15
3.27398
-2.23432e-15
3.27398
-1.90126e-15
3.27398
-1.7486e-15
3.27398
-1.88738e-15
3.27398
-2.19269e-15
3.27398
-2.52576e-15
3.27398
-2.67841e-15
3.27398
-2.78944e-15
3.27398
-2.83107e-15
3.27398
-2.6229e-15
3.27398
-2.52576e-15
3.27398
-2.44249e-15
3.27398
-2.20657e-15
3.27398
-2.02616e-15
3.27398
-1.79023e-15
3.27398
-1.52656e-15