/*--------------------------------*- C++ -*----------------------------------*\
| =========                 |                                                 |
| \\      /  F ield         | OpenFOAM: The Open Source CFD Toolbox           |
|  \\    /   O peration     | Version:  2412                                  |
|   \\  /    A nd           | Website:  www.openfoam.com                      |
|    \\/     M anipulation  |                                                 |
\*---------------------------------------------------------------------------*/
FoamFile
{
    version     2.0;
    format      ascii;
    arch        "LSB;label=32;scalar=64";
    class       surfaceScalarField;
    location    "0.005";
    object      phi_0;
}
// * * * * * * * * * * * * * * * * * * * * * * * * * * * * * * * * * * * * * //

dimensions      [1 0 -1 0 0 0 0];

oriented        oriented;

internalField   nonuniform List<scalar> 
359100
(
3.27398
1.38778e-17
3.27398
1.38778e-17
3.27398
4.16334e-17
3.27398
2.77556e-17
3.27398
-4.16334e-17
3.27398
-4.16334e-17
3.27398
-1.11022e-16
3.27398
-1.38778e-16
3.27398
-2.22045e-16
3.27398
-3.46945e-16
3.27398
-4.85723e-16
3.27398
-5.55112e-16
3.27398
-6.245e-16
3.27398
-7.63278e-16
3.27398
-1.11022e-15
3.27398
-1.38778e-15
3.27398
-1.42941e-15
3.27398
-1.26288e-15
3.27398
-1.16573e-15
3.27398
-1.249e-15
3.27398
-1.47105e-15
3.27398
-1.66533e-15
3.27398
-1.60982e-15
3.27398
-1.34615e-15
3.27398
-1.05471e-15
3.27398
-8.04912e-16
3.27398
-8.04912e-16
3.27398
-8.88178e-16
3.27398
-8.74301e-16
3.27398
-8.88178e-16
3.27398
-9.02056e-16
3.27398
-9.85323e-16
3.27398
-9.57567e-16
3.27398
-9.29812e-16
3.27398
-8.88178e-16
3.27398
-1.01308e-15
3.27398
-1.17961e-15
3.27398
-1.22125e-15
3.27398
-1.17961e-15
3.27398
-1.06859e-15
3.27398
-8.60423e-16
3.27398
-6.52256e-16
3.27398
-5.13478e-16
3.27398
-7.07767e-16
3.27398
-1.16573e-15
3.27398
-1.58207e-15
3.27398
-1.76248e-15
3.27398
-1.8735e-15
3.27398
-1.83187e-15
3.27398
-1.77636e-15
3.27398
-1.81799e-15
3.27398
-1.8735e-15
3.27398
-1.90126e-15
3.27398
-1.95677e-15
3.27398
-1.94289e-15
3.27398
-1.94289e-15
3.27398
-1.72085e-15
3.27398
-1.54043e-15
3.27398
-1.4988e-15
3.27398
-1.51268e-15
3.27398
-1.249e-15
3.27398
-1.05471e-15
3.27398
-1.01308e-15
3.27398
-1.06859e-15
3.27398
-1.22125e-15
3.27398
-1.4988e-15
3.27398
-1.85962e-15
3.27398
-2.1233e-15
3.27398
-2.27596e-15
3.27398
-2.26208e-15
3.27398
-2.22045e-15
3.27398
-2.13718e-15
3.27398
-2.08167e-15
3.27398
-1.92901e-15
3.27398
-1.97065e-15
3.27398
-1.9984e-15
3.27398
-1.98452e-15
3.27398
-1.97065e-15
3.27398
-2.01228e-15
3.27398
-2.1233e-15
3.27398
-2.06779e-15
3.27398
-1.7486e-15
3.27398
-1.47105e-15
3.27398
-1.44329e-15
3.27398
-1.52656e-15
3.27398
-1.4988e-15
3.27398
-1.48492e-15
3.27398
-1.4988e-15
3.27398
-1.63758e-15
3.27398
-1.8735e-15
3.27398
-1.98452e-15
3.27398
-1.95677e-15
3.27398
-1.94289e-15
3.27398
-1.8735e-15
3.27398
-1.83187e-15
3.27398
-1.88738e-15
3.27398
-1.84575e-15
3.27398
-1.67921e-15
3.27398
-1.47105e-15
3.27398
-1.34615e-15
3.27398
-1.4988e-15
3.27398
-1.79023e-15
3.27398
-1.91513e-15
3.27398
-1.97065e-15
3.27398
-2.01228e-15
3.27398
-2.01228e-15
3.27398
-2.23432e-15
3.27398
-2.52576e-15
3.27398
-2.60902e-15
3.27398
-2.59515e-15
3.27398
-2.60902e-15
3.27398
-2.52576e-15
3.27398
-2.3731e-15
3.27398
-2.40086e-15
3.27398
-2.45637e-15
3.27398
-2.48412e-15
3.27398
-2.41474e-15
3.27398
-2.33147e-15
3.27398
-2.27596e-15
3.27398
-2.35922e-15
3.27398
-2.52576e-15
3.27398
-2.81719e-15
3.27398
-2.9976e-15
3.27398
-2.92821e-15
3.27398
-2.73392e-15
3.27398
-2.58127e-15
3.27398
-2.41474e-15
3.27398
-2.28983e-15
3.27398
-2.05391e-15
3.27398
-1.60982e-15
3.27398
-1.15186e-15
3.27398
-9.15934e-16
3.27398
-9.15934e-16
3.27398
-8.60423e-16
3.27398
-9.02056e-16
3.27398
-1.05471e-15
3.27398
-1.22125e-15
3.27398
-1.45717e-15
3.27398
-1.56819e-15
3.27398
-1.60982e-15
3.27398
-1.63758e-15
3.27398
-1.7486e-15
3.27398
-1.88738e-15
3.27398
-1.95677e-15
3.27398
-1.9984e-15
3.27398
-1.9984e-15
3.27398
-2.10942e-15
3.27398
-2.05391e-15
3.27398
-1.81799e-15
3.27398
-1.56819e-15
3.27398
-1.45717e-15
3.27398
-1.54043e-15
3.27398
-1.77636e-15
3.27398
-2.08167e-15
3.27398
-2.22045e-15
3.27398
-2.28983e-15
3.27398
-2.34535e-15
3.27398
-2.55351e-15
3.27398
-2.66454e-15
3.27398
-2.63678e-15
3.27398
-2.52576e-15
3.27398
-2.58127e-15
3.27398
-2.52576e-15
3.27398
-2.53964e-15
3.27398
-2.66454e-15
3.27398
-2.67841e-15
3.27398
-2.59515e-15
3.27398
-2.52576e-15
3.27398
-2.44249e-15
3.27398
-2.22045e-15
3.27398
-1.98452e-15
3.27398
-1.94289e-15
3.27398
-1.90126e-15
3.27398
-1.81799e-15
3.27398
-1.59595e-15
3.27398
-1.4988e-15
3.27398
-1.42941e-15
3.27398
-1.52656e-15
3.27398
-1.67921e-15
3.27398
-1.98452e-15
3.27398
-2.16493e-15
3.27398
-2.22045e-15
3.27398
-2.19269e-15
3.27398
-1.9984e-15
3.27398
-1.7486e-15
3.27398
-1.72085e-15
3.27398
-1.79023e-15
3.27398
-1.94289e-15
3.27398
-2.15106e-15
3.27398
-2.22045e-15
3.27398
-2.09555e-15
3.27398
-1.80411e-15
3.27398
-1.51268e-15
3.27398
-1.34615e-15
3.27398
-1.47105e-15
3.27398
-1.65146e-15
3.27398
-1.84575e-15
3.27398
-1.85962e-15
3.27398
-1.77636e-15
3.27398
-1.69309e-15
3.27398
-1.70697e-15
3.27398
-1.7486e-15
3.27398
-1.83187e-15
3.27398
-2.01228e-15
3.27398
-2.20657e-15
3.27398
-2.3731e-15
3.27398
-2.51188e-15
3.27398
-2.53964e-15
3.27398
-2.498e-15
3.27398
-2.42861e-15
3.27398
-2.33147e-15
3.27398
-2.41474e-15
3.27398
-2.56739e-15
3.27398
-2.66454e-15
3.27398
-2.6229e-15
3.27398
-2.47025e-15
3.27398
-2.20657e-15
3.27398
-2.05391e-15
3.27398
-2.09555e-15
3.27398
-2.05391e-15
3.27398
-1.90126e-15
3.27398
-1.8735e-15
3.27398
-1.95677e-15
3.27398
-2.06779e-15
3.27398
-2.04003e-15
3.27398
-1.91513e-15
3.27398
-1.8735e-15
3.27398
-1.98452e-15
3.27398
-1.80411e-15
3.27398
-1.56819e-15
3.27398
-1.44329e-15
3.27398
-1.55431e-15
3.27398
-1.80411e-15
3.27398
-2.10942e-15
3.27398
-2.44249e-15
3.27398
-2.70617e-15
3.27398
-2.83107e-15
3.27398
-2.80331e-15
3.27398
-2.59515e-15
3.27398
-2.35922e-15
3.27398
-1.72085e-15
3.27398
-5.82867e-16
3.27398
1.16573e-15
3.27398
3.88578e-15
3.27398
8.31279e-15
3.27398
1.54043e-14
3.27398
2.70339e-14
3.27398
4.61575e-14
3.27398
7.76046e-14
3.27398
1.29299e-13
3.27398
2.14773e-13
3.27398
3.56451e-13
3.27398
5.91721e-13
3.27398
9.82464e-13
3.27398
1.63157e-12
3.27398
2.7101e-12
3.27398
4.50323e-12
3.27398
7.48626e-12
3.27398
1.24516e-11
3.27398
2.07221e-11
3.27398
3.45073e-11
3.27398
5.75006e-11
3.27398
9.58803e-11
3.27398
1.59991e-10
3.27398
2.67166e-10
3.27398
4.46482e-10
3.27398
7.46752e-10
3.27398
1.25001e-09
3.27398
2.09426e-09
3.27398
3.51192e-09
3.27398
5.89484e-09
3.27398
9.90443e-09
3.27398
1.66585e-08
3.27398
2.80485e-08
3.27398
4.72791e-08
3.27398
7.97874e-08
3.27398
1.34811e-07
3.27398
2.28067e-07
3.27398
3.86337e-07
3.27398
6.55329e-07
3.27398
1.11317e-06
3.27398
1.89364e-06
3.27397
3.22617e-06
3.27397
5.50496e-06
3.27396
9.40858e-06
3.27394
1.61073e-05
3.27391
2.76237e-05
3.27387
4.74611e-05
3.27378
8.17037e-05
3.27364
0.000140947
3.2734
0.000243721
3.27298
0.000422557
3.27224
0.000735065
3.27096
0.00128384
3.2687
0.00225546
3.26471
0.00399117
3.25756
0.00714741
3.24459
0.0129695
3.22049
0.0240995
0.0454275
3.17506
3.27398
1.38778e-17
3.27398
2.77556e-17
3.27398
4.16334e-17
3.27398
1.11022e-16
3.27398
2.08167e-16
3.27398
2.22045e-16
3.27398
2.08167e-16
3.27398
9.71445e-17
3.27398
-8.32667e-17
3.27398
-1.66533e-16
3.27398
-3.05311e-16
3.27398
-3.88578e-16
3.27398
-4.57967e-16
3.27398
-4.57967e-16
3.27398
-4.57967e-16
3.27398
-5.41234e-16
3.27398
-6.66134e-16
3.27398
-7.63278e-16
3.27398
-7.91034e-16
3.27398
-8.32667e-16
3.27398
-9.15934e-16
3.27398
-1.08247e-15
3.27398
-1.249e-15
3.27398
-1.29063e-15
3.27398
-1.16573e-15
3.27398
-1.04083e-15
3.27398
-9.85323e-16
3.27398
-8.74301e-16
3.27398
-8.46545e-16
3.27398
-8.18789e-16
3.27398
-8.74301e-16
3.27398
-9.4369e-16
3.27398
-9.71445e-16
3.27398
-8.46545e-16
3.27398
-8.46545e-16
3.27398
-9.4369e-16
3.27398
-1.1241e-15
3.27398
-1.249e-15
3.27398
-1.26288e-15
3.27398
-1.20737e-15
3.27398
-1.13798e-15
3.27398
-1.05471e-15
3.27398
-9.71445e-16
3.27398
-9.15934e-16
3.27398
-9.15934e-16
3.27398
-9.99201e-16
3.27398
-1.11022e-15
3.27398
-1.02696e-15
3.27398
-9.4369e-16
3.27398
-9.4369e-16
3.27398
-9.85323e-16
3.27398
-1.01308e-15
3.27398
-9.99201e-16
3.27398
-9.85323e-16
3.27398
-1.19349e-15
3.27398
-1.41553e-15
3.27398
-1.54043e-15
3.27398
-1.55431e-15
3.27398
-1.56819e-15
3.27398
-1.56819e-15
3.27398
-1.52656e-15
3.27398
-1.4988e-15
3.27398
-1.51268e-15
3.27398
-1.56819e-15
3.27398
-1.7486e-15
3.27398
-2.01228e-15
3.27398
-2.2482e-15
3.27398
-2.3731e-15
3.27398
-2.41474e-15
3.27398
-2.498e-15
3.27398
-2.55351e-15
3.27398
-2.51188e-15
3.27398
-2.30371e-15
3.27398
-2.05391e-15
3.27398
-1.65146e-15
3.27398
-1.19349e-15
3.27398
-8.04912e-16
3.27398
-6.52256e-16
3.27398
-6.52256e-16
3.27398
-7.49401e-16
3.27398
-1.02696e-15
3.27398
-1.36002e-15
3.27398
-1.55431e-15
3.27398
-1.60982e-15
3.27398
-1.58207e-15
3.27398
-1.63758e-15
3.27398
-1.65146e-15
3.27398
-1.7486e-15
3.27398
-2.04003e-15
3.27398
-2.2482e-15
3.27398
-2.38698e-15
3.27398
-2.44249e-15
3.27398
-2.33147e-15
3.27398
-2.19269e-15
3.27398
-2.09555e-15
3.27398
-2.1233e-15
3.27398
-2.15106e-15
3.27398
-2.22045e-15
3.27398
-2.19269e-15
3.27398
-2.27596e-15
3.27398
-2.41474e-15
3.27398
-2.52576e-15
3.27398
-2.59515e-15
3.27398
-2.56739e-15
3.27398
-2.47025e-15
3.27398
-2.55351e-15
3.27398
-2.6229e-15
3.27398
-2.59515e-15
3.27398
-2.48412e-15
3.27398
-2.28983e-15
3.27398
-2.10942e-15
3.27398
-2.04003e-15
3.27398
-2.04003e-15
3.27398
-2.09555e-15
3.27398
-2.15106e-15
3.27398
-2.09555e-15
3.27398
-1.98452e-15
3.27398
-1.8735e-15
3.27398
-1.91513e-15
3.27398
-2.08167e-15
3.27398
-2.27596e-15
3.27398
-2.45637e-15
3.27398
-2.63678e-15
3.27398
-2.70617e-15
3.27398
-2.66454e-15
3.27398
-2.63678e-15
3.27398
-2.6229e-15
3.27398
-2.52576e-15
3.27398
-2.27596e-15
3.27398
-2.01228e-15
3.27398
-1.69309e-15
3.27398
-1.33227e-15
3.27398
-1.09635e-15
3.27398
-1.04083e-15
3.27398
-9.57567e-16
3.27398
-9.15934e-16
3.27398
-9.29812e-16
3.27398
-9.85323e-16
3.27398
-1.15186e-15
3.27398
-1.20737e-15
3.27398
-1.19349e-15
3.27398
-1.17961e-15
3.27398
-1.27676e-15
3.27398
-1.4988e-15
3.27398
-1.7486e-15
3.27398
-1.97065e-15
3.27398
-2.08167e-15
3.27398
-2.28983e-15
3.27398
-2.42861e-15
3.27398
-2.34535e-15
3.27398
-2.20657e-15
3.27398
-2.23432e-15
3.27398
-2.30371e-15
3.27398
-2.23432e-15
3.27398
-2.13718e-15
3.27398
-1.85962e-15
3.27398
-1.67921e-15
3.27398
-1.65146e-15
3.27398
-1.69309e-15
3.27398
-1.63758e-15
3.27398
-1.58207e-15
3.27398
-1.63758e-15
3.27398
-1.85962e-15
3.27398
-2.08167e-15
3.27398
-2.27596e-15
3.27398
-2.44249e-15
3.27398
-2.55351e-15
3.27398
-2.56739e-15
3.27398
-2.56739e-15
3.27398
-2.60902e-15
3.27398
-2.76168e-15
3.27398
-2.85882e-15
3.27398
-2.94209e-15
3.27398
-2.95597e-15
3.27398
-2.73392e-15
3.27398
-2.498e-15
3.27398
-2.3731e-15
3.27398
-2.2482e-15
3.27398
-2.27596e-15
3.27398
-2.42861e-15
3.27398
-2.63678e-15
3.27398
-2.78944e-15
3.27398
-2.76168e-15
3.27398
-2.6229e-15
3.27398
-2.44249e-15
3.27398
-2.23432e-15
3.27398
-2.13718e-15
3.27398
-2.10942e-15
3.27398
-2.08167e-15
3.27398
-2.05391e-15
3.27398
-2.09555e-15
3.27398
-2.17881e-15
3.27398
-2.13718e-15
3.27398
-2.02616e-15
3.27398
-1.67921e-15
3.27398
-1.44329e-15
3.27398
-1.17961e-15
3.27398
-1.15186e-15
3.27398
-1.34615e-15
3.27398
-1.72085e-15
3.27398
-1.92901e-15
3.27398
-1.97065e-15
3.27398
-2.01228e-15
3.27398
-2.19269e-15
3.27398
-2.3731e-15
3.27398
-2.48412e-15
3.27398
-2.40086e-15
3.27398
-2.31759e-15
3.27398
-2.16493e-15
3.27398
-2.08167e-15
3.27398
-2.20657e-15
3.27398
-2.19269e-15
3.27398
-2.08167e-15
3.27398
-1.8735e-15
3.27398
-1.67921e-15
3.27398
-1.44329e-15
3.27398
-1.33227e-15
3.27398
-1.51268e-15
3.27398
-1.90126e-15
3.27398
-2.20657e-15
3.27398
-2.34535e-15
3.27398
-2.40086e-15
3.27398
-2.41474e-15
3.27398
-2.41474e-15
3.27398
-2.40086e-15
3.27398
-2.30371e-15
3.27398
-1.98452e-15
3.27398
-1.65146e-15
3.27398
-1.45717e-15
3.27398
-1.33227e-15
3.27398
-1.41553e-15
3.27398
-1.69309e-15
3.27398
-2.08167e-15
3.27398
-2.42861e-15
3.27398
-2.69229e-15
3.27398
-2.80331e-15
3.27398
-2.81719e-15
3.27398
-2.7478e-15
3.27398
-2.52576e-15
3.27398
-1.7486e-15
3.27398
-3.46945e-16
3.27398
1.79023e-15
3.27398
4.95437e-15
3.27398
9.74221e-15
3.27398
1.72223e-14
3.27398
2.95042e-14
3.27398
4.97519e-14
3.27398
8.33361e-14
3.27398
1.38958e-13
3.27398
2.30926e-13
3.27398
3.82971e-13
3.27398
6.34437e-13
3.27398
1.05058e-12
3.27398
1.73925e-12
3.27398
2.87884e-12
3.27398
4.76515e-12
3.27398
7.88862e-12
3.27398
1.30633e-11
3.27398
2.16397e-11
3.27398
3.58595e-11
3.27398
5.94455e-11
3.27398
9.85834e-11
3.27398
1.63555e-10
3.27398
2.71457e-10
3.27398
4.50736e-10
3.27398
7.48736e-10
3.27398
1.2443e-09
3.27398
2.06878e-09
3.27398
3.44112e-09
3.27398
5.72643e-09
3.27398
9.5339e-09
3.27398
1.58804e-08
3.27398
2.64642e-08
3.27398
4.41228e-08
3.27398
7.36001e-08
3.27398
1.2283e-07
3.27398
2.05088e-07
3.27398
3.42599e-07
3.27398
5.7259e-07
3.27398
9.57433e-07
3.27398
1.60169e-06
3.27398
2.68074e-06
3.27398
4.48878e-06
3.27397
7.51964e-06
3.27397
1.26025e-05
3.27397
2.11303e-05
3.27396
3.54436e-05
3.27395
5.9478e-05
3.27393
9.98546e-05
3.2739
0.000167723
3.27386
0.000281881
3.27381
0.000474091
3.27375
0.000798174
3.27369
0.00134583
3.27367
0.00227425
3.2738
0.00385652
3.27438
0.00657101
3.27606
0.0112808
3.28066
0.0195069
0.0341588
3.29192
3.27398
-6.93889e-17
3.27398
-6.93889e-17
3.27398
-2.77556e-17
3.27398
-4.16334e-17
3.27398
-1.38778e-17
3.27398
1.38778e-17
3.27398
1.38778e-17
3.27398
4.16334e-17
3.27398
1.11022e-16
3.27398
-6.93889e-17
3.27398
-1.94289e-16
3.27398
-2.35922e-16
3.27398
-3.05311e-16
3.27398
-3.88578e-16
3.27398
-3.88578e-16
3.27398
-4.57967e-16
3.27398
-6.10623e-16
3.27398
-8.60423e-16
3.27398
-1.04083e-15
3.27398
-1.15186e-15
3.27398
-1.1241e-15
3.27398
-9.85323e-16
3.27398
-9.4369e-16
3.27398
-1.05471e-15
3.27398
-1.19349e-15
3.27398
-1.29063e-15
3.27398
-1.33227e-15
3.27398
-1.34615e-15
3.27398
-1.33227e-15
3.27398
-1.249e-15
3.27398
-1.04083e-15
3.27398
-8.46545e-16
3.27398
-6.93889e-16
3.27398
-7.07767e-16
3.27398
-8.04912e-16
3.27398
-9.4369e-16
3.27398
-9.15934e-16
3.27398
-1.01308e-15
3.27398
-1.06859e-15
3.27398
-1.17961e-15
3.27398
-1.27676e-15
3.27398
-1.41553e-15
3.27398
-1.44329e-15
3.27398
-1.29063e-15
3.27398
-1.06859e-15
3.27398
-8.32667e-16
3.27398
-7.77156e-16
3.27398
-8.74301e-16
3.27398
-1.08247e-15
3.27398
-1.40166e-15
3.27398
-1.55431e-15
3.27398
-1.42941e-15
3.27398
-1.249e-15
3.27398
-1.16573e-15
3.27398
-1.02696e-15
3.27398
-9.57567e-16
3.27398
-1.02696e-15
3.27398
-1.249e-15
3.27398
-1.44329e-15
3.27398
-1.55431e-15
3.27398
-1.63758e-15
3.27398
-1.65146e-15
3.27398
-1.83187e-15
3.27398
-1.94289e-15
3.27398
-1.67921e-15
3.27398
-1.27676e-15
3.27398
-1.17961e-15
3.27398
-1.34615e-15
3.27398
-1.54043e-15
3.27398
-1.55431e-15
3.27398
-1.42941e-15
3.27398
-1.249e-15
3.27398
-1.05471e-15
3.27398
-9.4369e-16
3.27398
-8.74301e-16
3.27398
-7.49401e-16
3.27398
-7.49401e-16
3.27398
-7.35523e-16
3.27398
-8.04912e-16
3.27398
-8.88178e-16
3.27398
-1.09635e-15
3.27398
-1.3739e-15
3.27398
-1.51268e-15
3.27398
-1.45717e-15
3.27398
-1.51268e-15
3.27398
-1.4988e-15
3.27398
-1.52656e-15
3.27398
-1.67921e-15
3.27398
-1.88738e-15
3.27398
-2.1233e-15
3.27398
-2.40086e-15
3.27398
-2.63678e-15
3.27398
-2.81719e-15
3.27398
-2.80331e-15
3.27398
-2.63678e-15
3.27398
-2.3731e-15
3.27398
-2.40086e-15
3.27398
-2.45637e-15
3.27398
-2.3731e-15
3.27398
-2.17881e-15
3.27398
-2.06779e-15
3.27398
-1.94289e-15
3.27398
-1.90126e-15
3.27398
-2.09555e-15
3.27398
-2.41474e-15
3.27398
-2.65066e-15
3.27398
-2.67841e-15
3.27398
-2.65066e-15
3.27398
-2.63678e-15
3.27398
-2.45637e-15
3.27398
-2.19269e-15
3.27398
-1.85962e-15
3.27398
-1.66533e-15
3.27398
-1.6237e-15
3.27398
-1.60982e-15
3.27398
-1.66533e-15
3.27398
-1.73472e-15
3.27398
-1.7486e-15
3.27398
-1.70697e-15
3.27398
-1.6237e-15
3.27398
-1.52656e-15
3.27398
-1.51268e-15
3.27398
-1.59595e-15
3.27398
-1.67921e-15
3.27398
-1.79023e-15
3.27398
-1.84575e-15
3.27398
-1.91513e-15
3.27398
-2.02616e-15
3.27398
-2.1233e-15
3.27398
-2.08167e-15
3.27398
-2.10942e-15
3.27398
-2.34535e-15
3.27398
-2.56739e-15
3.27398
-2.6229e-15
3.27398
-2.63678e-15
3.27398
-2.51188e-15
3.27398
-2.45637e-15
3.27398
-2.38698e-15
3.27398
-2.20657e-15
3.27398
-2.1233e-15
3.27398
-2.04003e-15
3.27398
-1.88738e-15
3.27398
-1.72085e-15
3.27398
-1.72085e-15
3.27398
-1.90126e-15
3.27398
-2.20657e-15
3.27398
-2.59515e-15
3.27398
-2.8727e-15
3.27398
-3.03924e-15
3.27398
-3.13638e-15
3.27398
-3.13638e-15
3.27398
-3.06699e-15
3.27398
-3.02536e-15
3.27398
-2.76168e-15
3.27398
-2.48412e-15
3.27398
-2.27596e-15
3.27398
-2.23432e-15
3.27398
-2.17881e-15
3.27398
-2.04003e-15
3.27398
-1.9984e-15
3.27398
-2.01228e-15
3.27398
-1.98452e-15
3.27398
-1.95677e-15
3.27398
-2.10942e-15
3.27398
-2.27596e-15
3.27398
-2.28983e-15
3.27398
-2.19269e-15
3.27398
-2.10942e-15
3.27398
-2.1233e-15
3.27398
-2.27596e-15
3.27398
-2.38698e-15
3.27398
-2.58127e-15
3.27398
-2.72005e-15
3.27398
-2.85882e-15
3.27398
-3.08087e-15
3.27398
-3.21965e-15
3.27398
-3.19189e-15
3.27398
-3.15026e-15
3.27398
-3.01148e-15
3.27398
-2.84495e-15
3.27398
-2.67841e-15
3.27398
-2.48412e-15
3.27398
-2.45637e-15
3.27398
-2.51188e-15
3.27398
-2.60902e-15
3.27398
-2.63678e-15
3.27398
-2.51188e-15
3.27398
-2.35922e-15
3.27398
-2.2482e-15
3.27398
-2.22045e-15
3.27398
-2.19269e-15
3.27398
-2.2482e-15
3.27398
-2.41474e-15
3.27398
-2.41474e-15
3.27398
-2.40086e-15
3.27398
-2.22045e-15
3.27398
-2.02616e-15
3.27398
-1.94289e-15
3.27398
-2.01228e-15
3.27398
-2.09555e-15
3.27398
-2.17881e-15
3.27398
-2.33147e-15
3.27398
-2.47025e-15
3.27398
-2.52576e-15
3.27398
-2.47025e-15
3.27398
-2.31759e-15
3.27398
-2.17881e-15
3.27398
-2.01228e-15
3.27398
-1.84575e-15
3.27398
-1.66533e-15
3.27398
-1.48492e-15
3.27398
-1.29063e-15
3.27398
-1.08247e-15
3.27398
-9.85323e-16
3.27398
-9.15934e-16
3.27398
-9.99201e-16
3.27398
-1.33227e-15
3.27398
-1.72085e-15
3.27398
-2.01228e-15
3.27398
-2.08167e-15
3.27398
-2.02616e-15
3.27398
-1.92901e-15
3.27398
-1.88738e-15
3.27398
-1.98452e-15
3.27398
-2.19269e-15
3.27398
-2.28983e-15
3.27398
-2.51188e-15
3.27398
-2.73392e-15
3.27398
-2.73392e-15
3.27398
-2.84495e-15
3.27398
-2.94209e-15
3.27398
-2.91434e-15
3.27398
-2.81719e-15
3.27398
-2.70617e-15
3.27398
-2.55351e-15
3.27398
-2.40086e-15
3.27398
-2.13718e-15
3.27398
-1.7486e-15
3.27398
-1.08247e-15
3.27398
-2.77556e-17
3.27398
1.4988e-15
3.27398
3.89966e-15
3.27398
7.64666e-15
3.27398
1.36557e-14
3.27398
2.33702e-14
3.27398
3.91076e-14
3.27398
6.48925e-14
3.27398
1.0722e-13
3.27398
1.77094e-13
3.27398
2.92377e-13
3.27398
4.82475e-13
3.27398
7.95822e-13
3.27398
1.31221e-12
3.27398
2.16306e-12
3.27398
3.56497e-12
3.27398
5.87527e-12
3.27398
9.68318e-12
3.27398
1.59606e-11
3.27398
2.63111e-11
3.27398
4.33804e-11
3.27398
7.15352e-11
3.27398
1.17983e-10
3.27398
1.94621e-10
3.27398
3.21094e-10
3.27398
5.29843e-10
3.27398
8.74441e-10
3.27398
1.44338e-09
3.27398
2.38283e-09
3.27398
3.9343e-09
3.27398
6.49678e-09
3.27398
1.07295e-08
3.27398
1.77219e-08
3.27398
2.92739e-08
3.27398
4.83599e-08
3.27398
7.98947e-08
3.27398
1.31999e-07
3.27398
2.18087e-07
3.27398
3.60322e-07
3.27398
5.95304e-07
3.27398
9.83471e-07
3.27398
1.62459e-06
3.27398
2.68332e-06
3.27398
4.43124e-06
3.27398
7.31622e-06
3.27398
1.20763e-05
3.27398
1.99272e-05
3.27398
3.287e-05
3.27399
5.41963e-05
3.274
8.93175e-05
3.27402
0.000147124
3.27406
0.000242213
3.27414
0.000398558
3.27428
0.000655533
3.27455
0.00107794
3.27505
0.00177262
3.27599
0.00291711
3.27775
0.00480665
3.28108
0.00794491
3.28742
0.0131651
0.0219916
3.29959
3.27398
1.38778e-17
3.27398
6.93889e-17
3.27398
4.16334e-17
3.27398
1.11022e-16
3.27398
6.93889e-17
3.27398
5.55112e-17
3.27398
6.93889e-17
3.27398
2.22045e-16
3.27398
3.60822e-16
3.27398
4.71845e-16
3.27398
4.16334e-16
3.27398
1.94289e-16
3.27398
1.11022e-16
3.27398
-1.38778e-17
3.27398
-2.63678e-16
3.27398
-3.60822e-16
3.27398
-4.30211e-16
3.27398
-5.55112e-16
3.27398
-5.55112e-16
3.27398
-4.996e-16
3.27398
-3.60822e-16
3.27398
-3.88578e-16
3.27398
-4.85723e-16
3.27398
-6.38378e-16
3.27398
-8.60423e-16
3.27398
-1.04083e-15
3.27398
-1.09635e-15
3.27398
-1.11022e-15
3.27398
-1.1241e-15
3.27398
-1.17961e-15
3.27398
-1.15186e-15
3.27398
-9.57567e-16
3.27398
-8.32667e-16
3.27398
-7.49401e-16
3.27398
-7.91034e-16
3.27398
-7.35523e-16
3.27398
-8.46545e-16
3.27398
-9.15934e-16
3.27398
-1.04083e-15
3.27398
-1.1241e-15
3.27398
-1.19349e-15
3.27398
-1.26288e-15
3.27398
-1.27676e-15
3.27398
-1.22125e-15
3.27398
-1.02696e-15
3.27398
-9.99201e-16
3.27398
-9.71445e-16
3.27398
-1.15186e-15
3.27398
-1.4988e-15
3.27398
-1.77636e-15
3.27398
-1.98452e-15
3.27398
-2.05391e-15
3.27398
-1.94289e-15
3.27398
-1.77636e-15
3.27398
-1.70697e-15
3.27398
-1.55431e-15
3.27398
-1.54043e-15
3.27398
-1.72085e-15
3.27398
-1.94289e-15
3.27398
-2.08167e-15
3.27398
-2.15106e-15
3.27398
-2.33147e-15
3.27398
-2.35922e-15
3.27398
-2.16493e-15
3.27398
-1.83187e-15
3.27398
-1.42941e-15
3.27398
-1.01308e-15
3.27398
-8.18789e-16
3.27398
-7.35523e-16
3.27398
-5.68989e-16
3.27398
-3.747e-16
3.27398
-3.46945e-16
3.27398
-4.16334e-16
3.27398
-5.27356e-16
3.27398
-6.245e-16
3.27398
-7.49401e-16
3.27398
-9.71445e-16
3.27398
-1.19349e-15
3.27398
-1.22125e-15
3.27398
-1.16573e-15
3.27398
-1.08247e-15
3.27398
-9.99201e-16
3.27398
-1.19349e-15
3.27398
-1.45717e-15
3.27398
-1.51268e-15
3.27398
-1.42941e-15
3.27398
-1.44329e-15
3.27398
-1.4988e-15
3.27398
-1.66533e-15
3.27398
-1.81799e-15
3.27398
-1.80411e-15
3.27398
-1.76248e-15
3.27398
-1.77636e-15
3.27398
-1.81799e-15
3.27398
-1.80411e-15
3.27398
-1.77636e-15
3.27398
-1.56819e-15
3.27398
-1.40166e-15
3.27398
-1.41553e-15
3.27398
-1.48492e-15
3.27398
-1.47105e-15
3.27398
-1.54043e-15
3.27398
-1.63758e-15
3.27398
-1.67921e-15
3.27398
-1.77636e-15
3.27398
-1.85962e-15
3.27398
-1.90126e-15
3.27398
-1.8735e-15
3.27398
-1.90126e-15
3.27398
-1.98452e-15
3.27398
-2.05391e-15
3.27398
-2.17881e-15
3.27398
-2.20657e-15
3.27398
-2.16493e-15
3.27398
-2.26208e-15
3.27398
-2.40086e-15
3.27398
-2.40086e-15
3.27398
-2.20657e-15
3.27398
-2.02616e-15
3.27398
-1.85962e-15
3.27398
-1.60982e-15
3.27398
-1.42941e-15
3.27398
-1.41553e-15
3.27398
-1.63758e-15
3.27398
-1.77636e-15
3.27398
-1.8735e-15
3.27398
-1.9984e-15
3.27398
-2.16493e-15
3.27398
-2.38698e-15
3.27398
-2.6229e-15
3.27398
-2.76168e-15
3.27398
-2.69229e-15
3.27398
-2.53964e-15
3.27398
-2.53964e-15
3.27398
-2.59515e-15
3.27398
-2.73392e-15
3.27398
-2.7478e-15
3.27398
-2.7478e-15
3.27398
-2.81719e-15
3.27398
-2.70617e-15
3.27398
-2.47025e-15
3.27398
-2.28983e-15
3.27398
-2.30371e-15
3.27398
-2.31759e-15
3.27398
-2.41474e-15
3.27398
-2.66454e-15
3.27398
-2.9976e-15
3.27398
-3.15026e-15
3.27398
-3.10862e-15
3.27398
-2.96985e-15
3.27398
-2.83107e-15
3.27398
-2.7478e-15
3.27398
-2.56739e-15
3.27398
-2.53964e-15
3.27398
-2.45637e-15
3.27398
-2.34535e-15
3.27398
-2.1233e-15
3.27398
-1.90126e-15
3.27398
-1.84575e-15
3.27398
-1.81799e-15
3.27398
-1.79023e-15
3.27398
-1.72085e-15
3.27398
-1.56819e-15
3.27398
-1.48492e-15
3.27398
-1.44329e-15
3.27398
-1.59595e-15
3.27398
-1.77636e-15
3.27398
-1.94289e-15
3.27398
-2.19269e-15
3.27398
-2.40086e-15
3.27398
-2.51188e-15
3.27398
-2.41474e-15
3.27398
-2.38698e-15
3.27398
-2.51188e-15
3.27398
-2.7478e-15
3.27398
-3.02536e-15
3.27398
-3.06699e-15
3.27398
-2.8727e-15
3.27398
-2.66454e-15
3.27398
-2.48412e-15
3.27398
-2.44249e-15
3.27398
-2.59515e-15
3.27398
-2.84495e-15
3.27398
-3.01148e-15
3.27398
-3.17801e-15
3.27398
-3.33067e-15
3.27398
-3.27516e-15
3.27398
-3.06699e-15
3.27398
-2.72005e-15
3.27398
-2.34535e-15
3.27398
-2.10942e-15
3.27398
-1.91513e-15
3.27398
-1.70697e-15
3.27398
-1.73472e-15
3.27398
-2.01228e-15
3.27398
-2.47025e-15
3.27398
-2.8727e-15
3.27398
-3.06699e-15
3.27398
-3.16414e-15
3.27398
-3.1225e-15
3.27398
-3.08087e-15
3.27398
-3.1225e-15
3.27398
-3.02536e-15
3.27398
-2.72005e-15
3.27398
-2.41474e-15
3.27398
-2.04003e-15
3.27398
-1.81799e-15
3.27398
-1.76248e-15
3.27398
-1.77636e-15
3.27398
-1.80411e-15
3.27398
-1.84575e-15
3.27398
-2.08167e-15
3.27398
-2.33147e-15
3.27398
-2.40086e-15
3.27398
-2.52576e-15
3.27398
-2.73392e-15
3.27398
-2.92821e-15
3.27398
-2.98372e-15
3.27398
-2.88658e-15
3.27398
-2.60902e-15
3.27398
-2.44249e-15
3.27398
-2.15106e-15
3.27398
-1.97065e-15
3.27398
-1.95677e-15
3.27398
-2.08167e-15
3.27398
-2.23432e-15
3.27398
-2.30371e-15
3.27398
-2.51188e-15
3.27398
-3.01148e-15
3.27398
-3.42781e-15
3.27398
-3.59435e-15
3.27398
-3.48332e-15
3.27398
-3.19189e-15
3.27398
-2.88658e-15
3.27398
-2.55351e-15
3.27398
-2.19269e-15
3.27398
-1.83187e-15
3.27398
-1.45717e-15
3.27398
-1.06859e-15
3.27398
-3.19189e-16
3.27398
9.99201e-16
3.27398
3.19189e-15
3.27398
6.93889e-15
3.27398
1.33504e-14
3.27398
2.39947e-14
3.27398
4.13281e-14
3.27398
6.9264e-14
3.27398
1.14811e-13
3.27398
1.89279e-13
3.27398
3.11459e-13
3.27398
5.1191e-13
3.27398
8.40703e-13
3.27398
1.37976e-12
3.27398
2.2638e-12
3.27398
3.71349e-12
3.27398
6.09074e-12
3.27398
9.98923e-12
3.27398
1.6382e-11
3.27398
2.6865e-11
3.27398
4.40549e-11
3.27398
7.22422e-11
3.27398
1.18462e-10
3.27398
1.94247e-10
3.27398
3.18505e-10
3.27398
5.22225e-10
3.27398
8.56196e-10
3.27398
1.40365e-09
3.27398
2.30094e-09
3.27398
3.77145e-09
3.27398
6.181e-09
3.27398
1.01286e-08
3.27398
1.65947e-08
3.27398
2.7184e-08
3.27398
4.45211e-08
3.27398
7.28984e-08
3.27398
1.19332e-07
3.27398
1.95285e-07
3.27398
3.19478e-07
3.27398
5.22463e-07
3.27398
8.54077e-07
3.27398
1.39556e-06
3.27398
2.27922e-06
3.27398
3.72044e-06
3.27398
6.06941e-06
3.27398
9.89512e-06
3.27399
1.6121e-05
3.274
2.62443e-05
3.27401
4.26896e-05
3.27403
6.93791e-05
3.27406
0.00011265
3.27412
0.000182731
3.27422
0.00029612
3.2744
0.000479398
3.2747
0.000775439
3.27522
0.00125335
3.27611
0.00202516
3.27765
0.00327195
3.2803
0.00529318
3.28489
0.00856814
0.0139479
3.29293
3.27398
4.16334e-17
3.27398
9.71445e-17
3.27398
2.22045e-16
3.27398
2.35922e-16
3.27398
2.22045e-16
3.27398
2.22045e-16
3.27398
3.05311e-16
3.27398
3.33067e-16
3.27398
3.46945e-16
3.27398
4.71845e-16
3.27398
5.55112e-16
3.27398
6.245e-16
3.27398
5.27356e-16
3.27398
4.30211e-16
3.27398
4.30211e-16
3.27398
5.27356e-16
3.27398
7.35523e-16
3.27398
8.18789e-16
3.27398
7.49401e-16
3.27398
6.66134e-16
3.27398
4.996e-16
3.27398
2.77556e-16
3.27398
2.77556e-17
3.27398
-2.35922e-16
3.27398
-4.02456e-16
3.27398
-4.85723e-16
3.27398
-5.82867e-16
3.27398
-7.21645e-16
3.27398
-8.60423e-16
3.27398
-8.60423e-16
3.27398
-8.74301e-16
3.27398
-9.29812e-16
3.27398
-9.02056e-16
3.27398
-8.74301e-16
3.27398
-8.46545e-16
3.27398
-9.57567e-16
3.27398
-9.99201e-16
3.27398
-9.57567e-16
3.27398
-7.91034e-16
3.27398
-6.66134e-16
3.27398
-5.41234e-16
3.27398
-6.10623e-16
3.27398
-7.77156e-16
3.27398
-8.74301e-16
3.27398
-1.1241e-15
3.27398
-1.34615e-15
3.27398
-1.4988e-15
3.27398
-1.52656e-15
3.27398
-1.55431e-15
3.27398
-1.55431e-15
3.27398
-1.59595e-15
3.27398
-1.79023e-15
3.27398
-1.98452e-15
3.27398
-2.16493e-15
3.27398
-2.10942e-15
3.27398
-2.08167e-15
3.27398
-1.92901e-15
3.27398
-1.69309e-15
3.27398
-1.4988e-15
3.27398
-1.54043e-15
3.27398
-1.66533e-15
3.27398
-1.65146e-15
3.27398
-1.51268e-15
3.27398
-1.51268e-15
3.27398
-1.55431e-15
3.27398
-1.58207e-15
3.27398
-1.6237e-15
3.27398
-1.48492e-15
3.27398
-1.16573e-15
3.27398
-8.60423e-16
3.27398
-6.52256e-16
3.27398
-4.57967e-16
3.27398
-3.05311e-16
3.27398
-1.94289e-16
3.27398
-2.08167e-16
3.27398
-4.02456e-16
3.27398
-5.55112e-16
3.27398
-7.49401e-16
3.27398
-9.02056e-16
3.27398
-9.15934e-16
3.27398
-8.60423e-16
3.27398
-9.02056e-16
3.27398
-8.60423e-16
3.27398
-7.77156e-16
3.27398
-6.10623e-16
3.27398
-4.57967e-16
3.27398
-4.16334e-16
3.27398
-5.68989e-16
3.27398
-6.80012e-16
3.27398
-8.32667e-16
3.27398
-9.99201e-16
3.27398
-1.13798e-15
3.27398
-1.22125e-15
3.27398
-1.27676e-15
3.27398
-1.3739e-15
3.27398
-1.54043e-15
3.27398
-1.65146e-15
3.27398
-1.63758e-15
3.27398
-1.58207e-15
3.27398
-1.60982e-15
3.27398
-1.7486e-15
3.27398
-1.94289e-15
3.27398
-2.15106e-15
3.27398
-2.17881e-15
3.27398
-2.1233e-15
3.27398
-2.1233e-15
3.27398
-2.27596e-15
3.27398
-2.498e-15
3.27398
-2.58127e-15
3.27398
-2.63678e-15
3.27398
-2.76168e-15
3.27398
-2.77556e-15
3.27398
-2.69229e-15
3.27398
-2.6229e-15
3.27398
-2.55351e-15
3.27398
-2.65066e-15
3.27398
-2.8727e-15
3.27398
-3.10862e-15
3.27398
-3.09475e-15
3.27398
-2.83107e-15
3.27398
-2.60902e-15
3.27398
-2.3731e-15
3.27398
-2.22045e-15
3.27398
-2.17881e-15
3.27398
-2.41474e-15
3.27398
-2.70617e-15
3.27398
-3.01148e-15
3.27398
-3.28904e-15
3.27398
-3.48332e-15
3.27398
-3.52496e-15
3.27398
-3.35842e-15
3.27398
-3.13638e-15
3.27398
-2.88658e-15
3.27398
-2.56739e-15
3.27398
-2.26208e-15
3.27398
-1.97065e-15
3.27398
-1.80411e-15
3.27398
-1.70697e-15
3.27398
-1.65146e-15
3.27398
-1.88738e-15
3.27398
-2.27596e-15
3.27398
-2.65066e-15
3.27398
-2.80331e-15
3.27398
-2.81719e-15
3.27398
-2.7478e-15
3.27398
-2.69229e-15
3.27398
-2.65066e-15
3.27398
-2.73392e-15
3.27398
-2.70617e-15
3.27398
-2.80331e-15
3.27398
-2.91434e-15
3.27398
-2.8727e-15
3.27398
-2.78944e-15
3.27398
-2.63678e-15
3.27398
-2.51188e-15
3.27398
-2.41474e-15
3.27398
-2.28983e-15
3.27398
-2.1233e-15
3.27398
-1.88738e-15
3.27398
-1.72085e-15
3.27398
-1.59595e-15
3.27398
-1.45717e-15
3.27398
-1.31839e-15
3.27398
-1.19349e-15
3.27398
-1.30451e-15
3.27398
-1.44329e-15
3.27398
-1.69309e-15
3.27398
-2.04003e-15
3.27398
-2.22045e-15
3.27398
-2.26208e-15
3.27398
-2.30371e-15
3.27398
-2.33147e-15
3.27398
-2.35922e-15
3.27398
-2.38698e-15
3.27398
-2.51188e-15
3.27398
-2.55351e-15
3.27398
-2.55351e-15
3.27398
-2.63678e-15
3.27398
-2.83107e-15
3.27398
-3.03924e-15
3.27398
-3.19189e-15
3.27398
-3.33067e-15
3.27398
-3.41394e-15
3.27398
-3.58047e-15
3.27398
-3.67761e-15
3.27398
-3.76088e-15
3.27398
-3.78864e-15
3.27398
-3.58047e-15
3.27398
-3.21965e-15
3.27398
-2.90046e-15
3.27398
-2.65066e-15
3.27398
-2.40086e-15
3.27398
-2.04003e-15
3.27398
-1.76248e-15
3.27398
-1.79023e-15
3.27398
-2.08167e-15
3.27398
-2.38698e-15
3.27398
-2.63678e-15
3.27398
-2.69229e-15
3.27398
-2.72005e-15
3.27398
-2.73392e-15
3.27398
-2.51188e-15
3.27398
-2.38698e-15
3.27398
-2.31759e-15
3.27398
-2.08167e-15
3.27398
-1.81799e-15
3.27398
-1.52656e-15
3.27398