/*--------------------------------*- C++ -*----------------------------------*\
| =========                 |                                                 |
| \\      /  F ield         | OpenFOAM: The Open Source CFD Toolbox           |
|  \\    /   O peration     | Version:  2412                                  |
|   \\  /    A nd           | Website:  www.openfoam.com                      |
|    \\/     M anipulation  |                                                 |
\*---------------------------------------------------------------------------*/
FoamFile
{
    version     2.0;
    format      ascii;
    arch        "LSB;label=32;scalar=64";
    class       volVectorField;
    location    "0.005";
    object      U;
}
// * * * * * * * * * * * * * * * * * * * * * * * * * * * * * * * * * * * * * //

dimensions      [0 1 -1 0 0 0 0];

internalField   nonuniform List<vector> 
180000
(
(664 8.68369e-15 0)
(664 8.86771e-15 0)
(664 1.50816e-14 0)
(664 -6.67603e-15 0)
(664 -2.86228e-14 0)
(664 -4.97607e-14 0)
(664 -9.02742e-14 0)
(664 -1.3084e-13 0)
(664 -1.48487e-13 0)
(664 -1.57452e-13 0)
(664 -1.77772e-13 0)
(664 -2.13516e-13 0)
(664 -2.56827e-13 0)
(664 -3.01956e-13 0)
(664 -4.187e-13 0)
(664 -6.03122e-13 0)
(664 -7.55448e-13 0)
(664 -7.54699e-13 0)
(664 -6.58834e-13 0)
(664 -5.97713e-13 0)
(664 -6.64974e-13 0)
(664 -7.98725e-13 0)
(664 -8.51011e-13 0)
(664 -7.82972e-13 0)
(664 -6.36083e-13 0)
(664 -5.16241e-13 0)
(664 -4.87202e-13 0)
(664 -5.22637e-13 0)
(664 -5.55227e-13 0)
(664 -5.71844e-13 0)
(664 -5.69487e-13 0)
(664 -5.63146e-13 0)
(664 -5.34386e-13 0)
(664 -4.9869e-13 0)
(664 -4.61421e-13 0)
(664 -4.30224e-13 0)
(664 -4.0987e-13 0)
(664 -4.32052e-13 0)
(664 -4.63763e-13 0)
(664 -4.50054e-13 0)
(664 -4.09206e-13 0)
(664 -3.51113e-13 0)
(664 -2.81883e-13 0)
(664 -2.61649e-13 0)
(664 -3.78351e-13 0)
(664 -6.01679e-13 0)
(664 -8.04606e-13 0)
(664 -9.5231e-13 0)
(664 -1.04076e-12 0)
(664 -1.08164e-12 0)
(664 -1.12352e-12 0)
(664 -1.15576e-12 0)
(664 -1.18073e-12 0)
(664 -1.18486e-12 0)
(664 -1.1332e-12 0)
(664 -1.04263e-12 0)
(664 -8.94529e-13 0)
(664 -7.65563e-13 0)
(664 -6.6604e-13 0)
(664 -6.51212e-13 0)
(664 -6.01389e-13 0)
(664 -5.08613e-13 0)
(664 -4.02413e-13 0)
(664 -3.4129e-13 0)
(664 -3.22882e-13 0)
(664 -3.50235e-13 0)
(664 -4.47209e-13 0)
(664 -5.33425e-13 0)
(664 -6.16184e-13 0)
(664 -6.5869e-13 0)
(664 -6.39369e-13 0)
(664 -5.89662e-13 0)
(664 -5.55185e-13 0)
(664 -5.56133e-13 0)
(664 -6.20902e-13 0)
(664 -7.32526e-13 0)
(664 -9.05374e-13 0)
(664 -1.06627e-12 0)
(664 -1.16663e-12 0)
(664 -1.21987e-12 0)
(664 -1.22723e-12 0)
(664 -1.11685e-12 0)
(664 -8.83525e-13 0)
(664 -6.94909e-13 0)
(664 -6.30706e-13 0)
(664 -6.27953e-13 0)
(664 -6.1045e-13 0)
(664 -5.97062e-13 0)
(664 -6.14364e-13 0)
(664 -6.8352e-13 0)
(664 -7.44227e-13 0)
(664 -8.12157e-13 0)
(664 -8.90711e-13 0)
(664 -9.78709e-13 0)
(664 -1.12718e-12 0)
(664 -1.25028e-12 0)
(664 -1.24742e-12 0)
(664 -1.15831e-12 0)
(664 -1.00117e-12 0)
(664 -8.50809e-13 0)
(664 -8.04035e-13 0)
(664 -8.82159e-13 0)
(664 -9.79446e-13 0)
(664 -9.90007e-13 0)
(664 -9.66132e-13 0)
(664 -9.8349e-13 0)
(664 -1.08737e-12 0)
(664 -1.252e-12 0)
(664 -1.38466e-12 0)
(664 -1.43395e-12 0)
(664 -1.45837e-12 0)
(664 -1.48946e-12 0)
(664 -1.45603e-12 0)
(664 -1.38093e-12 0)
(664 -1.31153e-12 0)
(664 -1.31355e-12 0)
(664 -1.31246e-12 0)
(664 -1.29995e-12 0)
(664 -1.29848e-12 0)
(664 -1.32208e-12 0)
(664 -1.36232e-12 0)
(664 -1.44574e-12 0)
(664 -1.54251e-12 0)
(664 -1.54867e-12 0)
(664 -1.43301e-12 0)
(664 -1.27474e-12 0)
(664 -1.13028e-12 0)
(664 -1.07542e-12 0)
(664 -1.04841e-12 0)
(664 -9.65402e-13 0)
(664 -7.99293e-13 0)
(664 -6.43007e-13 0)
(664 -6.04258e-13 0)
(664 -6.47398e-13 0)
(664 -7.24178e-13 0)
(664 -7.89409e-13 0)
(664 -8.61499e-13 0)
(664 -9.59268e-13 0)
(664 -1.0042e-12 0)
(664 -1.03968e-12 0)
(664 -1.0924e-12 0)
(664 -1.11481e-12 0)
(664 -1.13264e-12 0)
(664 -1.14805e-12 0)
(664 -1.14645e-12 0)
(664 -1.09452e-12 0)
(664 -1.08965e-12 0)
(664 -1.11488e-12 0)
(664 -1.06611e-12 0)
(664 -9.24242e-13 0)
(664 -8.16653e-13 0)
(664 -8.08857e-13 0)
(664 -8.73802e-13 0)
(664 -9.99973e-13 0)
(664 -1.14811e-12 0)
(664 -1.28356e-12 0)
(664 -1.3936e-12 0)
(664 -1.50302e-12 0)
(664 -1.61495e-12 0)
(664 -1.68606e-12 0)
(664 -1.69453e-12 0)
(664 -1.70024e-12 0)
(664 -1.69439e-12 0)
(664 -1.64128e-12 0)
(664 -1.57268e-12 0)
(664 -1.49509e-12 0)
(664 -1.38657e-12 0)
(664 -1.24825e-12 0)
(664 -1.07665e-12 0)
(664 -9.20994e-13 0)
(664 -7.92706e-13 0)
(664 -7.10152e-13 0)
(664 -6.87735e-13 0)
(664 -6.92531e-13 0)
(664 -6.25956e-13 0)
(664 -5.41812e-13 0)
(664 -4.63616e-13 0)
(664 -4.60563e-13 0)
(664 -4.83195e-13 0)
(664 -5.62012e-13 0)
(664 -6.42236e-13 0)
(664 -6.68042e-13 0)
(664 -6.50295e-13 0)
(664 -5.99408e-13 0)
(664 -5.32558e-13 0)
(664 -5.12697e-13 0)
(664 -5.68394e-13 0)
(664 -6.8176e-13 0)
(664 -8.13653e-13 0)
(664 -9.05808e-13 0)
(664 -9.24088e-13 0)
(664 -8.36294e-13 0)
(664 -6.45338e-13 0)
(664 -4.73629e-13 0)
(664 -4.49901e-13 0)
(664 -5.88885e-13 0)
(664 -7.9269e-13 0)
(664 -9.15283e-13 0)
(664 -8.94823e-13 0)
(664 -7.91387e-13 0)
(664 -7.08647e-13 0)
(664 -6.45604e-13 0)
(664 -6.40435e-13 0)
(664 -7.19921e-13 0)
(664 -8.76466e-13 0)
(664 -1.04815e-12 0)
(664 -1.21865e-12 0)
(664 -1.32654e-12 0)
(664 -1.36718e-12 0)
(664 -1.33543e-12 0)
(664 -1.23417e-12 0)
(664 -1.12383e-12 0)
(664 -1.11051e-12 0)
(664 -1.16029e-12 0)
(664 -1.23221e-12 0)
(664 -1.2741e-12 0)
(664 -1.23146e-12 0)
(664 -1.14383e-12 0)
(664 -1.03919e-12 0)
(664 -9.11045e-13 0)
(664 -7.68118e-13 0)
(664 -6.6586e-13 0)
(664 -6.57385e-13 0)
(664 -7.66907e-13 0)
(664 -9.09643e-13 0)
(664 -9.97584e-13 0)
(664 -1.04895e-12 0)
(664 -1.16677e-12 0)
(664 -1.2507e-12 0)
(664 -1.19791e-12 0)
(664 -1.04631e-12 0)
(664 -9.19966e-13 0)
(664 -9.15158e-13 0)
(664 -9.95578e-13 0)
(664 -1.06958e-12 0)
(664 -1.12044e-12 0)
(664 -1.1834e-12 0)
(664 -1.18222e-12 0)
(664 -1.08093e-12 0)
(664 -9.3287e-13 0)
(664 -7.20357e-13 0)
(664 -4.12737e-13 0)
(664 6.95959e-14 0)
(664 8.02177e-13 0)
(664 2.02894e-12 0)
(664 4.03064e-12 0)
(664 7.22739e-12 0)
(664 1.23872e-11 0)
(664 2.07891e-11 0)
(664 3.4526e-11 0)
(664 5.71334e-11 0)
(664 9.45491e-11 0)
(664 1.56771e-10 0)
(664 2.60323e-10 0)
(664 4.32641e-10 0)
(664 7.19413e-10 0)
(664 1.19683e-09 0)
(664 1.99206e-09 0)
(664 3.31746e-09 0)
(664 5.52809e-09 0)
(664 9.21798e-09 0)
(664 1.5382e-08 0)
(664 2.56875e-08 0)
(664 4.29316e-08 0)
(664 7.18114e-08 0)
(664 1.20223e-07 0)
(664 2.01454e-07 0)
(664 3.37892e-07 0)
(664 5.67299e-07 0)
(664 9.5345e-07 0)
(664 1.60419e-06 0)
(664 2.70212e-06 0)
(664 4.55689e-06 0)
(664 7.69428e-06 0)
(664 1.30085e-05 0)
(663.999 2.20224e-05 0)
(663.999 3.73343e-05 0)
(663.999 6.33842e-05 0)
(663.998 0.000107772 0)
(663.996 0.00018353 0)
(663.994 0.000313047 0)
(663.99 0.000534856 0)
(663.983 0.000915401 0)
(663.972 0.00156948 0)
(663.954 0.00269584 0)
(663.924 0.0046392 0)
(663.874 0.00799884 0)
(663.793 0.0138185 0)
(663.659 0.0239203 0)
(663.437 0.0414909 0)
(663.07 0.0721189 0)
(662.463 0.125617 0)
(661.458 0.219288 0)
(659.79 0.383612 0)
(657.024 0.672747 0)
(652.432 1.18213 0)
(644.827 2.08377 0)
(632.257 3.67603 0)
(611.81 6.51306 0)
(579.725 11.4676 0)
(664 8.67951e-15 0)
(664 8.58367e-15 0)
(664 2.71092e-14 0)
(664 6.11472e-14 0)
(664 7.8609e-14 0)
(664 7.81382e-14 0)
(664 5.49334e-14 0)
(664 2.41401e-14 0)
(664 -4.51965e-14 0)
(664 -9.51936e-14 0)
(664 -1.76859e-13 0)
(664 -2.52098e-13 0)
(664 -3.17608e-13 0)
(664 -3.52509e-13 0)
(664 -4.20811e-13 0)
(664 -5.09787e-13 0)
(664 -6.04326e-13 0)
(664 -6.35015e-13 0)
(664 -6.05957e-13 0)
(664 -5.72175e-13 0)
(664 -6.13233e-13 0)
(664 -7.1157e-13 0)
(664 -8.1448e-13 0)
(664 -8.22217e-13 0)
(664 -7.25783e-13 0)
(664 -5.69127e-13 0)
(664 -4.448e-13 0)
(664 -3.8502e-13 0)
(664 -3.63877e-13 0)
(664 -3.31647e-13 0)
(664 -3.15646e-13 0)
(664 -3.78041e-13 0)
(664 -4.8644e-13 0)
(664 -5.29273e-13 0)
(664 -5.36728e-13 0)
(664 -5.93592e-13 0)
(664 -7.03925e-13 0)
(664 -8.28068e-13 0)
(664 -8.81084e-13 0)
(664 -8.33437e-13 0)
(664 -7.0338e-13 0)
(664 -5.59903e-13 0)
(664 -4.2147e-13 0)
(664 -3.5477e-13 0)
(664 -4.64542e-13 0)
(664 -6.66403e-13 0)
(664 -8.44968e-13 0)
(664 -9.04047e-13 0)
(664 -8.61606e-13 0)
(664 -7.68036e-13 0)
(664 -6.94161e-13 0)
(664 -6.85625e-13 0)
(664 -7.15645e-13 0)
(664 -7.61103e-13 0)
(664 -8.06831e-13 0)
(664 -9.21297e-13 0)
(664 -1.00865e-12 0)
(664 -9.86317e-13 0)
(664 -9.24885e-13 0)
(664 -9.01544e-13 0)
(664 -8.45638e-13 0)
(664 -7.73547e-13 0)
(664 -7.16001e-13 0)
(664 -7.03937e-13 0)
(664 -7.78231e-13 0)
(664 -9.76087e-13 0)
(664 -1.23439e-12 0)
(664 -1.45581e-12 0)
(664 -1.60094e-12 0)
(664 -1.6284e-12 0)
(664 -1.64725e-12 0)
(664 -1.65899e-12 0)
(664 -1.62949e-12 0)
(664 -1.53739e-12 0)
(664 -1.39553e-12 0)
(664 -1.2293e-12 0)
(664 -1.03006e-12 0)
(664 -8.54284e-13 0)
(664 -7.58751e-13 0)
(664 -7.61616e-13 0)
(664 -8.113e-13 0)
(664 -8.51502e-13 0)
(664 -8.41657e-13 0)
(664 -8.53657e-13 0)
(664 -9.08e-13 0)
(664 -9.7156e-13 0)
(664 -9.94155e-13 0)
(664 -9.89085e-13 0)
(664 -1.0077e-12 0)
(664 -1.10387e-12 0)
(664 -1.17726e-12 0)
(664 -1.15937e-12 0)
(664 -1.04697e-12 0)
(664 -8.81529e-13 0)
(664 -7.5798e-13 0)
(664 -6.94955e-13 0)
(664 -6.6142e-13 0)
(664 -6.54402e-13 0)
(664 -6.05762e-13 0)
(664 -5.74226e-13 0)
(664 -6.45187e-13 0)
(664 -7.80186e-13 0)
(664 -9.18863e-13 0)
(664 -9.87547e-13 0)
(664 -9.78604e-13 0)
(664 -9.5187e-13 0)
(664 -9.66984e-13 0)
(664 -1.04823e-12 0)
(664 -1.11408e-12 0)
(664 -1.10104e-12 0)
(664 -1.09431e-12 0)
(664 -1.09051e-12 0)
(664 -1.06916e-12 0)
(664 -1.07596e-12 0)
(664 -1.13218e-12 0)
(664 -1.18248e-12 0)
(664 -1.1854e-12 0)
(664 -1.12303e-12 0)
(664 -1.05966e-12 0)
(664 -1.04692e-12 0)
(664 -1.12146e-12 0)
(664 -1.26714e-12 0)
(664 -1.43997e-12 0)
(664 -1.54978e-12 0)
(664 -1.54576e-12 0)
(664 -1.48173e-12 0)
(664 -1.42594e-12 0)
(664 -1.35505e-12 0)
(664 -1.22806e-12 0)
(664 -1.01674e-12 0)
(664 -7.53812e-13 0)
(664 -4.84271e-13 0)
(664 -2.8674e-13 0)
(664 -1.81108e-13 0)
(664 -1.3321e-13 0)
(664 -1.51534e-13 0)
(664 -2.33055e-13 0)
(664 -3.51959e-13 0)
(664 -4.60195e-13 0)
(664 -5.44167e-13 0)
(664 -5.72415e-13 0)
(664 -5.75642e-13 0)
(664 -6.18419e-13 0)
(664 -6.99727e-13 0)
(664 -8.03246e-13 0)
(664 -8.88657e-13 0)
(664 -9.45494e-13 0)
(664 -9.64202e-13 0)
(664 -9.35445e-13 0)
(664 -8.32293e-13 0)
(664 -6.84293e-13 0)
(664 -6.4273e-13 0)
(664 -7.30996e-13 0)
(664 -8.41876e-13 0)
(664 -9.05339e-13 0)
(664 -8.90312e-13 0)
(664 -8.43695e-13 0)
(664 -8.30094e-13 0)
(664 -8.69394e-13 0)
(664 -9.01569e-13 0)
(664 -8.65068e-13 0)
(664 -8.2692e-13 0)
(664 -8.47239e-13 0)
(664 -9.06493e-13 0)
(664 -1.01219e-12 0)
(664 -1.15016e-12 0)
(664 -1.2727e-12 0)
(664 -1.35523e-12 0)
(664 -1.40016e-12 0)
(664 -1.39285e-12 0)
(664 -1.32193e-12 0)
(664 -1.25941e-12 0)
(664 -1.26904e-12 0)
(664 -1.24542e-12 0)
(664 -1.14573e-12 0)
(664 -1.0411e-12 0)
(664 -9.83899e-13 0)
(664 -9.68493e-13 0)
(664 -1.00097e-12 0)
(664 -1.1614e-12 0)
(664 -1.37101e-12 0)
(664 -1.53104e-12 0)
(664 -1.58799e-12 0)
(664 -1.5358e-12 0)
(664 -1.38582e-12 0)
(664 -1.22105e-12 0)
(664 -1.12826e-12 0)
(664 -1.10318e-12 0)
(664 -1.14014e-12 0)
(664 -1.17679e-12 0)
(664 -1.19898e-12 0)
(664 -1.18474e-12 0)
(664 -1.10254e-12 0)
(664 -1.01085e-12 0)
(664 -9.32555e-13 0)
(664 -9.02688e-13 0)
(664 -9.20491e-13 0)
(664 -9.55269e-13 0)
(664 -9.9123e-13 0)
(664 -1.05651e-12 0)
(664 -1.14226e-12 0)
(664 -1.16862e-12 0)
(664 -1.13206e-12 0)
(664 -1.15486e-12 0)
(664 -1.1772e-12 0)
(664 -1.20741e-12 0)
(664 -1.22568e-12 0)
(664 -1.22492e-12 0)
(664 -1.19688e-12 0)
(664 -1.18756e-12 0)
(664 -1.23584e-12 0)
(664 -1.33657e-12 0)
(664 -1.44841e-12 0)
(664 -1.52493e-12 0)
(664 -1.54502e-12 0)
(664 -1.46781e-12 0)
(664 -1.28791e-12 0)
(664 -1.14492e-12 0)
(664 -1.17288e-12 0)
(664 -1.29735e-12 0)
(664 -1.35225e-12 0)
(664 -1.33499e-12 0)
(664 -1.30159e-12 0)
(664 -1.27941e-12 0)
(664 -1.21431e-12 0)
(664 -1.12166e-12 0)
(664 -9.84413e-13 0)
(664 -8.54572e-13 0)
(664 -6.95893e-13 0)
(664 -5.69465e-13 0)
(664 -5.1197e-13 0)
(664 -5.88822e-13 0)
(664 -7.52719e-13 0)
(664 -9.64882e-13 0)
(664 -1.20499e-12 0)
(664 -1.40664e-12 0)
(664 -1.5552e-12 0)
(664 -1.63147e-12 0)
(664 -1.61772e-12 0)
(664 -1.50167e-12 0)
(664 -1.14646e-12 0)
(664 -3.77286e-13 0)
(664 9.16274e-13 0)
(664 2.94994e-12 0)
(664 6.13013e-12 0)
(664 1.1258e-11 0)
(664 1.96991e-11 0)
(664 3.36271e-11 0)
(664 5.66162e-11 0)
(664 9.45863e-11 0)
(664 1.5732e-10 0)
(664 2.61102e-10 0)
(664 4.33056e-10 0)
(664 7.18168e-10 0)
(664 1.19099e-09 0)
(664 1.97532e-09 0)
(664 3.27697e-09 0)
(664 5.43833e-09 0)
(664 9.02922e-09 0)
(664 1.49982e-08 0)
(664 2.49255e-08 0)
(664 4.14456e-08 0)
(664 6.89524e-08 0)
(664 1.1478e-07 0)
(664 1.91178e-07 0)
(664 3.18621e-07 0)
(664 5.31351e-07 0)
(664 8.86686e-07 0)
(664 1.48064e-06 0)
(664 2.47417e-06 0)
(664 4.13734e-06 0)
(664 6.92361e-06 0)
(664 1.15951e-05 0)
(664 1.9434e-05 0)
(664 3.25987e-05 0)
(664 5.47272e-05 0)
(663.999 9.19565e-05 0)
(663.999 0.000154649 0)
(663.998 0.000260324 0)
(663.997 0.000438622 0)
(663.995 0.000739757 0)
(663.991 0.00124889 0)
(663.985 0.00211058 0)
(663.976 0.00357059 0)
(663.961 0.00604711 0)
(663.937 0.0102526 0)
(663.898 0.0174027 0)
(663.833 0.0295731 0)
(663.729 0.0503141 0)
(663.559 0.0857037 0)
(663.282 0.146163 0)
(662.834 0.249572 0)
(662.108 0.42667 0)
(660.933 0.730258 0)
(659.035 1.25137 0)
(655.984 2.14589 0)
(651.097 3.68321 0)
(643.366 6.31446 0)
(631.256 10.8144 0)
(613.633 18.3333 0)
(664 -8.68075e-15 0)
(664 -8.67677e-15 0)
(664 1.29335e-16 0)
(664 1.57442e-14 0)
(664 4.45908e-14 0)
(664 7.39274e-14 0)
(664 1.12143e-13 0)
(664 1.0056e-13 0)
(664 5.08983e-14 0)
(664 -5.33929e-14 0)
(664 -1.53218e-13 0)
(664 -2.1006e-13 0)
(664 -2.24397e-13 0)
(664 -2.41617e-13 0)
(664 -2.36623e-13 0)
(664 -1.93328e-13 0)
(664 -1.61831e-13 0)
(664 -2.03735e-13 0)
(664 -2.84282e-13 0)
(664 -3.61911e-13 0)
(664 -3.78974e-13 0)
(664 -3.75795e-13 0)
(664 -3.83813e-13 0)
(664 -4.28637e-13 0)
(664 -5.0289e-13 0)
(664 -5.58166e-13 0)
(664 -5.52745e-13 0)
(664 -5.20929e-13 0)
(664 -5.1716e-13 0)
(664 -5.17927e-13 0)
(664 -5.20993e-13 0)
(664 -4.96613e-13 0)
(664 -4.57442e-13 0)
(664 -3.77729e-13 0)
(664 -3.04226e-13 0)
(664 -2.9394e-13 0)
(664 -3.51829e-13 0)
(664 -4.06156e-13 0)
(664 -4.40754e-13 0)
(664 -4.76882e-13 0)
(664 -5.29405e-13 0)
(664 -5.996e-13 0)
(664 -6.21972e-13 0)
(664 -6.251e-13 0)
(664 -5.58245e-13 0)
(664 -4.47834e-13 0)
(664 -3.71672e-13 0)
(664 -3.45295e-13 0)
(664 -3.42991e-13 0)
(664 -3.57296e-13 0)
(664 -4.15272e-13 0)
(664 -4.37076e-13 0)
(664 -4.20379e-13 0)
(664 -3.83328e-13 0)
(664 -3.96273e-13 0)
(664 -4.63273e-13 0)
(664 -5.50841e-13 0)
(664 -6.1581e-13 0)
(664 -6.60785e-13 0)
(664 -7.05286e-13 0)
(664 -7.45639e-13 0)
(664 -7.66023e-13 0)
(664 -8.3067e-13 0)
(664 -9.21202e-13 0)
(664 -9.52924e-13 0)
(664 -8.95879e-13 0)
(664 -8.42558e-13 0)
(664 -8.57838e-13 0)
(664 -8.98521e-13 0)
(664 -9.26729e-13 0)
(664 -9.47831e-13 0)
(664 -9.38211e-13 0)
(664 -8.65715e-13 0)
(664 -7.47288e-13 0)
(664 -5.73591e-13 0)
(664 -3.70743e-13 0)
(664 -1.51717e-13 0)
(664 1.94663e-14 0)
(664 5.79292e-14 0)
(664 1.30078e-14 0)
(664 -1.19489e-13 0)
(664 -3.41826e-13 0)
(664 -5.99257e-13 0)
(664 -7.21595e-13 0)
(664 -6.83858e-13 0)
(664 -6.34799e-13 0)
(664 -6.30295e-13 0)
(664 -6.83711e-13 0)
(664 -8.03425e-13 0)
(664 -9.8399e-13 0)
(664 -1.20594e-12 0)
(664 -1.40026e-12 0)
(664 -1.55643e-12 0)
(664 -1.60394e-12 0)
(664 -1.5578e-12 0)
(664 -1.49478e-12 0)
(664 -1.4839e-12 0)
(664 -1.54716e-12 0)
(664 -1.63729e-12 0)
(664 -1.65945e-12 0)
(664 -1.62734e-12 0)
(664 -1.58063e-12 0)
(664 -1.54772e-12 0)
(664 -1.54338e-12 0)
(664 -1.60252e-12 0)
(664 -1.68884e-12 0)
(664 -1.73107e-12 0)
(664 -1.71291e-12 0)
(664 -1.64135e-12 0)
(664 -1.50292e-12 0)
(664 -1.32244e-12 0)
(664 -1.0863e-12 0)
(664 -9.35949e-13 0)
(664 -8.98325e-13 0)
(664 -9.22405e-13 0)
(664 -9.02389e-13 0)
(664 -8.60422e-13 0)
(664 -8.34257e-13 0)
(664 -8.63745e-13 0)
(664 -9.27407e-13 0)
(664 -9.75704e-13 0)
(664 -1.00533e-12 0)
(664 -1.04319e-12 0)
(664 -1.0634e-12 0)
(664 -1.10041e-12 0)
(664 -1.15718e-12 0)
(664 -1.22859e-12 0)
(664 -1.25344e-12 0)
(664 -1.23999e-12 0)
(664 -1.16148e-12 0)
(664 -1.08496e-12 0)
(664 -1.05375e-12 0)
(664 -1.04469e-12 0)
(664 -1.01898e-12 0)
(664 -9.73935e-13 0)
(664 -8.49247e-13 0)
(664 -7.1282e-13 0)
(664 -6.04309e-13 0)
(664 -5.89074e-13 0)
(664 -5.81944e-13 0)
(664 -5.90418e-13 0)
(664 -6.04307e-13 0)
(664 -6.25987e-13 0)
(664 -6.67034e-13 0)
(664 -7.68492e-13 0)
(664 -9.17432e-13 0)
(664 -1.09129e-12 0)
(664 -1.26956e-12 0)
(664 -1.45271e-12 0)
(664 -1.61127e-12 0)
(664 -1.67369e-12 0)
(664 -1.64749e-12 0)
(664 -1.60896e-12 0)
(664 -1.51611e-12 0)
(664 -1.36591e-12 0)
(664 -1.18102e-12 0)
(664 -1.01899e-12 0)
(664 -9.28375e-13 0)
(664 -8.77511e-13 0)
(664 -8.47218e-13 0)
(664 -8.13913e-13 0)
(664 -7.92991e-13 0)
(664 -8.43223e-13 0)
(664 -9.55466e-13 0)
(664 -1.10977e-12 0)
(664 -1.21367e-12 0)
(664 -1.20094e-12 0)
(664 -1.14261e-12 0)
(664 -1.09915e-12 0)
(664 -1.12898e-12 0)
(664 -1.21976e-12 0)
(664 -1.34261e-12 0)
(664 -1.45419e-12 0)
(664 -1.54348e-12 0)
(664 -1.5662e-12 0)
(664 -1.49582e-12 0)
(664 -1.39721e-12 0)
(664 -1.28488e-12 0)
(664 -1.20996e-12 0)
(664 -1.17031e-12 0)
(664 -1.16622e-12 0)
(664 -1.16165e-12 0)
(664 -1.16521e-12 0)
(664 -1.16131e-12 0)
(664 -1.16015e-12 0)
(664 -1.14466e-12 0)
(664 -1.09373e-12 0)
(664 -1.02686e-12 0)
(664 -9.80159e-13 0)
(664 -9.65949e-13 0)
(664 -9.65695e-13 0)
(664 -1.03028e-12 0)
(664 -1.10988e-12 0)
(664 -1.14747e-12 0)
(664 -1.03169e-12 0)
(664 -7.74201e-13 0)
(664 -4.92096e-13 0)
(664 -2.55266e-13 0)
(664 -1.92596e-13 0)
(664 -3.27236e-13 0)
(664 -5.05422e-13 0)
(664 -6.66458e-13 0)
(664 -8.12589e-13 0)
(664 -9.67023e-13 0)
(664 -1.1218e-12 0)
(664 -1.21798e-12 0)
(664 -1.22907e-12 0)
(664 -1.15759e-12 0)
(664 -1.03508e-12 0)
(664 -9.09757e-13 0)
(664 -8.55443e-13 0)
(664 -7.98323e-13 0)
(664 -6.82366e-13 0)
(664 -5.23002e-13 0)
(664 -3.53395e-13 0)
(664 -2.22615e-13 0)
(664 -1.90822e-13 0)
(664 -2.90819e-13 0)
(664 -5.03546e-13 0)
(664 -7.74631e-13 0)
(664 -9.75504e-13 0)
(664 -1.0798e-12 0)
(664 -1.12927e-12 0)
(664 -1.16936e-12 0)
(664 -1.1993e-12 0)
(664 -1.19129e-12 0)
(664 -1.13692e-12 0)
(664 -1.02835e-12 0)
(664 -8.79776e-13 0)
(664 -7.61196e-13 0)
(664 -7.30821e-13 0)
(664 -7.95059e-13 0)
(664 -9.1343e-13 0)
(664 -1.05641e-12 0)
(664 -1.15802e-12 0)
(664 -1.18291e-12 0)
(664 -1.12698e-12 0)
(664 -1.01297e-12 0)
(664 -7.8842e-13 0)
(664 -3.32835e-13 0)
(664 4.94657e-13 0)
(664 1.81606e-12 0)
(664 3.72756e-12 0)
(664 6.62602e-12 0)
(664 1.11525e-11 0)
(664 1.84165e-11 0)
(664 3.03421e-11 0)
(664 5.00501e-11 0)
(664 8.27902e-11 0)
(664 1.37034e-10 0)
(664 2.26682e-10 0)
(664 3.74763e-10 0)
(664 6.19367e-10 0)
(664 1.02335e-09 0)
(664 1.6906e-09 0)
(664 2.79275e-09 0)
(664 4.61375e-09 0)
(664 7.62342e-09 0)
(664 1.25993e-08 0)
(664 2.08282e-08 0)
(664 3.4441e-08 0)
(664 5.69663e-08 0)
(664 9.42503e-08 0)
(664 1.55981e-07 0)
(664 2.58215e-07 0)
(664 4.27581e-07 0)
(664 7.08237e-07 0)
(664 1.17345e-06 0)
(664 1.94479e-06 0)
(664 3.22405e-06 0)
(664 5.3463e-06 0)
(664 8.86794e-06 0)
(664 1.47132e-05 0)
(664 2.44177e-05 0)
(664 4.05332e-05 0)
(664 6.73006e-05 0)
(663.999 0.00011177 0)
(663.999 0.00018566 0)
(663.998 0.000308457 0)
(663.997 0.000512558 0)
(663.996 0.000851828 0)
(663.993 0.00141582 0)
(663.989 0.00235342 0)
(663.982 0.00391206 0)
(663.97 0.00650291 0)
(663.952 0.010809 0)
(663.923 0.0179643 0)
(663.876 0.0298508 0)
(663.8 0.0495888 0)
(663.679 0.0823484 0)
(663.484 0.136685 0)
(663.171 0.226736 0)
(662.67 0.375817 0)
(661.871 0.6223 0)
(660.598 1.02906 0)
(658.579 1.69877 0)
(655.39 2.79715 0)
(650.408 4.58987 0)
(642.662 7.48517 0)
(631.394 12.1026 0)
(664 -1.73634e-14 0)
(664 -1.7453e-14 0)
(664 -2.46713e-14 0)
(664 -2.12841e-14 0)
(664 -3.67741e-14 0)
(664 -4.97197e-14 0)
(664 -6.21891e-14 0)
(664 -4.06706e-14 0)
(664 4.04731e-14 0)
(664 9.45548e-14 0)
(664 9.91856e-14 0)
(664 3.67699e-14 0)
(664 -3.49055e-14 0)
(664 -9.31739e-14 0)
(664 -1.46882e-13 0)
(664 -2.35475e-13 0)
(664 -3.71729e-13 0)
(664 -5.48887e-13 0)
(664 -6.99379e-13 0)
(664 -7.71272e-13 0)
(664 -7.3938e-13 0)
(664 -6.64395e-13 0)
(664 -5.87367e-13 0)
(664 -5.54774e-13 0)
(664 -5.86309e-13 0)
(664 -6.835e-13 0)
(664 -7.85482e-13 0)
(664 -8.27765e-13 0)
(664 -7.93188e-13 0)
(664 -7.71609e-13 0)
(664 -7.28738e-13 0)
(664 -6.14707e-13 0)
(664 -4.98999e-13 0)
(664 -4.5376e-13 0)
(664 -4.83491e-13 0)
(664 -5.15994e-13 0)
(664 -5.47027e-13 0)
(664 -5.67274e-13 0)
(664 -6.2926e-13 0)
(664 -7.01736e-13 0)
(664 -7.7474e-13 0)
(664 -8.25624e-13 0)
(664 -8.7308e-13 0)
(664 -8.37722e-13 0)
(664 -6.94508e-13 0)
(664 -5.29855e-13 0)
(664 -4.23167e-13 0)
(664 -4.29892e-13 0)
(664 -5.90063e-13 0)
(664 -8.50141e-13 0)
(664 -1.0657e-12 0)
(664 -1.09958e-12 0)
(664 -9.88235e-13 0)
(664 -8.30032e-13 0)
(664 -6.60261e-13 0)
(664 -4.96897e-13 0)
(664 -4.07081e-13 0)
(664 -4.85711e-13 0)
(664 -6.73568e-13 0)
(664 -8.23244e-13 0)
(664 -9.08908e-13 0)
(664 -9.59679e-13 0)
(664 -1.00025e-12 0)
(664 -1.02218e-12 0)
(664 -9.61253e-13 0)
(664 -7.3924e-13 0)
(664 -4.79435e-13 0)
(664 -3.56203e-13 0)
(664 -4.09531e-13 0)
(664 -5.15866e-13 0)
(664 -5.24854e-13 0)
(664 -4.41214e-13 0)
(664 -3.7247e-13 0)
(664 -3.60278e-13 0)
(664 -3.86546e-13 0)
(664 -4.19967e-13 0)
(664 -5.08565e-13 0)
(664 -6.19839e-13 0)
(664 -6.81888e-13 0)
(664 -6.789e-13 0)
(664 -6.68941e-13 0)
(664 -6.91787e-13 0)
(664 -7.16979e-13 0)
(664 -7.488e-13 0)
(664 -8.03822e-13 0)
(664 -8.533e-13 0)
(664 -8.82866e-13 0)
(664 -9.12827e-13 0)
(664 -9.89877e-13 0)
(664 -1.08141e-12 0)
(664 -1.13661e-12 0)
(664 -1.15958e-12 0)
(664 -1.22216e-12 0)
(664 -1.31087e-12 0)
(664 -1.3242e-12 0)
(664 -1.21718e-12 0)
(664 -1.05272e-12 0)
(664 -8.97141e-13 0)
(664 -8.01997e-13 0)
(664 -7.25639e-13 0)
(664 -6.51623e-13 0)
(664 -5.84088e-13 0)
(664 -5.19156e-13 0)
(664 -5.17903e-13 0)
(664 -6.09245e-13 0)
(664 -7.91703e-13 0)
(664 -9.42011e-13 0)
(664 -9.66582e-13 0)
(664 -9.63813e-13 0)
(664 -1.00206e-12 0)
(664 -1.01342e-12 0)
(664 -9.89995e-13 0)
(664 -9.45606e-13 0)
(664 -8.88429e-13 0)
(664 -8.29994e-13 0)
(664 -8.34877e-13 0)
(664 -8.96495e-13 0)
(664 -9.04635e-13 0)
(664 -8.52888e-13 0)
(664 -7.68595e-13 0)
(664 -6.76345e-13 0)
(664 -6.1279e-13 0)
(664 -6.02995e-13 0)
(664 -6.64686e-13 0)
(664 -7.2577e-13 0)
(664 -7.21941e-13 0)
(664 -6.82513e-13 0)
(664 -7.13135e-13 0)
(664 -8.24249e-13 0)
(664 -9.26561e-13 0)
(664 -1.02136e-12 0)
(664 -1.15882e-12 0)
(664 -1.30409e-12 0)
(664 -1.42095e-12 0)
(664 -1.519e-12 0)
(664 -1.61809e-12 0)
(664 -1.70089e-12 0)
(664 -1.74815e-12 0)
(664 -1.73972e-12 0)
(664 -1.65739e-12 0)
(664 -1.49934e-12 0)
(664 -1.2943e-12 0)
(664 -1.07611e-12 0)
(664 -9.54764e-13 0)
(664 -9.37624e-13 0)
(664 -1.0313e-12 0)
(664 -1.24218e-12 0)
(664 -1.45386e-12 0)
(664 -1.55671e-12 0)
(664 -1.53881e-12 0)
(664 -1.48905e-12 0)
(664 -1.44567e-12 0)
(664 -1.41119e-12 0)
(664 -1.36363e-12 0)
(664 -1.29779e-12 0)
(664 -1.24902e-12 0)
(664 -1.23675e-12 0)
(664 -1.23124e-12 0)
(664 -1.20222e-12 0)
(664 -1.17938e-12 0)
(664 -1.20022e-12 0)
(664 -1.20196e-12 0)
(664 -1.1455e-12 0)
(664 -1.0879e-12 0)
(664 -1.04772e-12 0)
(664 -1.05043e-12 0)
(664 -1.03906e-12 0)
(664 -1.01948e-12 0)
(664 -1.02857e-12 0)
(664 -1.06682e-12 0)
(664 -1.15246e-12 0)
(664 -1.22196e-12 0)
(664 -1.24669e-12 0)
(664 -1.30325e-12 0)
(664 -1.44377e-12 0)
(664 -1.64953e-12 0)
(664 -1.82063e-12 0)
(664 -1.88434e-12 0)
(664 -1.81795e-12 0)
(664 -1.6654e-12 0)
(664 -1.50335e-12 0)
(664 -1.37049e-12 0)
(664 -1.30114e-12 0)
(664 -1.31649e-12 0)
(664 -1.38085e-12 0)
(664 -1.45334e-12 0)
(664 -1.46356e-12 0)
(664 -1.41506e-12 0)
(664 -1.33382e-12 0)
(664 -1.22622e-12 0)
(664 -1.16478e-12 0)
(664 -1.1441e-12 0)
(664 -1.17516e-12 0)
(664 -1.26353e-12 0)
(664 -1.41504e-12 0)
(664 -1.61004e-12 0)
(664 -1.74658e-12 0)
(664 -1.80831e-12 0)
(664 -1.82474e-12 0)
(664 -1.79099e-12 0)
(664 -1.73067e-12 0)
(664 -1.68586e-12 0)
(664 -1.62468e-12 0)
(664 -1.52469e-12 0)
(664 -1.40133e-12 0)
(664 -1.24664e-12 0)
(664 -1.12628e-12 0)
(664 -1.09934e-12 0)
(664 -1.08402e-12 0)
(664 -1.02295e-12 0)
(664 -8.77575e-13 0)
(664 -7.4979e-13 0)
(664 -6.80061e-13 0)
(664 -6.90444e-13 0)
(664 -7.28025e-13 0)
(664 -8.275e-13 0)
(664 -1.04102e-12 0)
(664 -1.27935e-12 0)
(664 -1.42211e-12 0)
(664 -1.35746e-12 0)
(664 -1.1949e-12 0)
(664 -1.02541e-12 0)
(664 -8.99672e-13 0)
(664 -8.58729e-13 0)
(664 -9.95264e-13 0)
(664 -1.16714e-12 0)
(664 -1.37458e-12 0)
(664 -1.6259e-12 0)
(664 -1.91584e-12 0)
(664 -2.14939e-12 0)
(664 -2.27568e-12 0)
(664 -2.24262e-12 0)
(664 -2.07429e-12 0)
(664 -1.83294e-12 0)
(664 -1.5939e-12 0)
(664 -1.33787e-12 0)
(664 -1.09525e-12 0)
(664 -8.32242e-13 0)
(664 -4.94984e-13 0)
(664 3.46894e-14 0)
(664 8.26896e-13 0)
(664 1.99772e-12 0)
(664 3.89476e-12 0)
(664 7.07674e-12 0)
(664 1.24006e-11 0)
(664 2.11338e-11 0)
(664 3.52726e-11 0)
(664 5.82673e-11 0)
(664 9.59091e-11 0)
(664 1.57717e-10 0)
(664 2.59367e-10 0)
(664 4.266e-10 0)
(664 7.01591e-10 0)
(664 1.15369e-09 0)
(664 1.89696e-09 0)
(664 3.11897e-09 0)
(664 5.12816e-09 0)
(664 8.43187e-09 0)
(664 1.38645e-08 0)
(664 2.27985e-08 0)
(664 3.7492e-08 0)
(664 6.16592e-08 0)
(664 1.01411e-07 0)
(664 1.66801e-07 0)
(664 2.74369e-07 0)
(664 4.51326e-07 0)
(664 7.42437e-07 0)
(664 1.22135e-06 0)
(664 2.00919e-06 0)
(664 3.30524e-06 0)
(664 5.4372e-06 0)
(664 8.944e-06 0)
(664 1.47117e-05 0)
(664 2.4197e-05 0)
(664 3.9794e-05 0)
(664 6.54362e-05 0)
(664 0.000107585 0)
(663.999 0.000176851 0)
(663.999 0.00029065 0)
(663.998 0.000477554 0)
(663.997 0.000784417 0)
(663.995 0.00128803 0)
(663.992 0.00211415 0)
(663.987 0.00346861 0)
(663.979 0.00568797 0)
(663.966 0.00932207 0)
(663.946 0.0152682 0)
(663.913 0.0249891 0)
(663.861 0.0408655 0)
(663.778 0.0667666 0)
(663.646 0.108969 0)
(663.437 0.177634 0)
(663.105 0.289163 0)
(662.579 0.469962 0)
(661.748 0.762308 0)
(660.441 1.23369 0)
(658.386 1.99031 0)
(655.187 3.19923 0)
(650.204 5.11061 0)
(642.89 8.10854 0)
(664 2.60422e-14 0)
(664 6.0778e-14 0)
(664 8.65609e-14 0)
(664 1.08704e-13 0)
(664 1.36922e-13 0)
(664 1.49208e-13 0)
(664 1.63872e-13 0)
(664 1.96571e-13 0)
(664 2.2255e-13 0)
(664 2.78365e-13 0)
(664 3.14323e-13 0)
(664 3.11411e-13 0)
(664 2.49729e-13 0)
(664 1.59167e-13 0)
(664 6.42571e-14 0)
(664 3.10316e-14 0)
(664 5.9888e-14 0)
(664 1.17604e-13 0)
(664 1.59064e-13 0)
(664 1.57348e-13 0)
(664 1.47148e-13 0)
(664 1.15853e-13 0)
(664 2.49953e-14 0)
(664 -1.42472e-13 0)
(664 -3.00624e-13 0)
(664 -3.88668e-13 0)
(664 -4.22483e-13 0)
(664 -4.35513e-13 0)
(664 -4.68768e-13 0)
(664 -4.74482e-13 0)
(664 -4.54299e-13 0)
(664 -4.23777e-13 0)
(664 -3.75927e-13 0)
(664 -3.21732e-13 0)
(664 -3.08383e-13 0)
(664 -3.3036e-13 0)
(664 -3.74764e-13 0)
(664 -4.08507e-13 0)
(664 -4.2168e-13 0)
(664 -4.4e-13 0)
(664 -4.46524e-13 0)
(664 -4.257e-13 0)
(664 -4.36193e-13 0)
(664 -4.76024e-13 0)
(664 -5.15344e-13 0)
(664 -5.82312e-13 0)
(664 -6.49952e-13 0)
(664 -6.97892e-13 0)
(664 -7.41577e-13 0)
(664 -7.84342e-13 0)
(664 -8.49623e-13 0)
(664 -9.88978e-13 0)
(664 -1.1416e-12 0)
(664 -1.25507e-12 0)
(664 -1.32222e-12 0)
(664 -1.36306e-12 0)
(664 -1.32094e-12 0)
(664 -1.23015e-12 0)
(664 -1.16995e-12 0)
(664 -1.17702e-12 0)
(664 -1.23021e-12 0)
(664 -1.28996e-12 0)
(664 -1.29524e-12 0)
(664 -1.23452e-12 0)
(664 -1.12926e-12 0)
(664 -1.02143e-12 0)
(664 -8.69409e-13 0)
(664 -6.98373e-13 0)
(664 -4.83823e-13 0)
(664 -2.46457e-13 0)
(664 -4.43382e-14 0)
(664 6.22293e-14 0)
(664 6.49706e-14 0)
(664 2.3651e-14 0)
(664 -8.19821e-14 0)
(664 -2.00464e-13 0)
(664 -3.24969e-13 0)
(664 -4.89481e-13 0)
(664 -6.01804e-13 0)
(664 -6.10155e-13 0)
(664 -5.34486e-13 0)
(664 -4.58442e-13 0)
(664 -4.6561e-13 0)
(664 -5.90859e-13 0)
(664 -7.06048e-13 0)
(664 -6.67962e-13 0)
(664 -5.65523e-13 0)
(664 -5.29362e-13 0)
(664 -5.6251e-13 0)
(664 -6.36083e-13 0)
(664 -6.66547e-13 0)
(664 -6.68585e-13 0)
(664 -6.04657e-13 0)
(664 -5.68827e-13 0)
(664 -5.67622e-13 0)
(664 -6.26808e-13 0)
(664 -7.05558e-13 0)
(664 -7.57592e-13 0)
(664 -7.31784e-13 0)
(664 -7.25395e-13 0)
(664 -7.70133e-13 0)
(664 -8.62894e-13 0)
(664 -9.85868e-13 0)
(664 -1.10936e-12 0)
(664 -1.14424e-12 0)
(664 -1.07588e-12 0)
(664 -1.03315e-12 0)
(664 -1.05727e-12 0)
(664 -1.11663e-12 0)
(664 -1.1544e-12 0)
(664 -1.20342e-12 0)
(664 -1.28782e-12 0)
(664 -1.33026e-12 0)
(664 -1.3367e-12 0)
(664 -1.3717e-12 0)
(664 -1.46864e-12 0)
(664 -1.55552e-12 0)
(664 -1.58533e-12 0)
(664 -1.50595e-12 0)
(664 -1.34695e-12 0)
(664 -1.1532e-12 0)
(664 -9.44915e-13 0)
(664 -7.70052e-13 0)
(664 -7.28851e-13 0)
(664 -8.29114e-13 0)
(664 -1.02701e-12 0)
(664 -1.22488e-12 0)
(664 -1.39545e-12 0)
(664 -1.5535e-12 0)
(664 -1.68987e-12 0)
(664 -1.74669e-12 0)
(664 -1.68622e-12 0)
(664 -1.54451e-12 0)
(664 -1.3914e-12 0)
(664 -1.26782e-12 0)
(664 -1.21886e-12 0)
(664 -1.19089e-12 0)
(664 -1.15048e-12 0)
(664 -1.12702e-12 0)
(664 -1.15455e-12 0)
(664 -1.2072e-12 0)
(664 -1.29172e-12 0)
(664 -1.42753e-12 0)
(664 -1.5327e-12 0)
(664 -1.57515e-12 0)
(664 -1.59874e-12 0)
(664 -1.62427e-12 0)
(664 -1.67524e-12 0)
(664 -1.68408e-12 0)
(664 -1.6473e-12 0)
(664 -1.62113e-12 0)
(664 -1.59467e-12 0)
(664 -1.49712e-12 0)
(664 -1.41017e-12 0)
(664 -1.33406e-12 0)
(664 -1.22992e-12 0)
(664 -1.0646e-12 0)
(664 -8.87531e-13 0)
(664 -7.37167e-13 0)
(664 -6.24038e-13 0)
(664 -5.72805e-13 0)
(664 -5.50044e-13 0)
(664 -5.16604e-13 0)
(664 -4.66525e-13 0)
(664 -4.52507e-13 0)
(664 -5.11488e-13 0)
(664 -6.49629e-13 0)
(664 -8.37423e-13 0)
(664 -1.01993e-12 0)
(664 -1.16475e-12 0)
(664 -1.21866e-12 0)
(664 -1.16108e-12 0)
(664 -1.07626e-12 0)
(664 -1.03712e-12 0)
(664 -1.10556e-12 0)
(664 -1.1867e-12 0)
(664 -1.20369e-12 0)
(664 -1.12773e-12 0)
(664 -1.05575e-12 0)
(664 -1.03944e-12 0)
(664 -1.07287e-12 0)
(664 -1.1584e-12 0)
(664 -1.30534e-12 0)
(664 -1.47629e-12 0)
(664 -1.63028e-12 0)
(664 -1.76054e-12 0)
(664 -1.84237e-12 0)
(664 -1.84364e-12 0)
(664 -1.67937e-12 0)
(664 -1.43675e-12 0)
(664 -1.18381e-12 0)
(664 -9.67154e-13 0)
(664 -7.04742e-13 0)
(664 -4.44577e-13 0)
(664 -3.88401e-13 0)
(664 -5.79592e-13 0)
(664 -8.86781e-13 0)
(664 -1.15934e-12 0)