/*--------------------------------*- C++ -*----------------------------------*\
| =========                 |                                                 |
| \\      /  F ield         | OpenFOAM: The Open Source CFD Toolbox           |
|  \\    /   O peration     | Version:  2412                                  |
|   \\  /    A nd           | Website:  www.openfoam.com                      |
|    \\/     M anipulation  |                                                 |
\*---------------------------------------------------------------------------*/
FoamFile
{
    version     2.0;
    format      ascii;
    arch        "LSB;label=32;scalar=64";
    class       volVectorField;
    location    "0.005";
    object      U_0;
}
// * * * * * * * * * * * * * * * * * * * * * * * * * * * * * * * * * * * * * //

dimensions      [0 1 -1 0 0 0 0];

internalField   nonuniform List<vector> 
180000
(
(664 8.6427e-15 0)
(664 7.98758e-15 0)
(664 5.36497e-15 0)
(664 -1.81104e-14 0)
(664 -3.75294e-14 0)
(664 -6.75907e-14 0)
(664 -1.05493e-13 0)
(664 -1.20761e-13 0)
(664 -1.20286e-13 0)
(664 -1.36803e-13 0)
(664 -1.70862e-13 0)
(664 -2.07956e-13 0)
(664 -2.43215e-13 0)
(664 -3.09862e-13 0)
(664 -4.84612e-13 0)
(664 -6.8032e-13 0)
(664 -7.43976e-13 0)
(664 -6.46092e-13 0)
(664 -5.60109e-13 0)
(664 -6.08155e-13 0)
(664 -7.5755e-13 0)
(664 -8.82214e-13 0)
(664 -8.77554e-13 0)
(664 -7.43596e-13 0)
(664 -6.02294e-13 0)
(664 -5.34477e-13 0)
(664 -5.48187e-13 0)
(664 -5.82923e-13 0)
(664 -5.72605e-13 0)
(664 -5.69459e-13 0)
(664 -5.66568e-13 0)
(664 -5.47164e-13 0)
(664 -5.20159e-13 0)
(664 -4.78302e-13 0)
(664 -4.24543e-13 0)
(664 -3.92864e-13 0)
(664 -4.22716e-13 0)
(664 -4.57584e-13 0)
(664 -4.42916e-13 0)
(664 -4.09827e-13 0)
(664 -3.70364e-13 0)
(664 -3.04037e-13 0)
(664 -2.41838e-13 0)
(664 -3.04062e-13 0)
(664 -5.12994e-13 0)
(664 -7.31418e-13 0)
(664 -8.74827e-13 0)
(664 -9.72967e-13 0)
(664 -1.03234e-12 0)
(664 -1.06766e-12 0)
(664 -1.10662e-12 0)
(664 -1.14291e-12 0)
(664 -1.15313e-12 0)
(664 -1.12834e-12 0)
(664 -1.03795e-12 0)
(664 -9.22405e-13 0)
(664 -7.83661e-13 0)
(664 -6.70412e-13 0)
(664 -6.28912e-13 0)
(664 -6.25099e-13 0)
(664 -5.27428e-13 0)
(664 -3.95322e-13 0)
(664 -3.04999e-13 0)
(664 -2.86295e-13 0)
(664 -3.14261e-13 0)
(664 -3.93882e-13 0)
(664 -4.82683e-13 0)
(664 -5.61214e-13 0)
(664 -6.19451e-13 0)
(664 -6.34051e-13 0)
(664 -5.86554e-13 0)
(664 -5.42359e-13 0)
(664 -5.48849e-13 0)
(664 -5.95472e-13 0)
(664 -7.01281e-13 0)
(664 -8.68099e-13 0)
(664 -1.04124e-12 0)
(664 -1.14861e-12 0)
(664 -1.19758e-12 0)
(664 -1.23705e-12 0)
(664 -1.19137e-12 0)
(664 -9.71156e-13 0)
(664 -7.36215e-13 0)
(664 -6.60641e-13 0)
(664 -6.50625e-13 0)
(664 -6.3703e-13 0)
(664 -6.07493e-13 0)
(664 -5.94788e-13 0)
(664 -6.22494e-13 0)
(664 -6.82947e-13 0)
(664 -7.48533e-13 0)
(664 -8.23609e-13 0)
(664 -9.35322e-13 0)
(664 -1.09081e-12 0)
(664 -1.21173e-12 0)
(664 -1.24835e-12 0)
(664 -1.19671e-12 0)
(664 -1.06743e-12 0)
(664 -9.26318e-13 0)
(664 -8.49829e-13 0)
(664 -8.85518e-13 0)
(664 -9.96687e-13 0)
(664 -1.0215e-12 0)
(664 -9.67692e-13 0)
(664 -9.82333e-13 0)
(664 -1.06827e-12 0)
(664 -1.20357e-12 0)
(664 -1.36029e-12 0)
(664 -1.43009e-12 0)
(664 -1.45643e-12 0)
(664 -1.4995e-12 0)
(664 -1.50011e-12 0)
(664 -1.41137e-12 0)
(664 -1.34419e-12 0)
(664 -1.33031e-12 0)
(664 -1.34347e-12 0)
(664 -1.32895e-12 0)
(664 -1.32573e-12 0)
(664 -1.33041e-12 0)
(664 -1.36396e-12 0)
(664 -1.43757e-12 0)
(664 -1.54301e-12 0)
(664 -1.57853e-12 0)
(664 -1.47426e-12 0)
(664 -1.30395e-12 0)
(664 -1.17575e-12 0)
(664 -1.11043e-12 0)
(664 -1.11076e-12 0)
(664 -1.06077e-12 0)
(664 -9.15158e-13 0)
(664 -7.28428e-13 0)
(664 -6.40577e-13 0)
(664 -6.81741e-13 0)
(664 -7.47618e-13 0)
(664 -7.99297e-13 0)
(664 -8.59015e-13 0)
(664 -9.31755e-13 0)
(664 -9.94691e-13 0)
(664 -1.05078e-12 0)
(664 -1.08831e-12 0)
(664 -1.0993e-12 0)
(664 -1.11206e-12 0)
(664 -1.15028e-12 0)
(664 -1.16594e-12 0)
(664 -1.12811e-12 0)
(664 -1.08129e-12 0)
(664 -1.13074e-12 0)
(664 -1.12623e-12 0)
(664 -9.8847e-13 0)
(664 -8.66509e-13 0)
(664 -8.43733e-13 0)
(664 -8.85242e-13 0)
(664 -9.73526e-13 0)
(664 -1.1051e-12 0)
(664 -1.2454e-12 0)
(664 -1.35512e-12 0)
(664 -1.44447e-12 0)
(664 -1.56912e-12 0)
(664 -1.68029e-12 0)
(664 -1.69696e-12 0)
(664 -1.69009e-12 0)
(664 -1.69983e-12 0)
(664 -1.66256e-12 0)
(664 -1.59243e-12 0)
(664 -1.52658e-12 0)
(664 -1.42843e-12 0)
(664 -1.27985e-12 0)
(664 -1.12297e-12 0)
(664 -9.73338e-13 0)
(664 -8.6123e-13 0)
(664 -7.74104e-13 0)
(664 -7.47949e-13 0)
(664 -7.52355e-13 0)
(664 -7.15252e-13 0)
(664 -6.14068e-13 0)
(664 -5.42126e-13 0)
(664 -5.0183e-13 0)
(664 -5.09173e-13 0)
(664 -5.59276e-13 0)
(664 -6.3275e-13 0)
(664 -6.64331e-13 0)
(664 -6.41787e-13 0)
(664 -6.16411e-13 0)
(664 -5.65495e-13 0)
(664 -5.1722e-13 0)
(664 -5.43139e-13 0)
(664 -6.42052e-13 0)
(664 -7.63893e-13 0)
(664 -8.64919e-13 0)
(664 -9.16144e-13 0)
(664 -8.60191e-13 0)
(664 -6.93455e-13 0)
(664 -5.07393e-13 0)
(664 -4.51893e-13 0)
(664 -5.7601e-13 0)
(664 -7.72326e-13 0)
(664 -9.13983e-13 0)
(664 -9.30376e-13 0)
(664 -8.53962e-13 0)
(664 -7.52107e-13 0)
(664 -6.76312e-13 0)
(664 -6.40455e-13 0)
(664 -6.94162e-13 0)
(664 -8.33978e-13 0)
(664 -1.01338e-12 0)
(664 -1.17754e-12 0)
(664 -1.29866e-12 0)
(664 -1.358e-12 0)
(664 -1.35645e-12 0)
(664 -1.27355e-12 0)
(664 -1.15391e-12 0)
(664 -1.0907e-12 0)
(664 -1.13089e-12 0)
(664 -1.2068e-12 0)
(664 -1.24614e-12 0)
(664 -1.2376e-12 0)
(664 -1.16543e-12 0)
(664 -1.04987e-12 0)
(664 -9.28384e-13 0)
(664 -8.0859e-13 0)
(664 -6.90103e-13 0)
(664 -6.65595e-13 0)
(664 -7.53452e-13 0)
(664 -9.29834e-13 0)
(664 -1.05252e-12 0)
(664 -1.08719e-12 0)
(664 -1.14789e-12 0)
(664 -1.26431e-12 0)
(664 -1.26306e-12 0)
(664 -1.09431e-12 0)
(664 -9.51019e-13 0)
(664 -9.25401e-13 0)
(664 -9.80568e-13 0)
(664 -1.04488e-12 0)
(664 -1.10613e-12 0)
(664 -1.17932e-12 0)
(664 -1.21853e-12 0)
(664 -1.16237e-12 0)
(664 -1.03192e-12 0)
(664 -8.87435e-13 0)
(664 -6.66979e-13 0)
(664 -3.36617e-13 0)
(664 1.31409e-13 0)
(664 9.0353e-13 0)
(664 2.19716e-12 0)
(664 4.20743e-12 0)
(664 7.39236e-12 0)
(664 1.25254e-11 0)
(664 2.08674e-11 0)
(664 3.45041e-11 0)
(664 5.69961e-11 0)
(664 9.43751e-11 0)
(664 1.56622e-10 0)
(664 2.60213e-10 0)
(664 4.32597e-10 0)
(664 7.19409e-10 0)
(664 1.19683e-09 0)
(664 1.99206e-09 0)
(664 3.31742e-09 0)
(664 5.52797e-09 0)
(664 9.21783e-09 0)
(664 1.53819e-08 0)
(664 2.56875e-08 0)
(664 4.29316e-08 0)
(664 7.18114e-08 0)
(664 1.20223e-07 0)
(664 2.01454e-07 0)
(664 3.37892e-07 0)
(664 5.67298e-07 0)
(664 9.53449e-07 0)
(664 1.60419e-06 0)
(664 2.70212e-06 0)
(664 4.55689e-06 0)
(664 7.69427e-06 0)
(664 1.30084e-05 0)
(663.999 2.20224e-05 0)
(663.999 3.73343e-05 0)
(663.999 6.33841e-05 0)
(663.998 0.000107772 0)
(663.996 0.00018353 0)
(663.994 0.000313047 0)
(663.99 0.000534856 0)
(663.983 0.0009154 0)
(663.972 0.00156948 0)
(663.954 0.00269583 0)
(663.924 0.0046392 0)
(663.874 0.00799883 0)
(663.793 0.0138185 0)
(663.659 0.0239203 0)
(663.437 0.0414909 0)
(663.07 0.0721188 0)
(662.463 0.125617 0)
(661.458 0.219287 0)
(659.79 0.383612 0)
(657.024 0.672747 0)
(652.432 1.18213 0)
(644.827 2.08376 0)
(632.257 3.67603 0)
(611.81 6.51306 0)
(579.725 11.4676 0)
(664 8.69986e-15 0)
(664 9.0614e-15 0)
(664 3.20506e-14 0)
(664 7.03676e-14 0)
(664 7.28892e-14 0)
(664 6.55614e-14 0)
(664 4.52692e-14 0)
(664 9.20641e-15 0)
(664 -5.51391e-14 0)
(664 -1.23674e-13 0)
(664 -2.11791e-13 0)
(664 -2.66726e-13 0)
(664 -3.10877e-13 0)
(664 -3.49371e-13 0)
(664 -4.38301e-13 0)
(664 -5.48698e-13 0)
(664 -5.97204e-13 0)
(664 -5.71586e-13 0)
(664 -5.49145e-13 0)
(664 -5.76242e-13 0)
(664 -6.70786e-13 0)
(664 -8.08685e-13 0)
(664 -8.87473e-13 0)
(664 -8.17989e-13 0)
(664 -6.60142e-13 0)
(664 -4.9132e-13 0)
(664 -4.15937e-13 0)
(664 -3.98499e-13 0)
(664 -3.49469e-13 0)
(664 -3.09742e-13 0)
(664 -3.57741e-13 0)
(664 -4.50488e-13 0)
(664 -5.11859e-13 0)
(664 -5.332e-13 0)
(664 -5.57465e-13 0)
(664 -6.48506e-13 0)
(664 -7.77e-13 0)
(664 -8.30581e-13 0)
(664 -7.83032e-13 0)
(664 -6.86814e-13 0)
(664 -5.61669e-13 0)
(664 -4.15855e-13 0)
(664 -3.40634e-13 0)
(664 -4.07791e-13 0)
(664 -5.91845e-13 0)
(664 -7.68276e-13 0)
(664 -8.44265e-13 0)
(664 -8.15232e-13 0)
(664 -7.30872e-13 0)
(664 -6.52168e-13 0)
(664 -6.37011e-13 0)
(664 -6.78955e-13 0)
(664 -7.18808e-13 0)
(664 -7.68428e-13 0)
(664 -8.72657e-13 0)
(664 -9.90156e-13 0)
(664 -9.87228e-13 0)
(664 -9.19222e-13 0)
(664 -8.8429e-13 0)
(664 -8.55552e-13 0)
(664 -7.63468e-13 0)
(664 -6.81076e-13 0)
(664 -6.58633e-13 0)
(664 -6.95815e-13 0)
(664 -8.55068e-13 0)
(664 -1.11817e-12 0)
(664 -1.38127e-12 0)
(664 -1.55262e-12 0)
(664 -1.6066e-12 0)
(664 -1.6198e-12 0)
(664 -1.64712e-12 0)
(664 -1.62768e-12 0)
(664 -1.55011e-12 0)
(664 -1.41575e-12 0)
(664 -1.28321e-12 0)
(664 -1.11223e-12 0)
(664 -9.22278e-13 0)
(664 -8.14424e-13 0)
(664 -7.94967e-13 0)
(664 -8.4144e-13 0)
(664 -8.90522e-13 0)
(664 -8.90779e-13 0)
(664 -8.60631e-13 0)
(664 -9.07169e-13 0)
(664 -9.72322e-13 0)
(664 -9.89745e-13 0)
(664 -9.71229e-13 0)
(664 -9.68631e-13 0)
(664 -1.03472e-12 0)
(664 -1.1226e-12 0)
(664 -1.13246e-12 0)
(664 -1.04178e-12 0)
(664 -8.97468e-13 0)
(664 -7.57639e-13 0)
(664 -6.65483e-13 0)
(664 -6.58078e-13 0)
(664 -6.81087e-13 0)
(664 -6.80023e-13 0)
(664 -6.29739e-13 0)
(664 -6.49779e-13 0)
(664 -7.76618e-13 0)
(664 -9.24558e-13 0)
(664 -1.02122e-12 0)
(664 -1.04894e-12 0)
(664 -1.00591e-12 0)
(664 -9.91348e-13 0)
(664 -1.05564e-12 0)
(664 -1.14369e-12 0)
(664 -1.15605e-12 0)
(664 -1.12871e-12 0)
(664 -1.1275e-12 0)
(664 -1.11041e-12 0)
(664 -1.08305e-12 0)
(664 -1.1339e-12 0)
(664 -1.22485e-12 0)
(664 -1.24133e-12 0)
(664 -1.19077e-12 0)
(664 -1.09298e-12 0)
(664 -1.04686e-12 0)
(664 -1.09835e-12 0)
(664 -1.22549e-12 0)
(664 -1.39558e-12 0)
(664 -1.52593e-12 0)
(664 -1.55529e-12 0)
(664 -1.50731e-12 0)
(664 -1.45515e-12 0)
(664 -1.4127e-12 0)
(664 -1.32195e-12 0)
(664 -1.15508e-12 0)
(664 -9.02167e-13 0)
(664 -6.20921e-13 0)
(664 -4.12298e-13 0)
(664 -2.81102e-13 0)
(664 -2.02118e-13 0)
(664 -1.82959e-13 0)
(664 -2.41676e-13 0)
(664 -3.35852e-13 0)
(664 -4.47121e-13 0)
(664 -5.3944e-13 0)
(664 -5.80973e-13 0)
(664 -5.72387e-13 0)
(664 -6.06485e-13 0)
(664 -7.12805e-13 0)
(664 -8.23706e-13 0)
(664 -9.24181e-13 0)
(664 -9.76523e-13 0)
(664 -9.89778e-13 0)
(664 -9.94823e-13 0)
(664 -9.22808e-13 0)
(664 -7.90169e-13 0)
(664 -7.06003e-13 0)
(664 -7.55336e-13 0)
(664 -8.67368e-13 0)
(664 -9.34451e-13 0)
(664 -9.4862e-13 0)
(664 -8.95257e-13 0)
(664 -8.59653e-13 0)
(664 -8.98945e-13 0)
(664 -9.45608e-13 0)
(664 -9.19411e-13 0)
(664 -8.63936e-13 0)
(664 -8.64292e-13 0)
(664 -9.24862e-13 0)
(664 -1.01831e-12 0)
(664 -1.16374e-12 0)
(664 -1.29485e-12 0)
(664 -1.38363e-12 0)
(664 -1.44827e-12 0)
(664 -1.4719e-12 0)
(664 -1.40959e-12 0)
(664 -1.33691e-12 0)
(664 -1.34184e-12 0)
(664 -1.34147e-12 0)
(664 -1.27136e-12 0)
(664 -1.16952e-12 0)
(664 -1.08929e-12 0)
(664 -1.05628e-12 0)
(664 -1.08816e-12 0)
(664 -1.18731e-12 0)
(664 -1.36264e-12 0)
(664 -1.5193e-12 0)
(664 -1.59314e-12 0)
(664 -1.58413e-12 0)
(664 -1.46413e-12 0)
(664 -1.2895e-12 0)
(664 -1.17285e-12 0)
(664 -1.13628e-12 0)
(664 -1.15047e-12 0)
(664 -1.20439e-12 0)
(664 -1.22988e-12 0)
(664 -1.1963e-12 0)
(664 -1.13389e-12 0)
(664 -1.04846e-12 0)
(664 -9.71353e-13 0)
(664 -9.29309e-13 0)
(664 -9.47005e-13 0)
(664 -9.8114e-13 0)
(664 -9.84803e-13 0)
(664 -1.03003e-12 0)
(664 -1.12724e-12 0)
(664 -1.18481e-12 0)
(664 -1.17722e-12 0)
(664 -1.16383e-12 0)
(664 -1.18662e-12 0)
(664 -1.21452e-12 0)
(664 -1.24094e-12 0)
(664 -1.22811e-12 0)
(664 -1.20998e-12 0)
(664 -1.18956e-12 0)
(664 -1.22785e-12 0)
(664 -1.30757e-12 0)
(664 -1.41084e-12 0)
(664 -1.48129e-12 0)
(664 -1.50983e-12 0)
(664 -1.44902e-12 0)
(664 -1.28558e-12 0)
(664 -1.11492e-12 0)
(664 -1.09877e-12 0)
(664 -1.23216e-12 0)
(664 -1.32463e-12 0)
(664 -1.31804e-12 0)
(664 -1.30985e-12 0)
(664 -1.30069e-12 0)
(664 -1.2574e-12 0)
(664 -1.17806e-12 0)
(664 -1.05905e-12 0)
(664 -8.94435e-13 0)
(664 -7.67185e-13 0)
(664 -6.252e-13 0)
(664 -5.39394e-13 0)
(664 -5.62909e-13 0)
(664 -7.0579e-13 0)
(664 -9.11832e-13 0)
(664 -1.14303e-12 0)
(664 -1.38088e-12 0)
(664 -1.56693e-12 0)
(664 -1.66962e-12 0)
(664 -1.72309e-12 0)
(664 -1.71539e-12 0)
(664 -1.56305e-12 0)
(664 -1.12078e-12 0)
(664 -2.71674e-13 0)
(664 1.04155e-12 0)
(664 3.03051e-12 0)
(664 6.15835e-12 0)
(664 1.12784e-11 0)
(664 1.97352e-11 0)
(664 3.36739e-11 0)
(664 5.66782e-11 0)
(664 9.46311e-11 0)
(664 1.57311e-10 0)
(664 2.61068e-10 0)
(664 4.33054e-10 0)
(664 7.18203e-10 0)
(664 1.19104e-09 0)
(664 1.97535e-09 0)
(664 3.27695e-09 0)
(664 5.43831e-09 0)
(664 9.0292e-09 0)
(664 1.49981e-08 0)
(664 2.49254e-08 0)
(664 4.14454e-08 0)
(664 6.89522e-08 0)
(664 1.1478e-07 0)
(664 1.91178e-07 0)
(664 3.1862e-07 0)
(664 5.31349e-07 0)
(664 8.86684e-07 0)
(664 1.48064e-06 0)
(664 2.47417e-06 0)
(664 4.13733e-06 0)
(664 6.9236e-06 0)
(664 1.15951e-05 0)
(664 1.94339e-05 0)
(664 3.25986e-05 0)
(664 5.47271e-05 0)
(663.999 9.19563e-05 0)
(663.999 0.000154649 0)
(663.998 0.000260323 0)
(663.997 0.000438621 0)
(663.995 0.000739756 0)
(663.991 0.00124888 0)
(663.985 0.00211058 0)
(663.976 0.00357059 0)
(663.961 0.0060471 0)
(663.937 0.0102526 0)
(663.898 0.0174027 0)
(663.833 0.0295731 0)
(663.729 0.0503141 0)
(663.559 0.0857037 0)
(663.282 0.146163 0)
(662.834 0.249572 0)
(662.108 0.42667 0)
(660.933 0.730257 0)
(659.035 1.25137 0)
(655.984 2.14589 0)
(651.097 3.68321 0)
(643.366 6.31445 0)
(631.256 10.8144 0)
(613.633 18.3333 0)
(664 -8.68073e-15 0)
(664 -8.71927e-15 0)
(664 -3.31436e-16 0)
(664 1.01741e-14 0)
(664 5.09855e-14 0)
(664 9.36477e-14 0)
(664 1.0694e-13 0)
(664 7.05869e-14 0)
(664 -1.666e-15 0)
(664 -1.20825e-13 0)
(664 -1.99492e-13 0)
(664 -2.10177e-13 0)
(664 -2.15981e-13 0)
(664 -2.2979e-13 0)
(664 -1.89024e-13 0)
(664 -1.49038e-13 0)
(664 -1.59772e-13 0)
(664 -2.46513e-13 0)
(664 -3.18883e-13 0)
(664 -3.51425e-13 0)
(664 -3.45583e-13 0)
(664 -3.19491e-13 0)
(664 -3.42808e-13 0)
(664 -4.26771e-13 0)
(664 -4.83113e-13 0)
(664 -5.05965e-13 0)
(664 -5.02397e-13 0)
(664 -5.03424e-13 0)
(664 -5.48419e-13 0)
(664 -5.61186e-13 0)
(664 -5.26229e-13 0)
(664 -4.72734e-13 0)
(664 -3.79652e-13 0)
(664 -2.7175e-13 0)
(664 -2.49319e-13 0)
(664 -3.04895e-13 0)
(664 -3.57723e-13 0)
(664 -3.87328e-13 0)
(664 -4.12873e-13 0)
(664 -4.60595e-13 0)
(664 -5.24914e-13 0)
(664 -5.83585e-13 0)
(664 -5.95332e-13 0)
(664 -5.57288e-13 0)
(664 -4.51342e-13 0)
(664 -3.43554e-13 0)
(664 -3.24856e-13 0)
(664 -3.17971e-13 0)
(664 -3.13018e-13 0)
(664 -3.77356e-13 0)
(664 -4.4781e-13 0)
(664 -4.15873e-13 0)
(664 -3.68315e-13 0)
(664 -3.51907e-13 0)
(664 -4.15377e-13 0)
(664 -5.14276e-13 0)
(664 -5.89394e-13 0)
(664 -6.5618e-13 0)
(664 -7.11873e-13 0)
(664 -7.40821e-13 0)
(664 -7.66398e-13 0)
(664 -8.11885e-13 0)
(664 -9.06017e-13 0)
(664 -9.59459e-13 0)
(664 -9.07493e-13 0)
(664 -8.29509e-13 0)
(664 -8.41165e-13 0)
(664 -8.90021e-13 0)
(664 -9.29593e-13 0)
(664 -9.46293e-13 0)
(664 -9.45388e-13 0)
(664 -8.95409e-13 0)
(664 -7.69602e-13 0)
(664 -6.22763e-13 0)
(664 -4.41753e-13 0)
(664 -2.26951e-13 0)
(664 -4.45608e-14 0)
(664 3.75167e-14 0)
(664 -1.33527e-14 0)
(664 -9.58099e-14 0)
(664 -2.67277e-13 0)
(664 -5.34307e-13 0)
(664 -7.03301e-13 0)
(664 -6.69763e-13 0)
(664 -6.15891e-13 0)
(664 -6.17683e-13 0)
(664 -6.57713e-13 0)
(664 -7.7453e-13 0)
(664 -9.68944e-13 0)
(664 -1.1787e-12 0)
(664 -1.37859e-12 0)
(664 -1.53835e-12 0)
(664 -1.5963e-12 0)
(664 -1.55159e-12 0)
(664 -1.48221e-12 0)
(664 -1.46062e-12 0)
(664 -1.52612e-12 0)
(664 -1.62517e-12 0)
(664 -1.6647e-12 0)
(664 -1.6348e-12 0)
(664 -1.6015e-12 0)
(664 -1.57167e-12 0)
(664 -1.57046e-12 0)
(664 -1.62124e-12 0)
(664 -1.69199e-12 0)
(664 -1.73054e-12 0)
(664 -1.72257e-12 0)
(664 -1.6673e-12 0)
(664 -1.55985e-12 0)
(664 -1.36476e-12 0)
(664 -1.16112e-12 0)
(664 -9.86754e-13 0)
(664 -9.29738e-13 0)
(664 -9.47344e-13 0)
(664 -9.47481e-13 0)
(664 -8.91094e-13 0)
(664 -8.4893e-13 0)
(664 -8.53783e-13 0)
(664 -9.015e-13 0)
(664 -9.59871e-13 0)
(664 -1.00053e-12 0)
(664 -1.02663e-12 0)
(664 -1.07788e-12 0)
(664 -1.11661e-12 0)
(664 -1.17882e-12 0)
(664 -1.2352e-12 0)
(664 -1.25582e-12 0)
(664 -1.23418e-12 0)
(664 -1.18634e-12 0)
(664 -1.10356e-12 0)
(664 -1.05127e-12 0)
(664 -1.02736e-12 0)
(664 -1.00574e-12 0)
(664 -9.59686e-13 0)
(664 -8.83381e-13 0)
(664 -7.50766e-13 0)
(664 -6.489e-13 0)
(664 -6.1475e-13 0)
(664 -6.19912e-13 0)
(664 -6.07685e-13 0)
(664 -6.325e-13 0)
(664 -6.64269e-13 0)
(664 -6.82872e-13 0)
(664 -7.59981e-13 0)
(664 -9.17603e-13 0)
(664 -1.08732e-12 0)
(664 -1.23679e-12 0)
(664 -1.40711e-12 0)
(664 -1.58417e-12 0)
(664 -1.65415e-12 0)
(664 -1.6406e-12 0)
(664 -1.60796e-12 0)
(664 -1.57614e-12 0)
(664 -1.47681e-12 0)
(664 -1.29728e-12 0)
(664 -1.10322e-12 0)
(664 -9.78353e-13 0)
(664 -9.46622e-13 0)
(664 -9.10937e-13 0)
(664 -8.63608e-13 0)
(664 -8.36866e-13 0)
(664 -8.75254e-13 0)
(664 -9.68674e-13 0)
(664 -1.11463e-12 0)
(664 -1.23999e-12 0)
(664 -1.26494e-12 0)
(664 -1.22266e-12 0)
(664 -1.18248e-12 0)
(664 -1.19871e-12 0)
(664 -1.27841e-12 0)
(664 -1.40295e-12 0)
(664 -1.50716e-12 0)
(664 -1.58016e-12 0)
(664 -1.62497e-12 0)
(664 -1.59356e-12 0)
(664 -1.48171e-12 0)
(664 -1.37458e-12 0)
(664 -1.2829e-12 0)
(664 -1.23779e-12 0)
(664 -1.21482e-12 0)
(664 -1.22127e-12 0)
(664 -1.23527e-12 0)
(664 -1.22625e-12 0)
(664 -1.21547e-12 0)
(664 -1.21302e-12 0)
(664 -1.17224e-12 0)
(664 -1.09354e-12 0)
(664 -1.04826e-12 0)
(664 -1.01818e-12 0)
(664 -1.00909e-12 0)
(664 -1.03814e-12 0)
(664 -1.10205e-12 0)
(664 -1.15596e-12 0)
(664 -1.06908e-12 0)
(664 -8.37147e-13 0)
(664 -5.55378e-13 0)
(664 -2.94098e-13 0)
(664 -1.81524e-13 0)
(664 -2.66237e-13 0)
(664 -4.6871e-13 0)
(664 -6.49352e-13 0)
(664 -8.0351e-13 0)
(664 -9.55401e-13 0)
(664 -1.1141e-12 0)
(664 -1.24184e-12 0)
(664 -1.27747e-12 0)
(664 -1.23332e-12 0)
(664 -1.12063e-12 0)
(664 -9.73769e-13 0)
(664 -8.75067e-13 0)
(664 -8.42536e-13 0)
(664 -7.43175e-13 0)
(664 -5.63126e-13 0)
(664 -3.64477e-13 0)
(664 -2.15522e-13 0)
(664 -1.30044e-13 0)
(664 -1.85542e-13 0)
(664 -3.9225e-13 0)
(664 -6.69474e-13 0)
(664 -8.9212e-13 0)
(664 -1.02123e-12 0)
(664 -1.10579e-12 0)
(664 -1.14942e-12 0)
(664 -1.17482e-12 0)
(664 -1.18367e-12 0)
(664 -1.14448e-12 0)
(664 -1.06666e-12 0)
(664 -9.42986e-13 0)
(664 -8.1618e-13 0)
(664 -7.73292e-13 0)
(664 -8.17011e-13 0)
(664 -9.25776e-13 0)
(664 -1.0757e-12 0)
(664 -1.21285e-12 0)
(664 -1.26994e-12 0)
(664 -1.24035e-12 0)
(664 -1.15624e-12 0)
(664 -1.02145e-12 0)
(664 -7.31858e-13 0)
(664 -1.63404e-13 0)
(664 7.24774e-13 0)
(664 1.99417e-12 0)
(664 3.83196e-12 0)
(664 6.62455e-12 0)
(664 1.10368e-11 0)
(664 1.81841e-11 0)
(664 3.00482e-11 0)
(664 4.97986e-11 0)
(664 8.26019e-11 0)
(664 1.36873e-10 0)
(664 2.26573e-10 0)
(664 3.74716e-10 0)
(664 6.19381e-10 0)
(664 1.02344e-09 0)
(664 1.6907e-09 0)
(664 2.7928e-09 0)
(664 4.61374e-09 0)
(664 7.62337e-09 0)
(664 1.25992e-08 0)
(664 2.08281e-08 0)
(664 3.44408e-08 0)
(664 5.69661e-08 0)
(664 9.425e-08 0)
(664 1.5598e-07 0)
(664 2.58215e-07 0)
(664 4.2758e-07 0)
(664 7.08236e-07 0)
(664 1.17344e-06 0)
(664 1.94478e-06 0)
(664 3.22405e-06 0)
(664 5.34629e-06 0)
(664 8.86792e-06 0)
(664 1.47132e-05 0)
(664 2.44177e-05 0)
(664 4.05331e-05 0)
(664 6.73004e-05 0)
(663.999 0.000111769 0)
(663.999 0.00018566 0)
(663.998 0.000308457 0)
(663.997 0.000512557 0)
(663.996 0.000851827 0)
(663.993 0.00141582 0)
(663.989 0.00235341 0)
(663.982 0.00391205 0)
(663.97 0.0065029 0)
(663.952 0.010809 0)
(663.923 0.0179643 0)
(663.876 0.0298507 0)
(663.8 0.0495887 0)
(663.679 0.0823483 0)
(663.484 0.136684 0)
(663.171 0.226735 0)
(662.67 0.375817 0)
(661.871 0.6223 0)
(660.598 1.02906 0)
(658.579 1.69877 0)
(655.39 2.79715 0)
(650.409 4.58987 0)
(642.662 7.48516 0)
(631.394 12.1026 0)
(664 -1.73423e-14 0)
(664 -1.70443e-14 0)
(664 -2.11345e-14 0)
(664 -2.04889e-14 0)
(664 -3.21748e-14 0)
(664 -5.71428e-14 0)
(664 -7.18415e-14 0)
(664 -8.29065e-15 0)
(664 9.28785e-14 0)
(664 1.25351e-13 0)
(664 8.80795e-14 0)
(664 6.25893e-15 0)
(664 -5.14823e-14 0)
(664 -9.04929e-14 0)
(664 -1.73019e-13 0)
(664 -2.84323e-13 0)
(664 -4.53798e-13 0)
(664 -6.41893e-13 0)
(664 -7.33393e-13 0)
(664 -7.37979e-13 0)
(664 -6.68496e-13 0)
(664 -5.80243e-13 0)
(664 -5.20869e-13 0)
(664 -5.30562e-13 0)
(664 -6.15643e-13 0)
(664 -7.42322e-13 0)
(664 -7.96115e-13 0)
(664 -7.78453e-13 0)
(664 -7.58934e-13 0)
(664 -7.43377e-13 0)
(664 -6.57233e-13 0)
(664 -5.18495e-13 0)
(664 -4.3899e-13 0)
(664 -4.57247e-13 0)
(664 -5.22363e-13 0)
(664 -5.52083e-13 0)
(664 -5.65804e-13 0)
(664 -6.19919e-13 0)
(664 -6.9734e-13 0)
(664 -7.44146e-13 0)
(664 -7.97397e-13 0)
(664 -8.68852e-13 0)
(664 -8.5598e-13 0)
(664 -7.10016e-13 0)
(664 -5.36222e-13 0)
(664 -4.193e-13 0)
(664 -3.93636e-13 0)
(664 -5.00701e-13 0)
(664 -7.52855e-13 0)
(664 -1.00904e-12 0)
(664 -1.11787e-12 0)
(664 -1.03695e-12 0)
(664 -8.57101e-13 0)
(664 -6.87516e-13 0)
(664 -5.19722e-13 0)
(664 -3.90738e-13 0)
(664 -4.07847e-13 0)
(664 -6.03027e-13 0)
(664 -8.06251e-13 0)
(664 -9.12895e-13 0)
(664 -9.48963e-13 0)
(664 -9.69095e-13 0)
(664 -1.02942e-12 0)
(664 -1.03784e-12 0)
(664 -8.66122e-13 0)
(664 -5.90658e-13 0)
(664 -4.22186e-13 0)
(664 -4.34195e-13 0)
(664 -5.49157e-13 0)
(664 -5.89325e-13 0)
(664 -4.96585e-13 0)
(664 -4.01976e-13 0)
(664 -3.70584e-13 0)
(664 -3.88464e-13 0)
(664 -4.16873e-13 0)
(664 -4.78382e-13 0)
(664 -5.97892e-13 0)
(664 -6.87938e-13 0)
(664 -6.77506e-13 0)
(664 -6.64138e-13 0)
(664 -6.93004e-13 0)
(664 -7.19571e-13 0)
(664 -7.45971e-13 0)
(664 -7.98015e-13 0)
(664 -8.58178e-13 0)
(664 -8.98722e-13 0)
(664 -9.29811e-13 0)
(664 -9.92791e-13 0)
(664 -1.07484e-12 0)
(664 -1.127e-12 0)
(664 -1.13465e-12 0)
(664 -1.1642e-12 0)
(664 -1.24168e-12 0)
(664 -1.29088e-12 0)
(664 -1.22768e-12 0)
(664 -1.06638e-12 0)
(664 -9.03015e-13 0)
(664 -7.76171e-13 0)
(664 -7.02525e-13 0)
(664 -6.50127e-13 0)
(664 -5.849e-13 0)
(664 -5.1538e-13 0)
(664 -4.72245e-13 0)
(664 -5.15297e-13 0)
(664 -6.88661e-13 0)
(664 -8.69574e-13 0)
(664 -9.29239e-13 0)
(664 -9.16543e-13 0)
(664 -9.56091e-13 0)
(664 -1.00267e-12 0)
(664 -9.77473e-13 0)
(664 -9.43708e-13 0)
(664 -9.12255e-13 0)
(664 -8.2548e-13 0)
(664 -8.02073e-13 0)
(664 -8.68823e-13 0)
(664 -9.2409e-13 0)
(664 -8.87641e-13 0)
(664 -8.14785e-13 0)
(664 -7.22583e-13 0)
(664 -6.35744e-13 0)
(664 -6.04186e-13 0)
(664 -6.46517e-13 0)
(664 -7.31766e-13 0)
(664 -7.52031e-13 0)
(664 -7.06878e-13 0)
(664 -7.10652e-13 0)
(664 -7.95851e-13 0)
(664 -8.90142e-13 0)
(664 -9.71946e-13 0)
(664 -1.08692e-12 0)
(664 -1.23552e-12 0)
(664 -1.36428e-12 0)
(664 -1.48129e-12 0)
(664 -1.60367e-12 0)
(664 -1.70687e-12 0)
(664 -1.77671e-12 0)
(664 -1.79232e-12 0)
(664 -1.72241e-12 0)
(664 -1.60345e-12 0)
(664 -1.41822e-12 0)
(664 -1.18509e-12 0)
(664 -1.00573e-12 0)
(664 -9.34586e-13 0)
(664 -9.72189e-13 0)
(664 -1.14535e-12 0)
(664 -1.37275e-12 0)
(664 -1.50386e-12 0)
(664 -1.50761e-12 0)
(664 -1.45642e-12 0)
(664 -1.41592e-12 0)
(664 -1.39576e-12 0)
(664 -1.36679e-12 0)
(664 -1.31695e-12 0)
(664 -1.26193e-12 0)
(664 -1.24192e-12 0)
(664 -1.24399e-12 0)
(664 -1.20432e-12 0)
(664 -1.16999e-12 0)
(664 -1.19258e-12 0)
(664 -1.22119e-12 0)
(664 -1.183e-12 0)
(664 -1.09908e-12 0)
(664 -1.05074e-12 0)
(664 -1.04564e-12 0)
(664 -1.06896e-12 0)
(664 -1.05863e-12 0)
(664 -1.03394e-12 0)
(664 -1.05677e-12 0)
(664 -1.15333e-12 0)
(664 -1.24122e-12 0)
(664 -1.28226e-12 0)
(664 -1.32151e-12 0)
(664 -1.4162e-12 0)
(664 -1.59828e-12 0)
(664 -1.80356e-12 0)
(664 -1.89821e-12 0)
(664 -1.87644e-12 0)
(664 -1.75256e-12 0)
(664 -1.60159e-12 0)
(664 -1.46707e-12 0)
(664 -1.38248e-12 0)
(664 -1.37005e-12 0)
(664 -1.42143e-12 0)
(664 -1.48692e-12 0)
(664 -1.51569e-12 0)
(664 -1.48777e-12 0)
(664 -1.39067e-12 0)
(664 -1.28083e-12 0)
(664 -1.19194e-12 0)
(664 -1.17037e-12 0)
(664 -1.18575e-12 0)
(664 -1.24727e-12 0)
(664 -1.37351e-12 0)
(664 -1.54123e-12 0)
(664 -1.69276e-12 0)
(664 -1.77882e-12 0)
(664 -1.81662e-12 0)
(664 -1.81983e-12 0)
(664 -1.77424e-12 0)
(664 -1.68562e-12 0)
(664 -1.61709e-12 0)
(664 -1.54716e-12 0)
(664 -1.42942e-12 0)
(664 -1.28472e-12 0)
(664 -1.14703e-12 0)
(664 -1.09188e-12 0)
(664 -1.09488e-12 0)
(664 -1.05865e-12 0)
(664 -9.38519e-13 0)
(664 -7.78652e-13 0)
(664 -6.89873e-13 0)
(664 -6.90302e-13 0)
(664 -7.21407e-13 0)
(664 -7.6977e-13 0)
(664 -9.4136e-13 0)
(664 -1.18922e-12 0)
(664 -1.36505e-12 0)
(664 -1.36316e-12 0)
(664 -1.18826e-12 0)
(664 -1.0168e-12 0)
(664 -8.56119e-13 0)
(664 -7.97825e-13 0)
(664 -8.86701e-13 0)
(664 -1.09115e-12 0)
(664 -1.30711e-12 0)
(664 -1.5486e-12 0)
(664 -1.83655e-12 0)
(664 -2.11204e-12 0)
(664 -2.27667e-12 0)
(664 -2.31268e-12 0)
(664 -2.18186e-12 0)
(664 -1.95695e-12 0)
(664 -1.72285e-12 0)
(664 -1.50661e-12 0)
(664 -1.30434e-12 0)
(664 -1.09358e-12 0)
(664 -8.27459e-13 0)
(664 -4.81564e-13 0)
(664 4.15271e-14 0)
(664 8.01052e-13 0)
(664 1.95856e-12 0)
(664 3.87559e-12 0)
(664 7.12829e-12 0)
(664 1.25238e-11 0)
(664 2.12461e-11 0)
(664 3.53106e-11 0)
(664 5.822e-11 0)
(664 9.5765e-11 0)
(664 1.57522e-10 0)
(664 2.59199e-10 0)
(664 4.26471e-10 0)
(664 7.01478e-10 0)
(664 1.15361e-09 0)
(664 1.89692e-09 0)
(664 3.11896e-09 0)
(664 5.12819e-09 0)
(664 8.43192e-09 0)
(664 1.38645e-08 0)
(664 2.27986e-08 0)
(664 3.74919e-08 0)
(664 6.1659e-08 0)
(664 1.01411e-07 0)
(664 1.66801e-07 0)
(664 2.74368e-07 0)
(664 4.51325e-07 0)
(664 7.42435e-07 0)
(664 1.22134e-06 0)
(664 2.00919e-06 0)
(664 3.30523e-06 0)
(664 5.43719e-06 0)
(664 8.94398e-06 0)
(664 1.47117e-05 0)
(664 2.4197e-05 0)
(664 3.97939e-05 0)
(664 6.54361e-05 0)
(664 0.000107585 0)
(663.999 0.000176851 0)
(663.999 0.000290649 0)
(663.998 0.000477553 0)
(663.997 0.000784416 0)
(663.995 0.00128803 0)
(663.992 0.00211415 0)
(663.987 0.0034686 0)
(663.979 0.00568796 0)
(663.966 0.00932206 0)
(663.946 0.0152682 0)
(663.913 0.0249891 0)
(663.861 0.0408654 0)
(663.778 0.0667665 0)
(663.646 0.108969 0)
(663.437 0.177634 0)
(663.105 0.289163 0)
(662.579 0.469962 0)
(661.748 0.762307 0)
(660.441 1.23369 0)
(658.386 1.99031 0)
(655.187 3.19923 0)
(650.204 5.1106 0)
(642.89 8.10853 0)
(664 2.604e-14 0)
(664 6.07002e-14 0)
(664 8.89394e-14 0)
(664 1.18256e-13 0)
(664 1.35693e-13 0)
(664 1.37661e-13 0)
(664 1.67688e-13 0)
(664 2.09784e-13 0)
(664 2.44937e-13 0)
(664 3.03901e-13 0)
(664 3.06719e-13 0)
(664 2.51672e-13 0)
(664 1.716e-13 0)
(664 7.45958e-14 0)
(664 1.81781e-15 0)
(664 2.47817e-14 0)
(664 1.03733e-13 0)
(664 1.6376e-13 0)
(664 1.67339e-13 0)
(664 1.55786e-13 0)
(664 1.36333e-13 0)
(664 5.20046e-14 0)
(664 -8.76794e-14 0)
(664 -2.46585e-13 0)
(664 -3.6493e-13 0)
(664 -4.01111e-13 0)
(664 -4.04125e-13 0)
(664 -4.22214e-13 0)
(664 -4.36461e-13 0)
(664 -4.1631e-13 0)
(664 -4.01125e-13 0)
(664 -3.71812e-13 0)
(664 -3.33059e-13 0)
(664 -3.20924e-13 0)
(664 -3.30819e-13 0)
(664 -3.65856e-13 0)
(664 -4.04507e-13 0)
(664 -4.24816e-13 0)
(664 -4.48696e-13 0)
(664 -4.65473e-13 0)
(664 -4.36041e-13 0)
(664 -4.3342e-13 0)
(664 -4.86827e-13 0)
(664 -5.35257e-13 0)
(664 -5.80375e-13 0)
(664 -6.54369e-13 0)
(664 -6.91687e-13 0)
(664 -7.25115e-13 0)
(664 -7.69772e-13 0)
(664 -8.16168e-13 0)
(664 -9.3228e-13 0)
(664 -1.10719e-12 0)
(664 -1.23127e-12 0)
(664 -1.31163e-12 0)
(664 -1.34591e-12 0)
(664 -1.30935e-12 0)
(664 -1.22732e-12 0)
(664 -1.14828e-12 0)
(664 -1.13344e-12 0)
(664 -1.1874e-12 0)
(664 -1.26412e-12 0)
(664 -1.31425e-12 0)
(664 -1.26951e-12 0)
(664 -1.15915e-12 0)
(664 -1.04426e-12 0)
(664 -9.23874e-13 0)
(664 -7.54229e-13 0)
(664 -5.76586e-13 0)
(664 -3.55695e-13 0)
(664 -1.32859e-13 0)
(664 1.03628e-14 0)
(664 4.51205e-14 0)
(664 -9.09127e-15 0)
(664 -9.4521e-14 0)
(664 -1.99743e-13 0)
(664 -3.11452e-13 0)
(664 -4.50185e-13 0)
(664 -5.9533e-13 0)
(664 -6.4489e-13 0)
(664 -5.96341e-13 0)
(664 -4.98408e-13 0)
(664 -4.61888e-13 0)
(664 -5.81469e-13 0)
(664 -7.46266e-13 0)
(664 -7.49549e-13 0)
(664 -6.1444e-13 0)
(664 -5.27777e-13 0)
(664 -5.46114e-13 0)
(664 -5.85134e-13 0)
(664 -6.27387e-13 0)
(664 -6.44809e-13 0)
(664 -6.18588e-13 0)
(664 -5.54044e-13 0)
(664 -5.28313e-13 0)
(664 -5.70832e-13 0)
(664 -6.81494e-13 0)
(664 -7.50303e-13 0)
(664 -7.39604e-13 0)
(664 -7.13528e-13 0)
(664 -7.43794e-13 0)
(664 -8.12436e-13 0)
(664 -9.35881e-13 0)
(664 -1.07235e-12 0)
(664 -1.11943e-12 0)
(664 -1.06236e-12 0)
(664 -1.00619e-12 0)
(664 -1.0177e-12 0)
(664 -1.0734e-12 0)
(664 -1.10778e-12 0)
(664 -1.14153e-12 0)
(664 -1.20539e-12 0)
(664 -1.25375e-12 0)
(664 -1.25533e-12 0)
(664 -1.29958e-12 0)
(664 -1.39091e-12 0)
(664 -1.4947e-12 0)
(664 -1.5399e-12 0)
(664 -1.50866e-12 0)
(664 -1.38317e-12 0)
(664 -1.19546e-12 0)
(664 -9.84233e-13 0)
(664 -8.06716e-13 0)
(664 -7.26103e-13 0)
(664 -7.97632e-13 0)
(664 -9.63561e-13 0)
(664 -1.17281e-12 0)
(664 -1.36165e-12 0)
(664 -1.52546e-12 0)
(664 -1.65536e-12 0)
(664 -1.73971e-12 0)
(664 -1.71248e-12 0)
(664 -1.56941e-12 0)
(664 -1.41792e-12 0)
(664 -1.2986e-12 0)
(664 -1.23031e-12 0)
(664 -1.20112e-12 0)
(664 -1.14587e-12 0)
(664 -1.11111e-12 0)
(664 -1.13572e-12 0)
(664 -1.19569e-12 0)
(664 -1.26242e-12 0)
(664 -1.37935e-12 0)
(664 -1.50457e-12 0)
(664 -1.56015e-12 0)
(664 -1.56088e-12 0)
(664 -1.58592e-12 0)
(664 -1.64016e-12 0)
(664 -1.65688e-12 0)
(664 -1.61834e-12 0)
(664 -1.60109e-12 0)
(664 -1.58681e-12 0)
(664 -1.50761e-12 0)
(664 -1.39115e-12 0)
(664 -1.3099e-12 0)
(664 -1.2139e-12 0)
(664 -1.08353e-12 0)
(664 -9.2652e-13 0)
(664 -7.71187e-13 0)
(664 -6.47349e-13 0)
(664 -5.78051e-13 0)
(664 -5.50204e-13 0)
(664 -5.10859e-13 0)
(664 -4.69958e-13 0)
(664 -4.2335e-13 0)
(664 -4.52936e-13 0)
(664 -5.83356e-13 0)
(664 -7.42682e-13 0)
(664 -9.37345e-13 0)
(664 -1.09018e-12 0)
(664 -1.16367e-12 0)
(664 -1.14887e-12 0)
(664 -1.08019e-12 0)
(664 -1.0432e-12 0)
(664 -1.05942e-12 0)
(664 -1.15119e-12 0)
(664 -1.20917e-12 0)
(664 -1.16836e-12 0)
(664 -1.07778e-12 0)
(664 -1.04954e-12 0)
(664 -1.07967e-12 0)
(664 -1.16172e-12 0)
(664 -1.2969e-12 0)
(664 -1.47796e-12 0)
(664 -1.63217e-12 0)
(664 -1.75718e-12 0)
(664 -1.86876e-12 0)
(664 -1.87681e-12 0)
(664 -1.74768e-12 0)
(664 -1.50248e-12 0)
(664 -1.25085e-12 0)
(664 -1.02979e-12 0)
(664 -8.05855e-13 0)
(664 -5.23827e-13 0)
(664 -3.96506e-13 0)
(664 -5.27682e-13 0)
(664 -7.90489e-13 0)
(664 -1.08485e-12 0)