/*--------------------------------*- C++ -*----------------------------------*\
| =========                 |                                                 |
| \\      /  F ield         | OpenFOAM: The Open Source CFD Toolbox           |
|  \\    /   O peration     | Version:  2412                                  |
|   \\  /    A nd           | Website:  www.openfoam.com                      |
|    \\/     M anipulation  |                                                 |
\*---------------------------------------------------------------------------*/
FoamFile
{
    version     2.0;
    format      ascii;
    arch        "LSB;label=32;scalar=64";
    class       volScalarField;
    location    "5";
    object      p;
}
// * * * * * * * * * * * * * * * * * * * * * * * * * * * * * * * * * * * * * //

dimensions      [0 2 -2 0 0 0 0];

internalField   nonuniform List<scalar> 
20000
(
935037
-472211
-252166
-168571
-96314.3
-39870.1
4245.37
39822.2
70113.5
96527.8
119498
139559
157289
173320
188189
202249
215712
228754
241539
254187
266761
279265
291646
303808
315622
326956
337689
347726
357009
365514
373254
380275
386643
392433
397715
402566
407087
411422
415734
420146
424672
429200
433547
437572
441241
444567
447503
450010
452165
454176
456087
457780
459056
459979
460875
461962
463252
464712
466355
468246
470292
472286
474101
475849
477631
479457
481306
483162
485057
487067
489243
491577
493981
496319
498488
500467
502326
504178
506139
508308
510762
513555
516678
520034
523469
526840
530069
533137
536053
538833
541484
544007
546397
548664
550842
552964
555055
557140
559272
561544
461712
-270817
-201721
-171766
-126463
-70849.1
-19172.9
27519.9
69038
102586
127457
146684
162470
176443
189593
202445
215268
228197
241263
254398
267473
280303
292692
304479
315567
325935
335621
344704
353263
361364
369044
376326
383226
389757
395918
401704
407116
412178
416940
421453
425733
429744
433436
436800
439844
442562
444946
447036
448894
450583
452116
453501
454800
456108
457507
459072
460800
462698
464720
466777
468802
470779
472718
474650
476600
478579
480588
482628
484719
486897
489176
491525
493876
496150
498291
500291
502202
504100
506077
508243
510694
513470
516551
519859
523282
526705
530039
533226
536241
539074
541723
544185
546469
548595
550591
552488
554309
556079
557820
559571
185752
-129278
-162869
-84092.7
506.743
57859.9
86079.5
103387
122331
140253
153702
164779
174673
184471
194691
205668
217499
230048
243045
256150
269032
281431
293168
304171
314459
324112
333244
341963
350351
358452
366278
373822
381070
388002
394591
400805
406613
411989
416925
421426
425495
429146
432397
435274
437815
440070
442094
443926
445608
447219
448826
450439
452055
453694
455392
457197
459123
461148
463210
465276
467355
469445
471546
473664
475803
477956
480115
482287
484499
486767
489083
491425
493763
496065
498300
500451
502525
504560
506618
508785
511156
513787
516678
519792
523069
526438
529815
533112
536259
539205
541922
544405
546662
548722
550623
552406
554115
555788
557448
559135
-76152.6
-210758
-125632
-7450.27
69842.6
106652
135210
167432
191637
199332
195584
192242
191921
194927
200900
209332
219589
231004
242968
255020
266846
278266
289205
299658
309676
319331
328699
337827
346735
355410
363814
371892
379586
386842
393616
399872
405591
410770
415426
419588
423287
426563
429458
432030
434350
436471
438447
440346
442216
444067
445913
447779
449681
451607
453545
455518
457548
459634
461765
463926
466109
468309
470525
472758
475006
477262
479527
481806
484100
486405
488732
491099
493513
495948
498367
500738
503042
505283
507491
509716
512018
514461
517090
519916
522919
526055
529271
532507
535700
538782
541688
544374
546822
549048
551082
552966
554736
556421
558041
559647
-469723
-810226
-577381
-280667
-80341.5
45285.4
132883
189107
210851
206034
193820
187375
186230
189305
195623
204101
213892
224509
235611
246932
258273
269492
280517
291320
301902
312272
322431
332364
342039
351402
360381
368896
376873
384255
391010
397125
402616
407517
411871
415736
419170
422244
425037
427595
429987
432296
434552
436754
438929
441105
443274
445423
447558
449694
451839
454002
456189
458402
460640
462899
465176
467468
469777
472100
474437
476786
479145
481513
483893
486289
488708
491155
493636
496146
498662
501156
503602
505993
508335
510647
512956
515301
517725
520270
522957
525780
528719
531747
534827
537915
540956
543893
546668
549243
551604
553756
555716
557507
559151
560716
-1.07704e+06
-1.81776e+06
-1.49286e+06
-895941
-421332
-158575
-15409.6
63351.9
101912
115331
123875
134829
146082
157496
168887
180240
191931
204167
216816
229663
242524
255271
267824
280127
292137
303820
315142
326063
336526
346460
355788
364443
372400
379655
386223
392126
397405
402124
406337
410130
413594
416778
419762
422620
425361
428012
430620
433190
435706
438171
440600
443000
445378
447742
450097
452451
454808
457174
459550
461937
464334
466740
469158
471587
474028
476480
478941
481411
483891
486383
488888
491408
493945
496496
499053
501600
504119
506598
509034
511436
513816
516188
518570
520992
523486
526076
528777
531591
534506
537503
540550
543604
546604
549479
552162
554608
556806
558772
560524
562124
-3.88204e+06
-7.11772e+06
-4.27046e+06
-2.51122e+06
-1.71227e+06
-1.14515e+06
-718947
-444897
-265631
-144187
-57342.2
5718.35
50699.6
83156.7
108173
129751
149729
168657
186738
204084
220752
236767
252141
266875
280954
294355
307050
318992
330121
340387
349789
358355
366136
373179
379558
385332
390563
395340
399714
403751
407540
411109
414486
417724
420855
423880
426807
429656
432441
435172
437857
440505
443121
445711
448281
450836
453380
455919
458455
460990
463526
466063
468604
471149
473699
476255
478816
481381
483950
486522
489099
491683
494272
496865
499459
502045
504613
507154
509663
512142
514596
517036
519470
521906
524363
526868
529448
532123
534901
537783
540753
543778
546809
549783
552632
555292
557718
559897
561832
563559
1.10709e+07
-3.31979e+07
-1.76381e+07
-1.01094e+07
-5.8174e+06
-3.43834e+06
-2.05561e+06
-1.24479e+06
-759396
-464928
-283191
-167514
-88775.9
-30182
16899.9
56536
90787.9
120957
147933
172353
194674
215222
234241
251914
268344
283579
297621
310461
322106
332603
342048
350560
358273
365285
371712
377641
383136
388264
393056
397548
401792
405811
409614
413215
416648
419943
423126
426217
429233
432186
435088
437946
440769
443561
446328
449074
451800
454512
457213
459903
462587
465265
467939
470609
473278
475945
478612
481277
483940
486600
489258
491914
494570
497224
499874
502513
505136
507739
510320
512880
515420
517945
520459
522967
525477
528005
530574
533205
535910
538698
541562
544484
547427
550348
553197
555922
558473
560815
562927
564816
1.21072e+08
-9.52485e+07
-3.99535e+07
-2.35809e+07
-1.33238e+07
-7.75218e+06
-4.61197e+06
-2.81896e+06
-1.77234e+06
-1.14573e+06
-757020
-503658
-329404
-203809
-109810
-37237.4
20361.3
67239.3
106293
139530
168345
193689
216245
236524
254870
271487
286493
299996
312102
322948
332699
341535
349607
357015
363850
370195
376135
381730
387007
391976
396647
401044
405187
409101
412814
416358
419763
423054
426252
429376
432438
435453
438430
441376
444296
447195
450075
452937
455784
458618
461440
464253
467058
469855
472644
475428
478204
480973
483735
486489
489236
491976
494710
497437
500157
502867
505563
508243
510906
513552
516183
518800
521405
523999
526590
529188
531806
534458
537151
539891
542674
545490
548318
551131
553900
556590
559164
561586
563822
565856
3.71551e+07
-5.18711e+07
-2.78622e+07
-1.65925e+07
-9.84473e+06
-6.20703e+06
-4.0488e+06
-2.71287e+06
-1.85911e+06
-1.29708e+06
-913507
-642539
-445451
-298141
-185341
-97178.1
-27044.3
29657.8
76231.6
115108
148069
176379
200959
222532
241674
258854
274369
288406
301118
312655
323146
332720
341483
349515
356900
363728
370081
376033
381643
386947
391964
396708
401188
405417
409414
413207
416826
420299
423652
426908
430086
433203
436274
439313
442328
445325
448306
451273
454227
457169
460099
463021
465933
468837
471734
474623
477504
480376
483238
486089
488929
491758
494576
497386
500186
502977
505757
508525
511278
514015
516738
519447
522143
524829
527509
530188
532875
535575
538289
541020
543763
546508
549245
551963
554651
557291
559855
562309
564618
566758
-9.91364e+06
-1.40302e+07
-9.21828e+06
-5.94095e+06
-4.40022e+06
-3.39159e+06
-2.56091e+06
-1.903e+06
-1.40675e+06
-1.04259e+06
-775186
-574458
-419226
-295847
-195667
-113163
-44662.2
12479.1
60329.8
100593
134662
163710
188777
210702
230139
247625
263534
278105
291488
303781
315041
325323
334686
343214
351006
358169
364807
371019
376880
382443
387736
392774
397560
402097
406389
410450
414303
417975
421493
424880
428160
431355
434485
437570
440625
443661
446685
449699
452705
455703
458694
461679
464659
467633
470603
473569
476531
479487
482435
485373
488299
491214
494117
497010
499893
502766
505630
508484
511325
514153
516966
519765
522552
525328
528096
530859
533618
536372
539122
541867
544603
547321
550016
552690
555343
557967
560534
563012
565365
567567
-2.87434e+06
-4.88221e+06
-4.51245e+06
-3.4342e+06
-2.51734e+06
-1.94845e+06
-1.57483e+06
-1.27046e+06
-1.00795e+06
-788401
-610348
-467038
-350569
-254309
-173260
-103885
-43849.3
8331.62
53651.7
92882.7
126740
155956
181254
203327
222826
240295
256156
270735
284238
296775
308388
319092
328900
337850
346010
353473
360351
366754
372782
378509
383983
389228
394252
399052
403621
407958
412070
415975
419692
423244
426655
429947
433144
436270
439346
442391
445417
448432
451442
454448
457452
460454
463454
466454
469455
472458
475463
478468
481473
484475
487470
490456
493433
496400
499357
502306
505246
508177
511099
514008
516905
519789
522661
525523
528373
531211
534038
536849
539645
542422
545180
547914
550622
553309
555979
558625
561219
563726
566103
568322
-1.70913e+06
-3.01144e+06
-2.66728e+06
-2.06695e+06
-1.65554e+06
-1.39347e+06
-1.18702e+06
-992696
-806262
-637234
-493442
-376186
-281738
-204536
-139420
-82571.1
-31691.9
14307.6
55798.2
92862.5
125584
154183
179041
200665
219621
236478
251742
265816
278972
291355
303007
313907
324017
333312
341807
349560
356663
363229
369374
375195
380762
386120
391287
396268
401053
405628
409988
414135
418079
421833
425417
428851
432159
435364
438489
441557
444588
447595
450590
453580
456569
459559
462550
465544
468542
471546
474557
477578
480606
483641
486679
489717
492751
495779
498799
501811
504814
507809
510796
513775
516744
519702
522648
525581
528500
531404
534291
537161
540014
542847
545655
548437
551195
553933
556653
559340
561962
564482
566851
569038
-965837
-1.72555e+06
-1.52825e+06
-1.22279e+06
-1.03773e+06
-926381
-831510
-728644
-614709
-497903
-388955
-294890
-217348
-154097
-101290
-55213.1
-13232.9
25989.5
62767.2
96851.3
127852
155507
179791
200921
219304
235459
249934
263216
275679
287548
298907
309736
319958
329488
338272
346307
353644
360380
366629
372507
378111
383506
388734
393810
398727
403470
408024
412381
416540
420502
424278
427884
431342
434672
437893
441027
444096
447119
450115
453095
456069
459042
462016
464995
467977
470967
473967
476978
480004
483044
486098
489163
492235
495310
498383
501449
504505
507552
510590
513618
516639
519652
522656
525648
528627
531589
534533
537462
540378
543279
546156
549002
551825
554627
557398
560112
562735
565225
567533
569634
-597476
-1.10778e+06
-994410
-803156
-692327
-635356
-589574
-533039
-461091
-379555
-297825
-223465
-160058
-107605
-63920.9
-26081
8480.03
41371.9
73170
103693
132399
158722
182281
202957
220906
236499
250244
262680
274279
285378
296154
306632
316734
326334
335313
343598
351178
358105
364478
370414
376029
381416
386640
391734
396706
401542
406222
410735
415068
419214
423170
426948
430568
434045
437391
440626
443768
446842
449866
452858
455831
458797
461762
464731
467705
470684
473671
476668
479679
482707
485755
488822
491908
495007
498115
501224
504328
507420
510500
513565
516618
519662
522700
525735
528765
531785
534792
537780
540747
543694
546626
549542
552433
555287
558080
560784
563360
565767
567972
569975
-376131
-728338
-652470
-520242
-447962
-419916
-401848
-373278
-328726
-272500
-212464
-155405
-105146
-62653.1
-26909.4
4091.32
32450.7
59729.2
86677
113308
139164
163610
186062
206129
223685
238877
252074
263785
274536
284770
294776
304668
314414
323883
332916
341371
349170
356303
362828
368848
374483
379846
385028
390086
395043
399898
404636
409240
413696
417985
422095
426029
429803
433428
436910
440262
443502
446654
449736
452763
455752
458719
461679
464644
467618
470600
473587
476579
479578
482591
485621
488673
491748
494846
497964
501094
504228
507357
510471
513566
516641
519702
522754
525805
528856
531907
534951
537982
540992
543980
546948
549898
552816
555677
558446
561090
563578
565888
568022
570018
-237000
-489666
-437368
-341637
-290694
-275985
-270283
-255373
-225848
-185120
-139783
-95570.6
-55829.4
-21647.5
7485.51
32966.6
56421.7
79179.2
101985
124982
147864
170082
191031
210188
227219
242044
254843
266014
276064
285491
294684
303863
313071
322217
331130
339630
347575
354893
361586
367722
373407
378762
383892
388878
393767
398580
403312
407947
412466
416846
421071
425133
429039
432797
436409
439879
443226
446474
449642
452738
455767
458747
461704
464663
467639
470632
473638
476648
479661
482680
485707
488749
491808
494889
497992
501117
504257
507402
510541
513662
516755
519821
522865
525901
528940
531987
535035
538072
541092
544091
547066
550003
552884
555682
558369
560924
563340
565627
567815
569956
-144035
-329078
-290759
-217603
-178612
-170087
-170189
-162741
-142508
-112211
-77411.2
-42904.3
-11487.5
15861.6
39438.9
60286
79691.4
98756.8
118136
137992
158107
178034
197231
215166
231413
245738
258149
268899
278413
287182
295646
304108
312697
321384
330023
338425
346410
353849
360690
366953
372715
378084
383175
388084
392883
397613
402284
406891
411414
415833
420127
424284
428296
432164
435887
439469
442922
446268
449528
452708
455808
458833
461804
464759
467727
470721
473738
476769
479806
482846
485892
488947
492013
495092
498185
501295
504424
507566
510710
513840
516942
520009
523044
526057
529067
532083
535103
538117
541113
544079
547003
549869
552662
555368
557983
560510
562963
565359
567722
570089
-78974.1
-216100
-186846
-129054
-97785.9
-92491.2
-95379.5
-92032.4
-77494
-54035.9
-26471.8
1127.02
26445.4
48662.4
67964.9
85163
101326
117416
134026
151316
169097
186968
204441
221018
236268
249897
261812
272147
281226
289486
297362
305199
313189
321367
329635
337817
345723
353191
360121
366489
372333
377738
382812
387660
392366
396991
401566
406097
410575
414982
419297
423501
427581
431529
435344
439027
442586
446032
449378
452635
455810
458905
461932
464917
467894
470887
473905
476943
479994
483051
486113
489180
492255
495339
498432
501536
504655
507788
510926
514055
517158
520225
523255
526259
529246
532226
535199
538158
541090
543984
546830
549623
552362
555051
557695
560305
562887
565447
567991
570542
-31893
-134006
-110970
-64130.2
-38056
-34288.8
-38196.5
-36933.7
-25884.9
-6993.9
15508.9
38118.6
58922.6
77274.5
93317.6
107689
121279
134951
149282
164456
180306
196440
212375
227631
241794
254572
265846
275686
284343
292180
299593
306924
314395
322085
329944
337828
345556
352955
359895
366315
372218
377658
382728
387528
392152
396673
401139
405572
409973
414330
418623
422833
426942
430938
434816
438574
442216
445746
449173
452505
455751
458919
462021
465072
468096
471114
474142
477184
480239
483304
486376
489451
492531
495614
498704
501802
504913
508034
511159
514276
517371
520436
523468
526467
529437
532382
535305
538205
541083
543936
546763
549564
552341
555098
557835
560552
563247
565917
568558
571187
3147.23
-72663.5
-54021.4
-15250.4
7185.16
10337.4
6336.1
6631.2
15468.4
31162.6
49985.7
68906.6
86342.5
101805
115425
127703
139361
151161
163669
177116
191374
206064
220690
234760
247870
259750
270293
279560
287760
295200
302225
309144
316180
323434
330891
338441
345925
353172
360042
366448
372363
377815
382874
387632
392182
396605
400961
405286
409591
413874
418119
422306
426417
430435
434350
438156
441852
445442
448932
452331
455646
458889
462069
465198
468290
471360
474423
477486
480554
483626
486701
489778
492858
495941
499028
502122
505222
508327
511432
514529
517609
520665
523692
526688
529654
532594
535512
538415
541305
544186
547055
549911
552753
555576
558378
561155
563903
566618
569298
571958
29789.8
-25867.4
-10454.1
22169.3
41951.3
44992.7
41381.4
41325.3
48713.6
62080.2
78138.6
94269.4
109171
122492
134358
145158
155460
165910
177043
189122
202074
215548
229051
242082
254238
265268
275085
283760
291484
298529
305194
311753
318410
325275
332353
339563
346768
353811
360549
366881
372759
378188
383219
387929
392408
396739
400989
405204
409408
413604
417784
421929
426020
430038
433968
437803
441537
445173
448714
452168
455544
458853
462104
465306
468469
471602
474716
477818
480912
484002
487089
490174
493258
496342
499427
502514
505604
508694
511783
514865
517937
520991
524026
527039
530030
533002
535957
538899
541830
544749
547655
550547
553420
556273
559103
561907
564683
567431
570151
572859
50360.9
10355.2
23328.7
51183.4
69001.9
72228.5
69266.3
69222.3
75643.2
87243
101130
115067
128010
139729
150345
160144
169556
179101
189257
200293
212178
224609
237123
249236
260554
270836
280007
288139
295413
302073
308389
314606
320913
327419
334144
341026
347950
354769
361343
367564
373369
378746
383728
388381
392788
397031
401182
405294
409397
413504
417610
421701
425758
429761
433694
437544
441305
444975
448558
452059
455488
458853
462163
465426
468649
471840
475004
478149
481280
484400
487512
490618
493720
496819
499916
503012
506107
509201
512292
515377
518455
521521
524574
527611
530632
533637
536626
539600
542559
545503
548432
551344
554238
557112
559965
562795
565602
568383
571139
573887
66400.9
38637.6
49710.4
73811.2
90167.3
93766.8
91603.5
91794.2
97550.1
107741
119847
131996
143390
153901
163640
172799
181676
190668
200172
210436
221459
232992
244629
255926
266512
276156
284780
292442
299307
305601
311572
317452
323423
329597
336001
342590
349258
355870
362286
368392
374113
379426
384350
388941
393276
397437
401496
405512
409523
413545
417579
421614
425632
429613
433539
437395
441173
444870
448486
452025
455496
458906
462263
465574
468847
472087
475301
478494
481670
484834
487986
491130
494265
497394
500517
503634
506745
509853
512955
516051
519140
522221
525291
528349
531394
534425
537442
540445
543432
546404
549360
552299
555220
558122
561004
563863
566698
569507
572290
575061
78929.1
60731.9
70286.4
91409.4
106685
110785
109516
110097
115406
124448
135057
145710
155846
165436
174575
183364
191971
200668
209763
219472
229815
240599
251479
262064
272012
281098
289233
296462
302930
308852
314467
320005
325649
331515
337641
343987
350453
356905
363202
369221
374878
380139
385014
389551
393822
397909
401888
405820
409749
413696
417665
421649
425629
429587
433502
437360
441149
444864
448505
452074
455578
459025
462421
465775
469092
472380
475643
478885
482110
485320
488518
491704
494880
498045
501201
504349
507489
510623
513749
516869
519982
523087
526182
529267
532340
535400
538447
541478
544494
547494
550476
553439
556383
559306
562207
565083
567933
570755
573548
576325
88616.2
77804.3
86122.5
104870
119359
124062
123776
124890
129947
138059
147394
156778
165881
174769
183515
192127
200648
209231
218104
227450
237303
247514
257791
267784
277176
285746
293404
300183
306224
311738
316966
322144
327462
333044
338930
345083
351403
357749
363973
369945
375571
380806
385652
390153
394378
398408
402321
406184
410043
413925
417838
421776
425724
429661
433567
437425
441224
444956
448620
452218
455755
459237
462672
466067
469429
472763
476074
479365
482639
485899
489145
492378
495599
498809
502007
505196
508374
511543
514702
517853
520994
524125
527245
530353
533449
536530
539597
542647
545681
548697
551694
554671
557627
560561
563471
566356
569213
572042
574841
577624
95902.9
90589.9
97859.8
114714
128650
134041
134830
136634
141648
149055
157340
165663
173926
182285
190788
199355
207919
216532
225349
234518
244076
253896
263719
273227
282126
290210
297390
303706
309300
314389
319223
324041
329042
334354
340020
346004
352200
358463
364635
370577
376185
381406
386237
390716
394910
398900
402766
406576
410382
414214
418082
421984
425905
429827
433728
437591
441403
445156
448845
452474
456044
459563
463037
466473
469877
473255
476611
479948
483268
486574
489865
493143
496408
499660
502899
506125
509339
512540
515729
518906
522071
525223
528362
531487
534597
537693
540773
543836
546881
549908
552915
555901
558866
561808
564726
567618
570483
573320
576128
578922
101010
99466.8
105832
121198
134755
140872
142803
145456
150650
157597
165060
172524
180122
188097
196482
205116
213831
222591
231481
240610
250000
259533
268975
278038
286458
294055
300765
306640
311835
316571
321096
325649
330421
335536
341035
346879
352965
359145
365258
371160
376742
381945
386759
391219
395391
399354
403189
406967
410739
414538
418378
422257
426162
430076
433977
437849
441677
445452
449169
452829
456434
459991
463504
466981
470427
473848
477247
480627
483991
487340
490673
493993
497298
500589
503865
507126
510373
513604
516822
520024
523212
526384
529542
532684
535810
538919
542011
545085
548141
551177
554193
557187
560159
563108
566032
568930
571801
574644
577459
580260
103995
104511
110106
124412
137791
144690
147851
151528
157124
163825
170646
177404
184470
192186
200564
209361
218315
227302
236344
245506
254788
264076
273153
281767
289692
296788
303025
308482
313329
317793
322121
326540
331225
336280
341728
347521
353552
359678
365744
371608
377162
382346
387147
391599
395763
399719
403545
407313
411076
414865
418697
422571
426476
430393
434304
438191
442039
445839
449586
453280
456922
460517
464072
467591
471081
474545
477988
481411
484818
488208
491582
494940
498283
501609
504919
508212
511488
514748
517990
521215
524424
527615
530788
533945
537083
540204
543306
546388
549451
552494
555515
558513
561489
564441
567368
570270
573144
575992
578812
581618
104650
105244
110115
123830
137337
145259
150001
155138
161521
168227
174541
180661
187244
194745
203154
212143
221358
230599
239829
249071
258302
267405
276177
284398
291885
298541
304374
309493
314083
318374
322604
326985
331671
336746
342214
348012
354025
360114
366134
371955
377477
382640
387434
391887
396059
400026
403865
407645
411419
415219
419061
422946
426862
430793
434721
438628
442501
446329
450108
453836
457514
461148
464743
468303
471834
475340
478825
482290
485738
489167
492580
495974
499351
502710
506050
509371
512673
515956
519220
522464
525689
528896
532083
535251
538399
541528
544637
547725
550793
553839
556863
559864
562842
565796
568725
571629
574506
577357
580181
582992
102627
100860
104988
118552
132424
141782
148911
156455
164392
171575
177625
183235
189405
196714
205126
214243
223643
233074
242454
251768
260965
269915
278428
286311
293424
299712
305223
310091
314515
318724
322944
327365
332117
337260
342783
348609
354616
360663
366616
372364
377823
382945
387723
392180
396369
400361
404227
408035
411833
415656
419517
423420
427353
431302
435250
439180
443079
446936
450746
454508
458222
461892
465524
469121
472690
476233
479756
483258
486742
490208
493655
497083
500492
503880
507247
510593
513917
517220
520501
523762
527001
530219
533416
536592
539747
542882
545995
549087
552157
555205
558231
561233
564212
567167
570097
573002
575881
578734
581562
584377
96802.5
89210.7
92778.2
106893
121349
132639
143208
154344
164805
173192
179563
185145
191260
198582
207067
216294
225831
235408
244910
254278
263425
272204
280439
287967
294695
300616
305816
310456
314744
318904
323145
327632
332470
337697
343282
349143
355159
361191
367110
372814
378231
383326
388099
392577
396804
400840
404751
408597
412427
416273
420151
424066
428011
431972
435933
439880
443799
447681
451519
455310
459056
462760
466424
470054
473654
477229
480782
484314
487828
491324
494800
498256
501692
505105
508496
511863
515207
518527
521823
525096
528346
531573
534777
537959
541119
544257
547373
550466
553538
556586
559612
562614
565593
568548
571478
574384
577265
580121
582951
585770
85861.6
67132.3
70095.6
86158.4
102470
116830
131843
147419
161213
171711
179390
185864
192623
200380
209129
218521
228190
237891
247485
256865
265904
274443
282324
289428
295714
301229
306097
310502
314658
318780
323054
327618
332550
337859
343502
349389
355406
361426
367334
373041
378487
383641
388495
393066
397394
401530
405526
409437
413310
417179
421066
424979
428917
432871
436829
440777
444703
448598
452453
456266
460036
463765
467454
471109
474734
478332
481907
485461
488996
492512
496009
499486
502942
506375
509784
513169
516528
519863
523171
526455
529714
532948
536157
539344
542506
545646
548763
551856
554927
557975
561001
564002
566981
569936
572867
575773
578655
581513
584346
587168
65039
27455.7
29478.1
50463.3
72443.7
92884.5
114306
135693
154044
167931
178202
186691
194923
203623
212879
222494
232231
241912
251399
260559
269247
277312
284629
291134
296839
301842
306303
310421
314407
318461
322742
327357
332354
337722
343400
349293
355290
361281
367174
372905
378431
383723
388767
393554
398097
402428
406584
410612
414556
418457
422344
426238
430146
434067
437996
441921
445833
449721
453578
457398
461178
464920
468624
472294
475933
479545
483132
486698
490244
493771
497279
500767
504235
507680
511102
514499
517871
521216
524534
527826
531092
534331
537546
540735
543899
547040
550157
553251
556321
559368
562392
565393
568371
571326
574257
577164
580047
582906
585741
588567
28710
-46760.7
-48627.9
-19725.7
12704.2
45577.2
79590.5
111463
137719
157676
172877
185377
196657
207438
217947
228197
238150
247757
256944
265614
273654
280960
287463
293163
298133
302511
306483
310254
314024
317967
322212
326833
331850
337231
342904
348772
354729
360675
366541
372295
377926
383417
388739
393853
398732
403369
407777
411988
416047
420002
423898
427768
431634
435506
439387
443271
447151
451016
454859
458673
462453
466198
469907
473583
477228
480845
484437
488006
491555
495085
498596
502088
505560
509010
512438
515842
519221
522574
525899
529198
532469
535713
538931
542123
545290
548431
551549
554642
557712
560758
563782
566782
569760
572714
575645
578553
581438
584298
587135
589964
-31338.6
-167154
-168500
-122366
-71435.3
-18588
33623.3
79720.2
116892
145712
168242
186492
201865
215231
227128
237906
247786
256897
265282
272933
279821
285924
291255
295876
299910
303521
306900
310244
313729
317499
321649
326222
331210
336562
342198
348017
353919
359818
365663
371451
377200
382913
388548
394032
399292
404278
408970
413389
417581
421605
425519
429373
433204
437034
440871
444717
448565
452407
456234
460038
463814
467558
471268
474945
478591
482208
485799
489367
492913
496440
499948
503437
506907
510356
513784
517190
520571
523927
527257
530560
533835
537084
540305
543500
546668
549812
552930
556024
559094
562141
565164
568164
571142
574097
577028
579937
582823
585685
588525
591357
-181444
-590987
-559502
-372692
-216362
-99939.4
-12094.4
54271.9
104693
143530
173693
197239
215628
230227
242202
252379
261260
269098
276020
282094
287368
291891
295745
299048
301954
304643
307294
310078
313145
316613
320553
324982
329868
335142
340714
346486
352367
358284
364201
370126
376090
382093
388075
393932
399553
404856
409808
414425
418758
422874
426845
430731
434576
438410
442248
446093
449941
453783
457612
461419
465198
468945
472659
476338
479984
483600
487189
490752
494293
497814
501315
504797
508261
511705
515129
518532
521912
525268
528599
531904
535182
538434
541658
544856
548028
551173
554294
557390
560461
563509
566533
569534
572513
575469
578402
581312
584200
587065
589908
592743
413272
-1.22723e+06
-1.18491e+06
-857559
-556105
-314544
-136032
-12077.7
72405.5
131782
174931
206535
229284
245607
257689
267174
274908
281266
286564
291021
294726
297759
300244
302343
304228
306063
308006
310200
312777
315842
319459
323639
328344
333503
339021
344801
350758
356840
363016
369277
375615
381984
388288
394404
400216
405652
410698
415383
419771
423937
427953
431881
435767
439639
443511
447387
451262
455128
458976
462798
466589
470344
474062
477744
481390
485004
488588
492145
495678
499190
502682
506156
509611
513047
516464
519861
523237
526590
529920
533225
536505
539758
542986
546187
549362
552511
555635
558733
561808
564858
567885
570888
573869
576827
579762
582675
585566
588434
591281
594120
3.86295e+06
-3.09775e+06
-1.60451e+06
-1.0236e+06
-614171
-329963
-132449
2047.29
93128.5
155538
198486
227791
247556
260685
270651
279055
285993
291157
295023
298166
300655
302566
304037
305246
306380
307594
309010
310733
312866
315505
318744
322624
327118
332149
337626
343475
349632
356060
362700
369462
376244
382933
389403
395542
401283
406606
411539
416141
420487
424650
428698
432682
436637
440585
444533
448480
452419
456340
460234
464093
467912
471688
475421
479111
482761
486375
489957
493510
497037
500541
504025
507490
510936
514365
517775
521166
524537
527886
531214
534518
537798
541054
544283
547488
550667
553820
556947
560050
563129
566183
569213
572221
575205
578167
581106
584023
586917
589790
592641
595486
3.71303e+06
-2.9017e+06
-1.43364e+06
-899571
-507301
-240151
-61031
57118.7
135063
187361
223204
247918
264614
275657
283262
288587
292300
295615
298985
301964
304035
305424
306418
307235
308050
308999
310166
311617
313441
315755
318676
322275
326553
331480
337014
343104
349686
356657
363860
371100
378187
384969
391343
397257
402712
407748
412438
416863
421103
425226
429287
433322
437353
441388
445426
449460
453478
457469
461422
465329
469186
472989
476741
480443
484099
487715
491295
494844
498365
501862
505338
508795
512233
515654
519057
522442
525808
529154
532479
535783
539063
542319
545551
548759
551941
555099
558231
561339
564422
567481
570517
573529
576518
579485
582429
585351
588251
591129
593986
596836
512755
-1.31774e+06
-1.09758e+06
-715168
-396814
-163909
-6358.62
95975.4
161961
205250
234312
254106
267277
276297
283240
288957
293402
296847
299925
302521
304607
306237
307511
308571
309579
310657
311883
313325
315100
317368
320259
323845
328162
333226
339011
345445
352393
359651
366987