/*--------------------------------*- C++ -*----------------------------------*\
| =========                 |                                                 |
| \\      /  F ield         | OpenFOAM: The Open Source CFD Toolbox           |
|  \\    /   O peration     | Version:  2412                                  |
|   \\  /    A nd           | Website:  www.openfoam.com                      |
|    \\/     M anipulation  |                                                 |
\*---------------------------------------------------------------------------*/
FoamFile
{
    version     2.0;
    format      ascii;
    arch        "LSB;label=32;scalar=64";
    class       surfaceScalarField;
    location    "5";
    object      phi;
}
// * * * * * * * * * * * * * * * * * * * * * * * * * * * * * * * * * * * * * //

dimensions      [0 3 -1 0 0 0 0];

oriented        oriented;

internalField   nonuniform List<scalar> 
39700
(
-13.4307
0.959074
-12.276
-1.15474
-11.4948
-0.781421
-10.7877
-0.707285
-10.0839
-0.704203
-9.35502
-0.729273
-8.71362
-0.641907
-8.22027
-0.493966
-7.86112
-0.359886
-7.59016
-0.271788
-7.37341
-0.217692
-7.19006
-0.184378
-7.02522
-0.165949
-6.86717
-0.159247
-6.70695
-0.161505
-6.53823
-0.170083
-6.35731
-0.182381
-6.1628
-0.196068
-5.95519
-0.209273
-5.73629
-0.220669
-5.50875
-0.229444
-5.27561
-0.235186
-5.04004
-0.237773
-4.80514
-0.237276
-4.5738
-0.233902
-4.3486
-0.227976
-4.13167
-0.219925
-3.92465
-0.210261
-3.72861
-0.199551
-3.54403
-0.188363
-3.3709
-0.177213
-3.20876
-0.166534
-3.0568
-0.156676
-2.91395
-0.147921
-2.77889
-0.140483
-2.65022
-0.134485
-2.52654
-0.129891
-2.40672
-0.126471
-2.29003
-0.123805
-2.17629
-0.121368
-2.06585
-0.118634
-1.95948
-0.115182
-1.85819
-0.1108
-1.76291
-0.10556
-1.67423
-0.099802
-1.59212
-0.0941662
-1.51616
-0.0890312
-1.44602
-0.0843724
-1.38257
-0.0790704
-1.32682
-0.0730128
-1.28241
-0.0634044
-1.24601
-0.0563782
-1.21418
-0.0512951
-1.19378
-0.0384213
-1.17116
-0.0397981
-1.1506
-0.0393703
-1.13118
-0.0428505
-1.10196
-0.0600599
-1.02046
-0.125473
-0.936775
-0.156888
-0.910374
-0.13362
-0.851782
-0.14428
-0.734818
-0.162168
-0.594255
-0.172154
-0.444969
-0.175065
-0.292175
-0.174459
-0.138664
-0.172176
0.0140621
-0.169116
0.165142
-0.165687
0.313997
-0.16203
0.460166
-0.158171
0.603285
-0.154148
0.743078
-0.150008
0.87933
-0.14578
1.01179
-0.141404
1.14005
-0.136711
1.26347
-0.131462
1.38123
-0.125431
1.49234
-0.118498
1.59582
-0.110604
1.69061
-0.101726
1.77575
-0.0919077
1.85038
-0.0812806
1.91387
-0.070043
1.9658
-0.0584217
2.00597
-0.046629
2.03436
-0.0348545
2.05114
-0.0232503
2.05665
-0.0119996
2.05144
-0.00131677
2.03602
0.00883601
2.01077
0.0185779
1.976
0.0279986
1.93184
0.0372452
1.87821
0.0465756
1.81459
0.056372
1.73995
0.067159
1.65256
0.0796385
1.54968
0.0947797
0.113821
1.42731
-8.73156
2.01862
-9.24715
-0.639283
-9.70673
-0.322112
-9.85473
-0.559638
-9.5806
-0.978751
-8.70986
-1.60052
-8.05113
-1.30122
-7.59989
-0.945896
-7.2638
-0.696809
-6.99127
-0.545288
-6.76941
-0.440639
-6.58778
-0.367211
-6.42957
-0.325464
-6.2798
-0.31042
-6.12893
-0.313888
-5.97149
-0.32913
-5.80515
-0.350448
-5.62964
-0.373406
-5.44606
-0.394815
-5.25624
-0.412577
-5.06242
-0.425504
-4.86689
-0.433118
-4.67173
-0.435495
-4.47863
-0.433121
-4.28874
-0.426732
-4.10268
-0.417198
-3.92059
-0.40539
-3.74238
-0.392101
-3.56784
-0.377987
-3.39683
-0.36355
-3.22937
-0.349159
-3.06566
-0.335079
-2.90603
-0.321503
-2.75099
-0.308567
-2.60117
-0.296338
-2.45733
-0.28483
-2.32025
-0.27399
-2.19056
-0.263736
-2.0686
-0.253926
-1.95429
-0.244472
-1.84712
-0.23529
-1.74616
-0.226354
-1.65039
-0.217593
-1.55899
-0.208865
-1.47158
-0.200094
-1.388
-0.191701
-1.30769
-0.184445
-1.22996
-0.178313
-1.15402
-0.172136
-1.07765
-0.167154
-1.00082
-0.158857
-0.930138
-0.147349
-0.875925
-0.129001
-0.828303
-0.115698
-0.755981
-0.147577
-0.652442
-0.18253
-0.539545
-0.202368
-0.455862
-0.204162
-0.426914
-0.220671
-0.389758
-0.248975
-0.303684
-0.261525
-0.210554
-0.268401
-0.126167
-0.272812
-0.0466301
-0.274956
0.0324623
-0.274955
0.112421
-0.273217
0.1933
-0.270225
0.274825
-0.266468
0.35679
-0.262359
0.439116
-0.258115
0.521761
-0.253766
0.604637
-0.249274
0.687544
-0.244552
0.77014
-0.239475
0.851991
-0.233878
0.932656
-0.227575
1.01175
-0.220377
1.0889
-0.212085
1.16373
-0.202533
1.23579
-0.191625
1.30468
-0.179353
1.37
-0.165783
1.43134
-0.151026
1.48827
-0.135244
1.54034
-0.118673
1.58717
-0.101554
1.62838
-0.084108
1.66361
-0.0664898
1.69243
-0.0487872
1.71431
-0.031132
1.72904
-0.0137837
1.73669
0.00305834
1.73735
0.0194575
1.7312
0.0354826
1.71865
0.0511716
1.7003
0.0666951
1.677
0.0823621
1.64986
0.0985881
1.62049
0.115864
0.134681
1.59134
4.28337
1.04157
2.48562
1.15827
0.983154
1.17985
-0.807551
1.23018
-2.82001
1.03198
-4.5032
0.080365
-5.5662
-0.239925
-6.05438
-0.458837
-5.8754
-0.876917
-5.69697
-0.724935
-5.66649
-0.472445
-5.66171
-0.373425
-5.64591
-0.342784
-5.61062
-0.347298
-5.55457
-0.371614
-5.47479
-0.410667
-5.37163
-0.455452
-5.2478
-0.499182
-5.10706
-0.537612
-4.95329
-0.568527
-4.78995
-0.591155
-4.61986
-0.605659
-4.44523
-0.612731
-4.26779
-0.61334
-4.08893
-0.608556
-3.90983
-0.599458
-3.73155
-0.587056
-3.55502
-0.57226
-3.38103
-0.555859
-3.21026
-0.538495
-3.04322
-0.520677
-2.88034
-0.50278
-2.72197
-0.485071
-2.56841
-0.46772
-2.41999
-0.450808
-2.27699
-0.43436
-2.13974
-0.418299
-2.00852
-0.402616
-1.88353
-0.387215
-1.76478
-0.372231
-1.65205
-0.357795
-1.54506
-0.343977
-1.4435
-0.330726
-1.34689
-0.318063
-1.2543
-0.306415
-1.16495
-0.296015
-1.07847
-0.287155
-0.995244
-0.279075
-0.917433
-0.269233
-0.850137
-0.256339
-0.790545
-0.244677
-0.723401
-0.247563
-0.642752
-0.251803
-0.546927
-0.260458
-0.449973
-0.289444
-0.355007
-0.313749
-0.262297
-0.326636
-0.161973
-0.333719
-0.0693909
-0.339108
0.00288073
-0.343859
0.0674669
-0.346898
0.128044
-0.348372
0.185623
-0.348557
0.24122
-0.347613
0.295853
-0.345666
0.350268
-0.342844
0.404854
-0.339256
0.459641
-0.335019
0.514424
-0.330303
0.569011
-0.325326
0.623336
-0.320238
0.677363
-0.315019
0.730974
-0.309496
0.783962
-0.30345
0.836137
-0.296728
0.887404
-0.289237
0.937751
-0.280867
0.987194
-0.271447
1.03575
-0.260809
1.08344
-0.248846
1.13023
-0.235526
1.17611
-0.220888
1.22097
-0.204997
1.26466
-0.187924
1.30688
-0.169785
1.34732
-0.150805
1.38576
-0.131294
1.4221
-0.111516
1.45635
-0.0916759
1.48842
-0.0717826
1.51797
-0.0518329
1.5444
-0.0317709
1.56742
-0.011857
1.58685
0.00785205
1.60255
0.0273382
1.61457
0.0466098
1.62325
0.0656513
1.62935
0.0845095
1.63405
0.103227
0.12184
1.63907
10.5518
0.759298
9.95831
1.75164
8.72636
2.41157
7.20247
2.7537
5.46027
2.77364
3.12795
2.412
0.85613
2.03092
-1.2086
1.60384
-2.65532
0.566353
-3.57779
0.19443
-4.22366
0.171289
-4.6706
0.0716544
-4.96208
-0.0531311
-5.1289
-0.182323
-5.19938
-0.302989
-5.19765
-0.414271
-5.1415
-0.513534
-5.04556
-0.597127
-4.92101
-0.664264
-4.776
-0.715744
-4.61642
-0.753062
-4.44662
-0.777935
-4.26989
-0.792075
-4.08888
-0.797143
-3.90568
-0.794731
-3.72198
-0.786334
-3.53914
-0.773295
-3.35826
-0.756795
-3.18017
-0.737856
-3.00558
-0.717299
-2.83504
-0.695755
-2.66905
-0.673658
-2.50807
-0.651322
-2.35254
-0.628959
-2.20277
-0.606754
-2.05894
-0.584899
-1.92113
-0.563389
-1.78918
-0.542488
-1.66291
-0.522129
-1.54213
-0.502461
-1.42656
-0.48371
-1.31606
-0.465833
-1.21023
-0.449057
-1.10847
-0.433599
-1.01051
-0.419563
-0.917061
-0.406284
-0.830836
-0.392329
-0.754491
-0.37741
-0.679471
-0.370814
-0.598591
-0.370085
-0.509639
-0.371757
-0.408621
-0.385114
-0.29369
-0.397444
-0.175984
-0.404388
-0.0784673
-0.409935
0.00100581
-0.414117
0.071398
-0.416538
0.136805
-0.417462
0.197663
-0.417346
0.253677
-0.416472
0.305799
-0.414907
0.354885
-0.412696
0.401571
-0.409884
0.446373
-0.406508
0.489709
-0.402592
0.531887
-0.398152
0.573161
-0.39324
0.613776
-0.38796
0.653898
-0.382402
0.693477
-0.376558
0.732237
-0.370355
0.769867
-0.363736
0.80622
-0.356692
0.841374
-0.34923
0.87552
-0.341308
0.908861
-0.332841
0.941601
-0.323715
0.97398
-0.313797
1.00627
-0.30294
1.0387
-0.291011
1.07145
-0.277906
1.1046
-0.263556
1.13813
-0.247964
1.17207
-0.231214
1.20646
-0.213437
1.24125
-0.194782
1.27625
-0.175411
1.31122
-0.155527
1.3459
-0.135341
1.3802
-0.115003
1.41413
-0.0946366
1.44766
-0.074068
1.48049
-0.0533476
1.51203
-0.0321897
1.54198
-0.0109501
1.57004
0.0103516
1.59604
0.0315877
1.62001
0.0525778
1.64233
0.0730625
0.0928425
1.66365
14.7908
1.00155
13.5706
2.97182
11.2803
4.7017
8.69229
5.34144
6.14407
5.3215
3.66935
4.88617
1.64341
4.05596
-0.100964
3.34667
-1.83426
2.29743
-3.19607
1.55397
-4.09213
1.06544
-4.66976
0.647573
-5.01883
0.294203
-5.19874
-0.00423958
-5.25369
-0.249907
-5.22228
-0.447568
-5.13202
-0.605701
-5.00176
-0.729366
-4.84446
-0.823635
-4.66917
-0.893213
-4.48237
-0.942176
-4.28873
-0.974025
-4.09166
-0.991755
-3.89367
-0.997922
-3.69662
-0.994772
-3.50185
-0.984303
-3.31034
-0.968232
-3.12282
-0.948011
-2.93975
-0.924897
-2.76146
-0.899864
-2.58821
-0.873632
-2.42026
-0.846607
-2.25787
-0.819131
-2.10132
-0.791392
-1.95076
-0.763722
-1.8061
-0.736526
-1.66734
-0.709772
-1.53419
-0.683999
-1.40643
-0.659058
-1.28414
-0.634873
-1.16673
-0.612317
-1.05399
-0.590982
-0.94623
-0.570631
-0.843998
-0.55131
-0.750346
-0.53085
-0.661479
-0.515729
-0.570324
-0.508092
-0.475864
-0.501091
-0.374246
-0.50259
-0.263496
-0.507309
-0.150588
-0.507441
-0.0497667
-0.506186
0.0384912
-0.504169
0.118311
-0.501465
0.190399
-0.498334
0.2556
-0.49486
0.315204
-0.491034
0.370272
-0.486861
0.421461
-0.482376
0.469196
-0.477613
0.51387
-0.472595
0.555854
-0.467337
0.595488
-0.461846
0.633072
-0.456119
0.66887
-0.45014
0.70313
-0.443904
0.736064
-0.43743
0.76779
-0.430722
0.798325
-0.42377
0.827679
-0.41656
0.855941
-0.409094
0.883239
-0.401357
0.90966
-0.393297
0.935224
-0.384852
0.959948
-0.375978
0.983887
-0.366626
1.00714
-0.35673
1.02988
-0.346217
1.05235
-0.335018
1.07485
-0.323061
1.0977
-0.310252
1.1212
-0.296497
1.14558
-0.28173
1.17098
-0.265954
1.19749
-0.249231
1.22515
-0.23167
1.25395
-0.213392
1.28382
-0.194517
1.31459
-0.175167
1.34605
-0.155467
1.378
-0.135527
1.41047
-0.115408
1.44346
-0.0951543
1.47703
-0.0744619
1.51101
-0.0534769
1.5449
-0.031914
1.57846
-0.0101566
1.61128
0.0117331
1.64289
0.0335901
0.0551887
1.67288
19.2481
1.4706
17.8481
4.37168
13.3462
9.20353
8.19786
10.4896
4.17054
9.34848
0.890327
8.1658
-1.51858
6.46399
-3.03481
4.86187
-4.20841
3.47
-5.04507
2.38956
-5.54783
1.56705
-5.81258
0.911074
-5.89925
0.37948
-5.85321
-0.0518495
-5.72204
-0.382753
-5.53597
-0.635368
-5.31748
-0.825972
-5.08162
-0.967094
-4.83817
-1.06908
-4.59336
-1.14013
-4.35108
-1.18672
-4.11358
-1.21396
-3.88212
-1.22582
-3.65745
-1.22538
-3.44001
-1.21523
-3.2299
-1.19765
-3.02706
-1.17456
-2.83136
-1.14748
-2.64264
-1.11768
-2.46084
-1.08608
-2.28577
-1.05348
-2.11736
-1.02021
-1.9553
-0.986835
-1.79957
-0.953296
-1.65004
-0.919995
-1.50664
-0.887327
-1.36935
-0.855206
-1.23776
-0.824587
-1.11139
-0.795392
-0.990626
-0.766733
-0.875551
-0.739789
-0.767862
-0.712663
-0.665997
-0.688537
-0.56452
-0.671502
-0.461786
-0.655811
-0.355594
-0.64597
-0.244292
-0.641584
-0.130698
-0.634278
-0.0252198
-0.625754
0.0681681
-0.616914
0.15324
-0.607769
0.231105
-0.598542
0.302456
-0.589383
0.368031
-0.580366
0.428363
-0.571534
0.483928
-0.562897
0.535209
-0.554439
0.582665
-0.546138
0.626708
-0.537968
0.667691
-0.529905
0.705931
-0.521923
0.741703
-0.513998
0.775252
-0.506102
0.806805
-0.498208
0.836574
-0.490291
0.864755
-0.482323
0.891501
-0.474281
0.916938
-0.466141
0.941187
-0.457888
0.964367
-0.449505
0.986576
-0.440971
1.00789
-0.432253
1.02839
-0.423303
1.04817
-0.414057
1.06727
-0.404448
1.08575
-0.394418
1.10368
-0.383925
1.12117
-0.372931
1.13836
-0.361397
1.15543
-0.349291
1.17264
-0.336592
1.19031
-0.323271
1.20878
-0.309279
1.22833
-0.294561
1.24915
-0.279079
1.27133
-0.262841
1.29488
-0.245898
1.31976
-0.228321
1.3459
-0.210183
1.37315
-0.191544
1.4013
-0.172462
1.43018
-0.153021
1.45964
-0.133298
1.48991
-0.113349
1.52105
-0.0931924
1.55325
-0.0725619
1.58636
-0.051574
1.62
-0.0300262
1.65378
-0.00812132
0.0140592
1.68721
32.2779
2.47893
16.7842
19.8654
5.47695
20.5106
-2.72073
18.687
-6.9884
13.6159
-8.77699
9.95405
-9.46244
7.14905
-9.59618
4.99517
-9.46936
3.34265
-9.15213
2.07169
-8.671
1.08514
-8.1138
0.352944
-7.54717
-0.188256
-7.00442
-0.595879
-6.49257
-0.895989
-6.01865
-1.11077
-5.58284
-1.26339
-5.18258
-1.36908
-4.81463
-1.43893
-4.47549
-1.48131
-4.16178
-1.50265
-3.87036
-1.50778
-3.59846
-1.50033
-3.34377
-1.48288
-3.1045
-1.45756
-2.87898
-1.42648
-2.66572
-1.39142
-2.46355
-1.35357
-2.27147
-1.31401
-2.08879
-1.2734
-1.91464
-1.23267
-1.74863
-1.19174
-1.58988
-1.15162
-1.43817
-1.11163
-1.29311
-1.07236
-1.15459
-1.03392
-1.0224
-0.996354
-0.896621
-0.960345
-0.778495
-0.924714
-0.666241
-0.89169
-0.554885
-0.86572
-0.443466
-0.841053
-0.330836
-0.819839
-0.216489
-0.803906
-0.101191
-0.787545
0.00820665
-0.770429
0.106199
-0.753542
0.195555
-0.73687
0.277674
-0.720535
0.353221
-0.704654
0.422945
-0.689284
0.487423
-0.674462
0.547109
-0.660208
0.602392
-0.646523
0.65361
-0.633392
0.701074
-0.620793
0.745076
-0.608691
0.7859
-0.597045
0.823809
-0.585813
0.859054
-0.574953
0.891868
-0.564419
0.922468
-0.554169
0.951055
-0.544159
0.977814
-0.534345
1.00291
-0.524683
1.02651
-0.515132
1.04874
-0.505656
1.06974
-0.496222
1.08963
-0.486793
1.1085
-0.477331
1.12642
-0.4678
1.14347
-0.458163
1.15972
-0.448377
1.17526
-0.438387
1.19019
-0.428138
1.20461
-0.41758
1.21865
-0.40668
1.23244
-0.395416
1.24612
-0.383767
1.25987
-0.371711
1.27384
-0.359218
1.28818
-0.346264
1.30309
-0.332831
1.31879
-0.318897
1.33552
-0.304418
1.35342
-0.289341
1.37258
-0.273643
1.39302
-0.25732
1.41469
-0.240388
1.43752
-0.22288
1.46143
-0.204847
1.48631
-0.186348
1.51205
-0.167448
1.53854
-0.148223
1.56572
-0.128711
1.5938
-0.108936
1.62282
-0.0888407
1.65292
-0.0682737
1.68405
-0.0472435
-0.0257175
1.71609
-38.8696
1.51749
-46.2103
27.2061
-42.0272
16.3275
-35.3461
12.0058
-29.7977
8.06727
-25.1786
5.33486
-21.3427
3.31293
-18.1815
1.83368
-15.5847
0.745407
-13.4497
-0.0638297
-11.6869
-0.678253
-10.2072
-1.12754
-8.95659
-1.43976
-7.91226
-1.64125
-7.03569
-1.77373
-6.2905
-1.85726
-5.6513
-1.90405
-5.09858
-1.92343
-4.61664
-1.92266
-4.19274
-1.90721
-3.81651
-1.88108
-3.47958
-1.84712
-3.17525
-1.80731
-2.89827
-1.76276
-2.64475
-1.71427
-2.41145
-1.66326
-2.19537
-1.6113
-1.99411
-1.559
-1.80559
-1.50711
-1.62849
-1.45552
-1.46133
-1.40534
-1.30367
-1.35547
-1.1538
-1.30817
-1.01142
-1.26142
-0.876966
-1.21505
-0.750664
-1.16942
-0.629044
-1.12834
-0.509597
-1.09157
-0.391376
-1.05649
-0.273006
-1.02477
-0.155281
-0.997676
-0.0392304
-0.970307
0.0714657
-0.942946
0.172282
-0.91642
0.264305
-0.890758
0.349038
-0.865967
0.427114
-0.842109
0.499226
-0.819206
0.565971
-0.797269
0.62783
-0.776298
0.685225
-0.756282
0.738516
-0.737198
0.788017
-0.719013
0.834006
-0.701688
0.876728
-0.685179
0.91641
-0.669439
0.953265
-0.654419
0.987496
-0.640067
1.0193
-0.626331
1.04885
-0.613156
1.07633
-0.600489
1.1019
-0.588278
1.12572
-0.576468
1.14794
-0.565006
1.1687
-0.553838
1.18811
-0.54291
1.2063
-0.532174
1.22336
-0.521585
1.2394
-0.511101
1.25449
-0.50068
1.26874
-0.490281
1.28223
-0.479861
1.29503
-0.469381
1.30726
-0.458799
1.31902
-0.448078
1.33043
-0.437174
1.34163
-0.426051
1.35273
-0.414682
1.36383
-0.403044
1.37507
-0.391113
1.38654
-0.378867
1.39838
-0.366275
1.41068
-0.353304
1.42354
-0.339923
1.43706
-0.326108
1.45138
-0.311823
1.46659
-0.297023
1.48279
-0.28167
1.5
-0.265747
1.51823
-0.249254
1.53747
-0.232216
1.55768
-0.214673
1.5788
-0.196669
1.60074
-0.178257
1.62346
-0.159499
1.64694
-0.140474
1.67127
-0.121201
1.69669
-0.10169
1.72332
-0.0818279
-0.0616099
1.75145
-169.237
2.83455
-123.754
-18.2764
-94.7938
-12.6329
-71.7194
-11.0686
-54.6635
-8.98872
-42.1197
-7.20905
-32.7779
-6.02903
-25.7659
-5.17857
-20.4679
-4.55286
-16.4514
-4.08075
-13.432
-3.69821
-11.1452
-3.41497
-9.38049
-3.20522
-7.9846
-3.03804
-6.86294
-2.89644
-5.9502
-2.77123
-5.19812
-2.65753
-4.57045
-2.5527
-4.03973
-2.45519
-3.58507
-2.3639
-3.19059
-2.27784
-2.84426
-2.19598
-2.53709
-2.1173
-2.26236
-2.04062
-2.01531
-1.96477
-1.79223
-1.89016
-1.58879
-1.81896
-1.40177
-1.75069
-1.22842
-1.68561
-1.0671
-1.62255
-0.916816
-1.56196
-0.776445
-1.5029
-0.642165
-1.45032
-0.513169
-1.39924
-0.388158
-1.35006
-0.265445
-1.30318
-0.144746
-1.26025
-0.027158
-1.21985
0.0863166
-1.1802
0.193554
-1.14185
0.291511
-1.10507
0.381693
-1.06966
0.465322
-1.03553
0.542839
-1.00272
0.614692
-0.971254
0.681338
-0.941129
0.743172
-0.91235
0.800561
-0.884905
0.853843
-0.858775
0.903325
-0.833928
0.949285
-0.810325
0.99198
-0.787916
1.03164
-0.766646
1.06849
-0.746457
1.10271
-0.727284
1.1345
-0.709065
1.164
-0.691734
1.19139
-0.675229
1.21679
-0.659487
1.24035
-0.644449
1.26221
-0.630056
1.28249
-0.61625
1.30131
-0.602971
1.3188
-0.59016
1.33507
-0.577757
1.35022
-0.565704
1.36435
-0.553942
1.37755
-0.542417
1.3899
-0.531081
1.40148
-0.519889
1.41237
-0.508801
1.42265
-0.497779
1.43243
-0.486789
1.44178
-0.475795
1.45082
-0.46476
1.45964
-0.453646
1.46834
-0.442418
1.47703
-0.431038
1.48578
-0.419474
1.49467
-0.407695
1.50377
-0.395673
1.51317
-0.383377
1.52291
-0.370767
1.53306
-0.357805
1.54368
-0.344457
1.5548
-0.330694
1.56651
-0.316486
1.57889
-0.30181
1.59201
-0.286642
1.60595
-0.270971
1.62075
-0.254801
1.63645
-0.238151
1.65304
-0.221051
1.67054
-0.203544
1.68894
-0.185684
1.70821
-0.167528
1.72836
-0.149135
1.74943
-0.130535
1.77157
-0.111725
-0.0926743
1.795
-60.7632
-20.1693
-59.2283
-19.8113
-50.03
-21.8314
-39.5652
-21.5334
-31.1747
-17.3793
-25.1457
-13.2382
-20.5215
-10.6535
-16.8985
-8.80182
-14.0361
-7.41566
-11.7507
-6.36661
-9.88167
-5.56776
-8.3438
-4.95352
-7.07874
-4.47111
-6.03578
-4.08198
-5.17261
-3.76076
-4.45409
-3.49109
-3.85122
-3.26195
-3.34039
-3.0653
-2.90281
-2.89478
-2.5239
-2.74509
-2.19253
-2.61178
-1.90026
-2.49112
-1.64071
-2.38008
-1.40876
-2.27617
-1.201
-2.17656
-1.01477
-2.08087
-0.844181
-1.99453
-0.686277
-1.91415
-0.538719
-1.83938
-0.399291
-1.76895
-0.26636
-1.70277
-0.138576
-1.6391
-0.01715
-1.57998
0.0981993
-1.52253
0.207532
-1.46721
0.310929
-1.41426
0.406983
-1.3638
0.495482
-1.31571
0.57775
-1.26973
0.654436
-1.22573
0.725821
-1.1836
0.792302
-1.14324
0.854269
-1.10457
0.912041
-1.06754
0.965886
-1.03212
1.01604
-0.998287
1.06273
-0.966023
1.10616
-0.935302
1.14651
-0.906092
1.18398
-0.878354
1.21874
-0.852037
1.25096
-0.827086
1.28081
-0.803438
1.30843
-0.781029
1.33399
-0.759789
1.35762
-0.739646
1.37945
-0.720528
1.39963
-0.702362
1.41825
-0.68508
1.43544
-0.668614
1.45131
-0.652899
1.46594
-0.637872
1.47944
-0.623471
1.4919
-0.609631
1.50341
-0.596287
1.51406
-0.583379
1.52392
-0.570847
1.53308
-0.558632
1.54162
-0.546684
1.5496
-0.534955
1.55711
-0.523404
1.56421
-0.511993
1.57098
-0.500687
1.57749
-0.489449
1.58381
-0.478241
1.59001
-0.467028
1.59617
-0.455772
1.60236
-0.444438
1.60864
-0.432989
1.61508
-0.421385
1.62173
-0.409586
1.62862
-0.397552
1.6358
-0.385244
1.6433
-0.372625
1.65116
-0.359661
1.65944
-0.346325
1.66817
-0.332592
1.67741
-0.318447
1.68724
-0.30388
1.69773
-0.288888
1.70897
-0.273478
1.72102
-0.257657
1.73394
-0.24144
1.74776
-0.224846
1.76249
-0.207906
1.77812
-0.190659
1.79463
-0.173145
1.81198
-0.155394
1.83018
-0.13743
-0.119189
1.84929
36.5704
-2.74306
21.5495
-4.79052
10.8016
-11.0835
2.44975
-13.1818
-2.43686
-12.493
-4.58281
-11.0927
-5.31741
-9.91931
-5.38621
-8.73352
-5.14585
-7.6566
-4.76298
-6.75017
-4.31455
-6.01701
-3.84437
-5.42467
-3.38193
-4.93467
-2.94622
-4.519
-2.5471
-4.16138
-2.1873
-3.85262
-1.86495
-3.58628
-1.57615
-3.35635
-1.31681
-3.15668
-1.08347
-2.9813
-0.873347
-2.82515
-0.683873
-2.68424
-0.51248
-2.55557
-0.356158
-2.4371
-0.210856
-2.32706
-0.0738198
-2.22354
0.0551571
-2.12918
0.176485
-2.04107
0.289829
-1.95831
0.395464
-1.8802
0.493287
-1.80622
0.584549
-1.73595
0.668197
-1.66918
0.74569
-1.60559
0.817903
-1.545
0.885343
-1.48729
0.948264
-1.43234
1.00691
-1.38001
1.06161
-1.33012
1.11269
-1.28252
1.16041
-1.23707
1.20503
-1.19364
1.24676
-1.15212
1.2858
-1.11242
1.3223
-1.0745
1.3564
-1.0383
1.3882
-1.00377
1.4178
-0.970885
1.44529
-0.939603
1.47078
-0.909882
1.49434
-0.881674
1.51607
-0.85492
1.53605
-0.829562
1.5544
-0.805538
1.5712
-0.782783
1.58655
-0.761226
1.60057
-0.740794
1.61334
-0.721414
1.62496
-0.703012
1.63553
-0.685515
1.64512
-0.668854
1.65382
-0.652959
1.6617
-0.637765
1.66883
-0.623206
1.67529
-0.609216
1.68115
-0.595733
1.68648
-0.582695
1.69135
-0.570044
1.69582
-0.557727
1.69997
-0.545694
1.70384
-0.533899
1.7075
-0.5223
1.711
-0.510861
1.7144
-0.499546
1.71776
-0.488319
1.72112
-0.477144
1.72456
-0.46598
1.72811
-0.454785
1.73181
-0.443514
1.73571
-0.432127
1.73983
-0.420579
1.74421
-0.408826
1.74887
-0.396827
1.75384
-0.384542
1.75915
-0.371942
1.76484
-0.359005
1.77094
-0.345713
1.7775
-0.332052
1.78457
-0.31802
1.79222
-0.303626
1.8005
-0.288876
1.80948
-0.273772
1.8192
-0.25832
1.82971
-0.242528
1.84102
-0.226413
1.85315
-0.209998
1.86608
-0.193303
1.87979
-0.176346
1.89425
-0.159139
-0.141638
1.90953
28.9855
-1.36034
28.0755
-3.88053
23.0701
-6.07815
16.9837
-7.09548
11.9091
-7.4186
8.21802
-7.40187
5.47601
-7.1777
3.53657
-6.79462
2.22286
-6.34362
1.37061
-5.89887
0.842251
-5.48983
0.531248
-5.11508
0.362242
-4.76732
0.28603
-4.44468
0.271472
-4.14894
0.298093
-3.88157
0.351324
-3.64202
0.420226
-3.42794
0.496729
-3.23603
0.575358
-3.06293
0.652811
-2.90573
0.727409
-2.76209
0.798569
-2.63011
0.866228
-2.50826
0.930842
-2.39529
0.993837
-2.29022
1.05327
-2.19236
1.10921
-2.10083
1.16185
-2.01485
1.21142
-1.93375
1.25811
-1.85697
1.30211
-1.78409
1.34351
-1.71479
1.38247
-1.64884
1.41914
-1.58604
1.45366
-1.52625
1.48612
-1.46931
1.51661
-1.41509
1.54525
-1.36341
1.57213
-1.31413
1.59737
-1.2671
1.62107
-1.22219
1.64331
-1.17928
1.66418
-1.13827
1.68372
-1.09909
1.702
-1.06168
1.71905
-1.02598
1.73489
-0.991944
1.74954
-0.959525
1.76302
-0.928686
1.77535
-0.89938
1.78656
-0.871552
1.79667
-0.845148
1.80572
-0.820113
1.81375
-0.79639
1.82083
-0.773916
1.827
-0.752624
1.83232
-0.732444
1.83687
-0.713307
1.84072
-0.695144
1.84391
-0.67788
1.84653
-0.661444
1.84863
-0.645765
1.85025
-0.630775
1.85147
-0.616411
1.85233
-0.602611
1.8529
-0.589317
1.85323
-0.576472
1.8534
-0.56402
1.85346
-0.55191
1.85346
-0.540093
1.85345
-0.528522
1.85349
-0.517155
1.8536
-0.505949
1.85382
-0.494866
1.85419
-0.483868
1.85474
-0.472914
1.8555
-0.461961
1.8565
-0.450964
1.85777
-0.439872
1.85932
-0.428634
1.86115
-0.417199
1.86329
-0.405526
1.86573
-0.393582
1.8685
-0.381342
1.87163
-0.36879
1.87515
-0.355917
1.8791
-0.342714
1.88351
-0.329176
1.88841
-0.315304
1.89383
-0.301109
1.89982
-0.286595
1.90641
-0.271771
1.91365
-0.256651
1.92157
-0.241253
1.93022
-0.225588
1.93962
-0.209659
1.94977
-0.193481
1.9607
-0.177073
-0.160393
1.97253
24.3631
-0.854468
22.7074
-2.22487
19.9832
-3.35399
17.06
-4.1725
14.3407
-4.69945
11.9251
-4.98651
9.84564
-5.0986
8.13553
-5.08495
6.77696
-4.98558
5.7111
-4.83367
4.87283
-4.65234
4.21203
-4.4552
3.69398
-4.25031
3.29191
-4.04379
2.98264
-3.84099
2.74584
-3.64623
2.56456
-3.46235
2.42547
-3.2906
2.31857
-3.131
2.23645
-2.98281
2.17356
-2.84497
2.12564
-2.71642
2.08937
-2.5962
2.06219
-2.48357
2.04217
-2.37786
2.02777
-2.27852
2.01764
-2.18504
2.01077
-2.09687
2.00643
-2.01353
2.00408
-1.93452
2.00334
-1.85943
2.00388
-1.78794
2.00543
-1.71975
2.00778
-1.65469
2.01072
-1.59257
2.01408
-1.53328
2.0177
-1.4767
2.02147
-1.42271
2.02531
-1.37118
2.02914
-1.32198
2.03293
-1.27499
2.03663
-1.23007
2.04022
-1.18712
2.04365
-1.14603
2.04689
-1.10673
2.04988
-1.06915
2.0526
-1.03325
2.05501
-0.998961
2.05706
-0.966253
2.05872
-0.935086
2.05995
-0.905418
2.06073
-0.877199
2.06104
-0.850384
2.06086
-0.824928
2.06021
-0.800781
2.05908
-0.777885
2.05749
-0.756182
2.05545
-0.735611
2.05299
-0.716113
2.05017
-0.697627
2.04701
-0.680084
2.04357
-0.663412
2.03989
-0.647538
2.036
-0.632394
2.03196
-0.617916
2.02781
-0.604047
2.02358
-0.59073
2.01934
-0.577911
2.01514
-0.565537
2.01102
-0.553556
2.00704
-0.541919
2.00325
-0.530572
1.99968
-0.519466
1.99636
-0.50855
1.99331
-0.497775
1.99054
-0.487093
1.98806
-0.476459
1.98587
-0.46583
1.98396
-0.45516
1.98236
-0.444401
1.98106
-0.433505
1.98008
-0.422422
1.97942
-0.411105
1.97908
-0.399514
1.97906
-0.387628
1.97936
-0.375438
1.98001
-0.362943
1.98103
-0.350149
1.98246
-0.337057
1.98432
-0.323656
1.98664
-0.309944
1.98943
-0.295942
1.99276
-0.281683
1.99668
-0.267193
2.00125
-0.25248
2.00652
-0.237543
2.01254
-0.222391
2.01936
-0.207042
2.02705
-0.19153
-0.175842
2.0358
19.9051
-0.515725
19.064
-1.3838
17.8513
-2.14138
16.4023
-2.7236
14.8598
-3.15721
13.3373
-3.46423
11.9024
-3.66399
10.5933
-3.77617
9.4269
-3.81967
8.4043
-3.81159
7.51745
-3.7661
6.75534
-3.69378
6.10636
-3.60212
5.55835
-3.49668
5.09843
-3.38206
4.71345
-3.26235
4.39089
-3.14098
4.11965
-3.02067
3.89049
-2.90327
3.69596
-2.78981
3.5301
-2.68076
3.38815
-2.57621
3.2662
-2.47611
3.16101
-2.38033
3.06986
-2.28877
2.99048
-2.20131
2.92096
-2.11779
2.85975
-2.03803
2.80558
-1.96183
2.75746
-1.88896
2.71455
-1.81919
2.67618
-1.75233
2.64179
-1.68822
2.61087
-1.62672
2.583
-1.56774
2.55777
-1.51119
2.53484
-1.45701
2.51392
-1.40511
2.49476
-1.35542
2.47713
-1.30784
2.46085
-1.26229
2.44579
-1.21867
2.43181
-1.17687
2.41879
-1.13683
2.40661
-1.09845
2.39515
-1.06167
2.3843
-1.02645
2.37396
-0.992735
2.36401
-0.960501
2.35438
-0.929715
2.34497
-0.900344
2.33572
-0.872351
2.32657
-0.845699
2.31746
-0.820356
2.30837
-0.796282
2.29926
-0.773431
2.29011
-0.751747
2.2809
-0.731181
2.27164
-0.711686
2.26234
-0.693213
2.25301
-0.675703
2.24369
-0.659088
2.23439
-0.643296
2.22515
-0.628259
2.21599
-0.613915
2.20694
-0.600209
2.19805
-0.587089
2.18933
-0.574503
2.18085
-0.562401
2.17262
-0.550728
2.16469
-0.539431
2.15708
-0.528457
2.14984
-0.51775
2.14297
-0.507253
2.13649
-0.49691
2.1304
-0.486661
2.12469
-0.476451
2.11936
-0.466227
2.11436
-0.455941
2.1097
-0.44555
2.10535
-0.43501
2.10131
-0.424283
2.09761
-0.413332
2.09425
-0.402125
2.09123
-0.390631
2.08857
-0.378826
2.08623
-0.366702
2.08422
-0.354265
2.08253
-0.341541
2.08122
-0.328563
2.08037
-0.315354
2.08005
-0.301915
2.08028
-0.288244
2.08107
-0.274357
2.08246
-0.260283
2.08451
-0.246038
2.08729
-0.231642
2.09087
-0.217134
2.09538
-0.202586
-0.188033
2.1011
17.2639
-0.350084
16.8143
-0.934202
16.1178
-1.44502
15.2485
-1.85437
14.2813
-2.19021
13.2788
-2.46197
12.286
-2.67152
11.3335
-2.82401
10.4406
-2.92717
9.61755
-2.98897
8.86766
-3.01674
8.1902
-3.01692
7.58238
-2.99498
7.04044
-2.95549
6.55987
-2.90232
6.13546
-2.83886
5.76151
-2.76804
5.43217
-2.69243
5.14182
-2.61409
4.88535
-2.53462
4.65834
-2.45511
4.45698
-2.3763
4.27798
-2.29866
4.11849
-2.22249
3.97602
-2.14803
3.84835
-2.07546
3.73356
-2.00492
3.62998
-1.93647
3.5362
-1.87016
3.45102
-1.80599
3.37345
-1.74392
3.30265
-1.68391
3.23789
-1.62593
3.17853
-1.56993
3.12403
-1.51589
3.07387
-1.46377
3.02759
-1.41356
2.9848
-1.36523
2.94512
-1.31874
2.90823
-1.27405
2.87387
-1.2311
2.8418
-1.18984
2.81179
-1.1502
2.78367
-1.11211
2.75725
-1.07552
2.73237
-1.04036
2.70887
-1.0066
2.68661
-0.974196
2.66545
-0.94313
2.64524
-0.913371
2.62585
-0.884898
2.60719
-0.857691
2.58914
-0.831725
2.57162
-0.806979
2.55455
-0.783429
2.53789
-0.76104
2.52157
-0.739771
2.50557
-0.719577
2.48984
-0.70042
2.47437
-0.682266
2.45916
-0.665072
2.44422
-0.648784
2.42956
-0.633337
2.41521
-0.61866
2.40118
-0.604694
2.38749
-0.591382
2.37417
-0.578673
2.36121
-0.566516
2.34866
-0.554858
2.33651
-0.543649
2.3248
-0.532833
2.31354
-0.522357
2.30275
-0.512161
2.29242
-0.502185
2.28258
-0.492364
2.27321
-0.482634
2.26431
-0.472931
2.25585
-0.463198
2.24782
-0.453381
2.24019
-0.443437
2.23295
-0.433328
2.22608
-0.423018
2.21957
-0.412471
2.21342
-0.401656
2.2076
-0.390551
2.20216
-0.379156
2.19712
-0.36748
2.19252
-0.355531
2.18838
-0.343311
2.18469
-0.330826
2.18144
-0.318094
2.17863
-0.305147
2.17633
-0.292013
2.17455
-0.278702
2.17333
-0.265222
2.1727
-0.251603
2.17273
-0.237905
2.17354
-0.224211
2.17526
-0.210612
-0.19716
2.17814
15.2739
-0.245085
14.9953
-0.655619
14.5711
-1.02098
14.0411
-1.32449
13.4371
-1.58642
12.787
-1.81209
12.1152
-1.99996
11.4415
-2.15069
10.7813
-2.26734
10.1456
-2.35368
9.54181
-2.41342
8.97443
-2.45009
8.4459
-2.46705
7.95711
-2.46737
7.50789
-2.45385
7.09717
-2.42896
6.72315
-2.39491
6.38343
-2.35366
6.07524
-2.30694
5.79572
-2.25621
5.54208
-2.20266
5.31174
-2.14723
5.10235
-2.09062
4.9118
-2.03338
4.73819
-1.97593
4.57974
-1.91862
4.43488
-1.86173
4.30214
-1.8055
4.18024
-1.75012
4.06806
-1.69574
3.96462
-1.64249
3.86906
-1.59046
3.78065
-1.53971
3.69874
-1.49029
3.62275
-1.44225
3.55216
-1.39562
3.48648
-1.35041
3.42528
-1.30663
3.36816
-1.2643
3.31475
-1.2234
3.26471
-1.18391
3.21776
-1.14582
3.17363
-1.10908
3.13209
-1.07366
3.09293
-1.03952
3.05596
-1.00662
3.02099
-0.974938
2.98784
-0.944435
2.95635
-0.915094
2.92634
-0.8869
2.89768
-0.859842
2.87023
-0.833914
2.84386
-0.809105
2.81847
-0.7854
2.79395
-0.762787
2.77022
-0.741249
2.7472
-0.720764
2.72485
-0.701301
2.70311
-0.682824
2.68195
-0.665296
2.6613
-0.648685
2.64115
-0.63296
2.62152
-0.618077
2.6024
-0.60398
2.58383
-0.590612
2.56581
-0.577914
2.54836
-0.565828
2.53149
-0.5543
2.51519
-0.543271
2.49947
-0.532685
2.48431
-0.522485
2.46971
-0.512615
2.45566
-0.50302
2.44216
-0.493644
2.42922
-0.484428
2.41684
-0.475304
2.40501
-0.466206
2.39375
-0.457072
2.38302
-0.447845
2.37282
-0.438473
2.36313
-0.428911
2.35391
-0.419128
2.34518
-0.409104
2.33693
-0.398827
2.32921
-0.388284
2.32201
-0.377463
2.31535
-0.366365
2.30921
-0.354993
2.30363
-0.343358
2.29859
-0.331467
2.29409
-0.319316
2.29009
-0.30691
2.28654
-0.294273
2.28344
-0.281448
2.28081
-0.268485
2.27873
-0.255447
2.27726
-0.242401
2.27644
-0.2294
2.27627
-0.216471
-0.203645
2.27677
13.8078
-0.179543
13.633
-0.480878
13.3637
-0.751761
13.0205
-0.98146
12.6194
-1.18541
12.1749
-1.36784
11.7018
-1.52718
11.2136
-1.66272
10.7212
-1.77539
10.2339
-1.86671
9.75831
-1.9383
9.29956
-1.99186
8.86108
-2.02914
8.4451
-2.05202
8.05291
-2.06234
7.68509
-2.06187
7.34162
-2.05224
7.02199
-2.0349