/*--------------------------------*- C++ -*----------------------------------*\
| =========                 |                                                 |
| \\      /  F ield         | OpenFOAM: The Open Source CFD Toolbox           |
|  \\    /   O peration     | Version:  2412                                  |
|   \\  /    A nd           | Website:  www.openfoam.com                      |
|    \\/     M anipulation  |                                                 |
\*---------------------------------------------------------------------------*/
FoamFile
{
    version     2.0;
    format      ascii;
    arch        "LSB;label=32;scalar=64";
    class       volVectorField;
    location    "5";
    object      U;
}
// * * * * * * * * * * * * * * * * * * * * * * * * * * * * * * * * * * * * * //

dimensions      [0 1 -1 0 0 0 0];

internalField   nonuniform List<vector> 
20000
(
(-4444.15 -207.049 0)
(-183.533 -92.1216 0)
(-926.42 -47.6717 0)
(-820.585 -38.4312 0)
(-781.348 -39.8113 0)
(-738.788 -46.2115 0)
(-697.197 -47.882 0)
(-659.362 -42.653 0)
(-627.622 -34.6033 0)
(-602.407 -27.1062 0)
(-582.938 -21.0695 0)
(-567.715 -16.9604 0)
(-555.13 -14.785 0)
(-543.822 -14.3281 0)
(-532.696 -15.2077 0)
(-521.032 -17.0079 0)
(-508.44 -19.3234 0)
(-494.708 -21.7649 0)
(-479.706 -23.9885 0)
(-463.405 -25.7304 0)
(-445.897 -26.8307 0)
(-427.365 -27.2381 0)
(-408.066 -27.0074 0)
(-388.305 -26.2808 0)
(-368.422 -25.25 0)
(-348.76 -24.1136 0)
(-329.642 -23.0404 0)
(-311.355 -22.1414 0)
(-294.129 -21.4564 0)
(-278.125 -20.9625 0)
(-263.421 -20.5935 0)
(-250.01 -20.2668 0)
(-237.806 -19.9039 0)
(-226.682 -19.4415 0)
(-216.506 -18.8345 0)
(-207.133 -18.0577 0)
(-198.338 -17.1118 0)
(-189.74 -16.0384 0)
(-180.811 -14.933 0)
(-171.062 -13.9441 0)
(-160.339 -13.2465 0)
(-149.012 -12.9993 0)
(-137.859 -13.3039 0)
(-127.61 -14.1811 0)
(-118.492 -15.6068 0)
(-110.395 -17.6427 0)
(-103.561 -20.3999 0)
(-98.4623 -23.8565 0)
(-94.8082 -27.6603 0)
(-91.015 -31.529 0)
(-87.1667 -35.7127 0)
(-84.9576 -41.2802 0)
(-87.7599 -47.9344 0)
(-95.8796 -53.9425 0)
(-103.908 -56.1012 0)
(-116.005 -53.6066 0)
(-131.254 -49.6444 0)
(-147.398 -45.4905 0)
(-162.508 -41.5459 0)
(-170.84 -37.8399 0)
(-170.678 -33.1126 0)
(-153.284 -30.1771 0)
(-123.168 -28.1888 0)
(-96.0211 -26.3977 0)
(-74.4299 -24.7655 0)
(-55.368 -23.3272 0)
(-37.6182 -22.1436 0)
(-20.7729 -21.2874 0)
(-5.05215 -20.7787 0)
(9.19375 -20.5556 0)
(21.8982 -20.4915 0)
(33.4215 -20.4211 0)
(44.4535 -20.212 0)
(55.6742 -19.8095 0)
(67.4352 -19.2197 0)
(79.6473 -18.4736 0)
(91.9307 -17.5874 0)
(103.851 -16.5515 0)
(115.021 -15.3399 0)
(125.11 -13.9484 0)
(133.802 -12.405 0)
(140.844 -10.7388 0)
(146.196 -8.96487 0)
(150.09 -7.10946 0)
(152.895 -5.2302 0)
(154.907 -3.41045 0)
(156.259 -1.72671 0)
(156.948 -0.228436 0)
(156.908 1.06864 0)
(156.151 2.18793 0)
(154.748 3.16962 0)
(152.768 4.06166 0)
(150.294 4.91028 0)
(147.343 5.76432 0)
(143.856 6.69073 0)
(139.771 7.78275 0)
(135.038 9.1556 0)
(129.499 10.952 0)
(122.686 13.3829 0)
(114.753 16.7861 0)
(-3305.74 430.133 0)
(-93.1314 -252.329 0)
(-718.163 -203.086 0)
(-711.965 -218.616 0)
(-723.92 -230.181 0)
(-714.251 -236.427 0)
(-667.407 -211.549 0)
(-622.661 -163.875 0)
(-586.799 -118.637 0)
(-556.907 -88.1764 0)
(-534.411 -69.1019 0)
(-518.887 -57.6682 0)
(-507.271 -51.6777 0)
(-497.188 -49.7322 0)
(-487.092 -50.5917 0)
(-476.25 -53.2058 0)
(-464.389 -56.6218 0)
(-451.422 -60.011 0)
(-437.371 -62.7509 0)
(-422.368 -64.4721 0)
(-406.635 -65.0527 0)
(-390.461 -64.5734 0)
(-374.177 -63.2534 0)
(-358.08 -61.3902 0)
(-342.377 -59.2922 0)
(-327.164 -57.2292 0)
(-312.431 -55.4003 0)
(-298.092 -53.9173 0)
(-284.038 -52.8073 0)
(-270.195 -52.026 0)
(-256.54 -51.4791 0)
(-243.086 -51.0432 0)
(-229.862 -50.5817 0)
(-216.9 -49.9553 0)
(-204.263 -49.0254 0)
(-192.057 -47.6617 0)
(-180.396 -45.7585 0)
(-169.327 -43.2745 0)
(-158.775 -40.2817 0)
(-148.584 -37.002 0)
(-138.688 -33.7757 0)
(-129.236 -30.9816 0)
(-120.491 -28.9026 0)
(-112.529 -27.6756 0)
(-105.246 -27.3558 0)
(-98.6634 -28.0832 0)
(-93.0919 -29.8999 0)
(-88.5088 -32.4929 0)
(-84.8802 -35.3506 0)
(-81.1797 -38.7361 0)
(-77.7887 -42.7795 0)
(-74.2982 -48.2915 0)
(-72.2472 -53.85 0)
(-72.5826 -56.9277 0)
(-72.6734 -59.3386 0)
(-74.1905 -60.1419 0)
(-77.5404 -59.0449 0)
(-80.8953 -56.6874 0)
(-79.9679 -56.4431 0)
(-73.6931 -56.7126 0)
(-63.155 -54.362 0)
(-52.1698 -51.898 0)
(-41.6911 -50.0994 0)
(-31.8711 -48.6558 0)
(-22.5312 -47.3257 0)
(-13.4515 -46.0912 0)
(-4.4874 -44.9847 0)
(4.31882 -44.0893 0)
(12.7176 -43.4665 0)
(20.4661 -43.0605 0)
(27.5778 -42.705 0)
(34.328 -42.2045 0)
(41.1168 -41.4402 0)
(48.3213 -40.4199 0)
(56.1403 -39.2389 0)
(64.5106 -37.9949 0)
(73.1974 -36.7146 0)
(81.9233 -35.3524 0)
(90.3389 -33.8231 0)
(98.0184 -32.0429 0)
(104.611 -29.9592 0)
(109.96 -27.5312 0)
(114.11 -24.716 0)
(117.262 -21.5129 0)
(119.683 -18.0083 0)
(121.637 -14.3586 0)
(123.281 -10.7427 0)
(124.705 -7.29767 0)
(125.978 -4.08757 0)
(127.034 -1.15392 0)
(127.831 1.53322 0)
(128.433 4.04317 0)
(128.873 6.44468 0)
(129.115 8.80439 0)
(129.123 11.2073 0)
(128.886 13.7623 0)
(128.409 16.5829 0)
(127.685 19.7829 0)
(126.58 23.5147 0)
(126.281 28.0061 0)
(-164.284 284.574 0)
(315.041 245.234 0)
(301.411 237.653 0)
(121.553 177.852 0)
(-155.786 31.5993 0)
(-528.173 -328.229 0)
(-481.19 -320.825 0)
(-441.293 -244.881 0)
(-427.176 -172.569 0)
(-427.802 -126.413 0)
(-434.522 -98.2068 0)
(-439.446 -80.264 0)
(-441.421 -71.1509 0)
(-441.458 -68.8374 0)
(-439.238 -70.8823 0)
(-434.607 -75.3775 0)
(-427.503 -80.8203 0)
(-418.146 -86.1425 0)
(-406.967 -90.7002 0)
(-394.49 -94.2069 0)
(-381.227 -96.6206 0)
(-367.593 -98.039 0)
(-353.879 -98.6058 0)
(-340.247 -98.4597 0)
(-326.729 -97.7154 0)
(-313.274 -96.4593 0)
(-299.791 -94.7576 0)
(-286.197 -92.6668 0)
(-272.45 -90.2464 0)
(-258.572 -87.5592 0)
(-244.634 -84.6679 0)
(-230.727 -81.6314 0)
(-216.939 -78.5069 0)
(-203.339 -75.3526 0)
(-190.005 -72.223 0)
(-177.044 -69.1619 0)
(-164.584 -66.193 0)
(-152.75 -63.3331 0)
(-141.635 -60.5979 0)
(-131.281 -58.0587 0)
(-121.734 -55.8262 0)
(-113.038 -54.0405 0)
(-105.217 -52.8021 0)
(-98.2565 -52.1831 0)
(-92.072 -52.2194 0)
(-86.4737 -52.8862 0)
(-81.3737 -54.2378 0)
(-76.592 -56.2698 0)
(-72.3131 -58.8111 0)
(-67.9326 -61.5902 0)
(-64.2664 -63.5083 0)
(-60.1437 -64.4079 0)
(-55.8005 -64.7844 0)
(-50.978 -66.6496 0)
(-44.2056 -71.3222 0)
(-37.9575 -74.927 0)
(-32.5183 -76.5424 0)
(-27.6422 -76.7334 0)
(-22.8218 -75.9157 0)
(-18.1218 -74.559 0)
(-13.4615 -73.0067 0)
(-8.67428 -71.4286 0)
(-3.77846 -69.8986 0)
(1.175 -68.4242 0)
(6.2184 -66.9992 0)
(11.4453 -65.6161 0)
(16.8592 -64.2891 0)
(22.2885 -63.0491 0)
(27.5313 -61.8892 0)
(32.5274 -60.7248 0)
(37.3256 -59.4461 0)
(42.0049 -58.0021 0)
(46.6724 -56.4188 0)
(51.4658 -54.7751 0)
(56.5313 -53.1674 0)
(61.9666 -51.6673 0)
(67.7679 -50.2821 0)
(73.8216 -48.96 0)
(79.8979 -47.616 0)
(85.6468 -46.1204 0)
(90.7147 -44.3072 0)
(94.9221 -42.022 0)
(98.2732 -39.1671 0)
(100.853 -35.7165 0)
(102.772 -31.72 0)
(104.175 -27.2905 0)
(105.247 -22.5802 0)
(106.196 -17.7452 0)
(107.165 -12.9442 0)
(108.345 -8.27567 0)
(109.82 -3.8157 0)
(111.589 0.359649 0)
(113.567 4.2538 0)
(115.762 7.89898 0)
(118.056 11.3338 0)
(120.325 14.6015 0)
(122.462 17.7518 0)
(124.402 20.8481 0)
(126.036 23.9765 0)
(128.685 27.2515 0)
(876.852 152.214 0)
(908.344 295.348 0)
(786.679 384.229 0)
(632.564 418.93 0)
(476.769 407.594 0)
(305.416 340.158 0)
(201.417 303.494 0)
(99.1575 264.731 0)
(-194.353 56.7603 0)
(-303.505 -38.9762 0)
(-312.339 -25.4531 0)
(-349.31 -26.2826 0)
(-380.45 -35.3218 0)
(-399.658 -47.4748 0)
(-408.872 -60.5295 0)
(-410.762 -74.499 0)
(-407.344 -88.0084 0)
(-400.235 -100.151 0)
(-390.677 -110.522 0)
(-379.572 -119.017 0)
(-367.518 -125.676 0)
(-354.883 -130.604 0)
(-341.868 -133.932 0)
(-328.571 -135.799 0)
(-315.021 -136.346 0)
(-301.204 -135.723 0)
(-287.101 -134.084 0)
(-272.713 -131.587 0)
(-258.09 -128.395 0)
(-243.317 -124.654 0)
(-228.513 -120.499 0)
(-213.821 -116.048 0)
(-199.386 -111.423 0)
(-185.338 -106.745 0)
(-171.791 -102.146 0)
(-158.851 -97.7567 0)
(-146.612 -93.6831 0)
(-135.151 -90.0283 0)
(-124.506 -86.8247 0)
(-114.686 -84.1343 0)
(-105.708 -81.9967 0)
(-97.5498 -80.4359 0)
(-90.1673 -79.4335 0)
(-83.5418 -78.9039 0)
(-77.3685 -78.8769 0)
(-71.4728 -79.3693 0)
(-65.6982 -80.3137 0)
(-60.3513 -81.2636 0)
(-55.0521 -81.5704 0)
(-49.398 -81.3286 0)
(-43.5145 -81.6862 0)
(-35.6203 -83.767 0)
(-27.4044 -85.9705 0)
(-19.4683 -87.5002 0)
(-12.6318 -88.5663 0)
(-7.03571 -89.1618 0)
(-2.3848 -89.2716 0)
(1.68361 -88.9281 0)
(5.4236 -88.2443 0)
(8.99027 -87.3003 0)
(12.4849 -86.1256 0)
(15.9651 -84.7755 0)
(19.4455 -83.3002 0)
(22.9336 -81.7321 0)
(26.4697 -80.0929 0)
(30.0819 -78.4132 0)
(33.74 -76.7368 0)
(37.417 -75.0926 0)
(41.1303 -73.4652 0)
(44.8622 -71.8201 0)
(48.4837 -70.1325 0)
(51.8492 -68.3954 0)
(54.9478 -66.6236 0)
(57.9163 -64.8511 0)
(60.9459 -63.1194 0)
(64.2048 -61.466 0)
(67.8 -59.9109 0)
(71.7354 -58.4512 0)
(75.9136 -57.0535 0)
(80.1696 -55.6378 0)
(84.2807 -54.0621 0)
(88.0115 -52.1526 0)
(91.2021 -49.7654 0)
(93.81 -46.8174 0)
(95.8829 -43.2839 0)
(97.5158 -39.1801 0)
(98.8129 -34.5615 0)
(99.8696 -29.53 0)
(100.808 -24.2194 0)
(101.801 -18.7757 0)
(103.012 -13.3634 0)
(104.667 -8.06347 0)
(106.769 -3.0117 0)
(109.302 1.68653 0)
(112.092 5.99617 0)
(115.125 9.92579 0)
(118.254 13.5065 0)
(121.41 16.7967 0)
(124.475 19.8795 0)
(128.675 22.8516 0)
(1249.62 156.196 0)
(1299.2 400.812 0)
(1063.04 606.067 0)
(796.13 730.076 0)
(569.707 770.406 0)
(370.15 743.634 0)
(196.44 684.354 0)
(57.6066 607.999 0)
(-183.879 383.182 0)
(-273.079 244.61 0)
(-311.046 171.697 0)
(-361.552 107.174 0)
(-394.241 51.6159 0)
(-410.869 4.39789 0)
(-416.743 -35.3164 0)
(-415.465 -68.5695 0)
(-408.972 -96.4934 0)
(-399.376 -119.349 0)
(-387.762 -137.605 0)
(-374.785 -151.777 0)
(-360.921 -162.371 0)
(-346.502 -169.855 0)
(-331.731 -174.652 0)
(-316.71 -177.141 0)
(-301.484 -177.671 0)
(-286.07 -176.566 0)
(-270.495 -174.126 0)
(-254.805 -170.625 0)
(-239.071 -166.314 0)
(-223.399 -161.413 0)
(-207.924 -156.12 0)
(-192.806 -150.606 0)
(-178.199 -145.041 0)
(-164.227 -139.569 0)
(-150.992 -134.328 0)
(-138.576 -129.448 0)
(-126.987 -124.985 0)
(-116.207 -121.062 0)
(-106.201 -117.67 0)
(-96.8839 -114.823 0)
(-88.3027 -112.55 0)
(-80.4413 -110.734 0)
(-72.9295 -109.345 0)
(-65.9345 -108.391 0)
(-59.2007 -107.681 0)
(-52.6425 -106.745 0)
(-45.8812 -105.373 0)
(-39.6484 -104.085 0)
(-31.6872 -103.906 0)
(-23.4637 -104.393 0)
(-15.3942 -104.46 0)
(-7.97106 -104.261 0)
(-1.34087 -103.879 0)
(4.57066 -103.401 0)
(9.85675 -102.872 0)
(14.5782 -102.244 0)
(18.8096 -101.464 0)
(22.6432 -100.514 0)
(26.1733 -99.3993 0)
(29.4787 -98.1349 0)
(32.6193 -96.74 0)
(35.6372 -95.2361 0)
(38.5577 -93.6435 0)
(41.3978 -91.9786 0)
(44.1787 -90.2562 0)
(46.9248 -88.4985 0)
(49.6544 -86.7243 0)
(52.3743 -84.9424 0)
(55.0669 -83.1635 0)
(57.7004 -81.4056 0)
(60.24 -79.6745 0)
(62.6342 -77.9424 0)
(64.8449 -76.1648 0)
(66.8999 -74.3116 0)
(68.9049 -72.3817 0)
(70.9985 -70.3952 0)
(73.2847 -68.3823 0)
(75.8055 -66.3719 0)
(78.5559 -64.376 0)
(81.4974 -62.3856 0)
(84.5602 -60.3617 0)
(87.6302 -58.2219 0)
(90.5533 -55.8467 0)
(93.1893 -53.117 0)
(95.4761 -49.9453 0)
(97.4276 -46.2868 0)
(99.0732 -42.1412 0)
(100.438 -37.5448 0)
(101.566 -32.5616 0)
(102.526 -27.2891 0)
(103.431 -21.859 0)
(104.43 -16.4274 0)
(105.665 -11.1589 0)
(107.335 -6.09294 0)
(109.449 -1.3437 0)
(112.037 3.0334 0)
(114.998 7.05251 0)
(118.372 10.7478 0)
(121.961 14.1515 0)
(126.875 17.3004 0)
(1611.19 406.253 0)
(1721.75 1096.29 0)
(1373.13 1415.74 0)
(889.565 1538.61 0)
(450.595 1559.92 0)
(144.535 1466.85 0)
(-115.27 1195.43 0)
(-254.359 917.818 0)
(-369.26 663.524 0)
(-422.672 471.138 0)
(-452.557 324.003 0)
(-476.694 203.613 0)
(-483.185 106.256 0)
(-478.278 27.3233 0)
(-466.87 -37.5297 0)
(-450.527 -89.2613 0)
(-432.333 -129.021 0)
(-413.438 -159.278 0)
(-394.1 -181.892 0)
(-374.705 -198.331 0)
(-355.554 -209.767 0)
(-336.789 -217.139 0)
(-318.425 -221.198 0)
(-300.422 -222.547 0)
(-282.731 -221.701 0)
(-265.309 -219.116 0)
(-248.128 -215.188 0)
(-231.187 -210.252 0)
(-214.529 -204.612 0)
(-198.257 -198.533 0)
(-182.517 -192.26 0)
(-167.471 -185.963 0)
(-153.233 -179.794 0)
(-139.844 -173.831 0)
(-127.299 -168.193 0)
(-115.623 -162.993 0)
(-104.751 -158.205 0)
(-94.6622 -153.969 0)
(-85.3411 -150.245 0)
(-76.4239 -146.901 0)
(-67.8752 -144.073 0)
(-59.98 -141.565 0)
(-52.0305 -139.057 0)
(-44.101 -136.434 0)
(-36.9553 -133.63 0)
(-28.6755 -131.34 0)
(-20.2363 -129.94 0)
(-12.0583 -128.382 0)
(-4.35157 -126.644 0)
(2.69205 -124.79 0)
(9.10245 -122.905 0)
(14.9678 -121.057 0)
(20.3384 -119.258 0)
(25.2571 -117.499 0)
(29.762 -115.775 0)
(33.8837 -114.071 0)
(37.6511 -112.369 0)
(41.1024 -110.657 0)
(44.2843 -108.925 0)
(47.2432 -107.17 0)
(50.019 -105.39 0)
(52.6404 -103.588 0)
(55.1248 -101.765 0)
(57.4873 -99.9236 0)
(59.7481 -98.0668 0)
(61.9293 -96.1993 0)
(64.0478 -94.3277 0)
(66.1102 -92.4595 0)
(68.116 -90.5993 0)
(70.0648 -88.7442 0)
(71.9505 -86.8867 0)
(73.7552 -85.0124 0)
(75.46 -83.0946 0)
(77.0657 -81.1027 0)
(78.6085 -79.0163 0)
(80.1568 -76.8342 0)
(81.7861 -74.5716 0)
(83.5515 -72.2493 0)
(85.4681 -69.8858 0)
(87.5222 -67.4938 0)
(89.7037 -65.0788 0)
(92.0111 -62.6354 0)
(94.4127 -60.1314 0)
(96.8259 -57.4972 0)
(99.1538 -54.6458 0)
(101.318 -51.5077 0)
(103.258 -48.042 0)
(104.94 -44.2329 0)
(106.348 -40.0891 0)
(107.474 -35.6475 0)
(108.326 -30.9689 0)
(108.97 -26.1361 0)
(109.55 -21.2433 0)
(110.264 -16.3861 0)
(111.32 -11.646 0)
(112.903 -6.98271 0)
(115.033 -2.48293 0)
(117.711 1.78745 0)
(120.782 5.78872 0)
(125.424 9.50057 0)
(2701.48 -889.904 0)
(2648.83 1428.6 0)
(1069.06 3037.06 0)
(-181.327 3327.39 0)
(-573.778 2530.11 0)
(-723.839 1944.74 0)
(-814.955 1446.69 0)
(-825.078 1048.02 0)
(-813.075 737.812 0)
(-783.129 500.676 0)
(-741.898 319.855 0)
(-694.787 177.183 0)
(-643.623 60.3913 0)
(-594.604 -37.9186 0)
(-545.535 -110.302 0)
(-501.778 -162.539 0)
(-463.667 -201.07 0)
(-429.417 -228.978 0)
(-398.292 -248.576 0)
(-369.864 -261.672 0)
(-343.753 -269.669 0)
(-319.614 -273.65 0)
(-297.119 -274.458 0)
(-275.962 -272.742 0)
(-255.897 -269.048 0)
(-236.739 -263.87 0)
(-218.364 -257.64 0)
(-200.699 -250.723 0)
(-183.741 -243.464 0)
(-167.57 -236.126 0)
(-152.262 -228.942 0)
(-137.829 -221.979 0)
(-124.29 -215.351 0)
(-111.655 -208.977 0)
(-99.8911 -202.93 0)
(-88.9779 -197.259 0)
(-78.7275 -191.88 0)
(-69.1436 -186.942 0)
(-60.3683 -182.419 0)
(-51.5968 -177.911 0)
(-42.743 -173.588 0)
(-34.6178 -169.301 0)
(-25.9115 -165.245 0)
(-16.957 -161.958 0)
(-8.38056 -158.826 0)
(-0.269954 -155.594 0)
(7.19288 -152.282 0)
(14.0093 -148.952 0)
(20.2642 -145.676 0)
(26.0168 -142.485 0)
(31.3145 -139.387 0)
(36.1994 -136.391 0)
(40.7064 -133.504 0)
(44.8659 -130.725 0)
(48.7061 -128.053 0)
(52.2506 -125.48 0)
(55.5186 -122.994 0)
(58.5313 -120.583 0)
(61.3158 -118.234 0)
(63.9001 -115.937 0)
(66.309 -113.684 0)
(68.5631 -111.47 0)
(70.6789 -109.29 0)
(72.6703 -107.137 0)
(74.5505 -105.005 0)
(76.3334 -102.89 0)
(78.0335 -100.791 0)
(79.6656 -98.7056 0)
(81.2421 -96.629 0)
(82.766 -94.5543 0)
(84.2331 -92.4733 0)
(85.6383 -90.3756 0)
(86.977 -88.2467 0)
(88.249 -86.0695 0)
(89.4702 -83.8269 0)
(90.6775 -81.5084 0)
(91.9167 -79.1137 0)
(93.2283 -76.6522 0)
(94.6396 -74.1387 0)
(96.1601 -71.5857 0)
(97.7799 -69.0015 0)
(99.4935 -66.3944 0)
(101.321 -63.7701 0)
(103.274 -61.1174 0)
(105.304 -58.4023 0)
(107.327 -55.5796 0)
(109.254 -52.6045 0)
(111.009 -49.4388 0)
(112.519 -46.0575 0)
(113.732 -42.4486 0)
(114.636 -38.6111 0)
(115.267 -34.5552 0)
(115.709 -30.3026 0)
(116.098 -25.8964 0)
(116.615 -21.3937 0)
(117.424 -16.8707 0)
(118.645 -12.3789 0)
(120.319 -7.90096 0)
(122.406 -3.54485 0)
(126.078 0.611821 0)
(-15132.2 -1029.89 0)
(580.103 6960.66 0)
(-4053.58 5004.45 0)
(-3187.87 3962.02 0)
(-2693.8 2857.49 0)
(-2249.87 2053.41 0)
(-1903.37 1447.82 0)
(-1614.88 989.696 0)
(-1380.07 637.484 0)
(-1186.13 358.871 0)
(-1026.48 131.557 0)
(-889.643 -32.128 0)
(-773.454 -141.668 0)
(-675.682 -210.693 0)
(-596.567 -258.807 0)
(-530.901 -292.61 0)
(-475.197 -315.518 0)
(-427.359 -330.174 0)
(-385.849 -338.594 0)
(-349.462 -342.276 0)
(-317.264 -342.326 0)
(-288.541 -339.569 0)
(-262.703 -334.631 0)
(-239.219 -327.969 0)
(-217.639 -319.983 0)
(-197.63 -311.124 0)
(-179.029 -301.81 0)
(-161.739 -292.374 0)
(-145.639 -283.133 0)
(-130.584 -274.249 0)
(-116.466 -265.921 0)
(-103.119 -257.996 0)
(-90.576 -250.637 0)
(-78.8246 -243.536 0)
(-67.8453 -236.727 0)
(-57.578 -230.05 0)
(-47.6348 -223.435 0)
(-38.204 -217.025 0)
(-29.7229 -210.785 0)
(-20.7102 -204.67 0)
(-11.7084 -199.427 0)
(-3.06702 -194.401 0)
(5.19083 -189.463 0)
(12.9378 -184.603 0)
(20.1195 -179.827 0)
(26.7593 -175.168 0)
(32.8874 -170.645 0)
(38.536 -166.252 0)
(43.7435 -161.994 0)
(48.5464 -157.873 0)
(52.9773 -153.893 0)
(57.0649 -150.055 0)
(60.8348 -146.36 0)
(64.3112 -142.807 0)
(67.5179 -139.395 0)
(70.4779 -136.121 0)
(73.2119 -132.977 0)
(75.7389 -129.954 0)
(78.0764 -127.041 0)
(80.2415 -124.228 0)
(82.2508 -121.505 0)
(84.1195 -118.866 0)
(85.8618 -116.3 0)
(87.4907 -113.798 0)
(89.0178 -111.353 0)
(90.453 -108.954 0)
(91.8064 -106.593 0)
(93.0902 -104.262 0)
(94.3173 -101.954 0)
(95.4963 -99.6619 0)
(96.6299 -97.377 0)
(97.7152 -95.0894 0)
(98.7497 -92.7885 0)
(99.7387 -90.4626 0)
(100.699 -88.0996 0)
(101.655 -85.691 0)
(102.633 -83.2341 0)
(103.656 -80.7317 0)
(104.736 -78.1905 0)
(105.884 -75.6203 0)
(107.103 -73.0292 0)
(108.397 -70.4188 0)
(109.78 -67.7887 0)
(111.268 -65.1413 0)
(112.851 -62.4754 0)
(114.482 -59.7781 0)
(116.088 -57.0276 0)
(117.596 -54.1971 0)
(118.94 -51.2538 0)
(120.064 -48.1611 0)
(120.939 -44.8851 0)
(121.58 -41.3998 0)
(122.043 -37.6906 0)
(122.399 -33.7613 0)
(122.74 -29.6393 0)
(123.173 -25.3815 0)
(123.812 -21.0455 0)
(124.711 -16.7025 0)
(125.861 -12.3716 0)
(128.472 -8.074 0)
(-47459.4 8397.64 0)
(-644.331 1199.42 0)
(-9645.53 505.636 0)
(-6365.84 122.072 0)
(-4963.78 -122.867 0)
(-3810.16 -267.473 0)
(-2961.88 -375.41 0)
(-2321.42 -447.602 0)
(-1836.67 -490.521 0)
(-1467.41 -507.658 0)
(-1185.31 -499.921 0)
(-973.44 -492.131 0)
(-812.284 -488.101 0)
(-686.952 -484.402 0)
(-587.513 -479.365 0)
(-507.277 -472.601 0)
(-441.575 -464.299 0)
(-386.965 -454.796 0)
(-340.851 -444.417 0)
(-301.286 -433.408 0)
(-266.867 -421.917 0)
(-236.653 -410.02 0)
(-209.958 -397.771 0)
(-186.217 -385.164 0)
(-164.936 -372.235 0)
(-145.69 -359.282 0)
(-128.345 -346.682 0)
(-112.754 -334.571 0)
(-98.6873 -323.143 0)
(-85.7505 -312.337 0)
(-73.6661 -302.361 0)
(-61.8971 -292.712 0)
(-50.5509 -283.83 0)
(-39.7035 -275.177 0)
(-29.5689 -266.758 0)
(-19.708 -258.337 0)
(-9.93915 -250.345 0)
(-0.83782 -242.895 0)
(7.64222 -235.611 0)
(15.5256 -228.513 0)
(22.8461 -221.608 0)
(29.6678 -214.929 0)
(36.0792 -208.516 0)
(42.1249 -202.384 0)
(47.8149 -196.52 0)
(53.1464 -190.904 0)
(58.1169 -185.521 0)
(62.7319 -180.354 0)
(67.0064 -175.392 0)
(70.9595 -170.623 0)
(74.6098 -166.037 0)
(77.9738 -161.624 0)
(81.0665 -157.377 0)
(83.9038 -153.289 0)
(86.5046 -149.356 0)
(88.8902 -145.575 0)
(91.0818 -141.942 0)
(93.098 -138.45 0)
(94.9544 -135.092 0)
(96.6645 -131.858 0)
(98.2412 -128.74 0)
(99.6966 -125.728 0)
(101.042 -122.813 0)
(102.289 -119.984 0)
(103.449 -117.233 0)
(104.53 -114.55 0)
(105.543 -111.926 0)
(106.497 -109.351 0)
(107.402 -106.817 0)
(108.268 -104.316 0)
(109.098 -101.839 0)
(109.895 -99.379 0)
(110.661 -96.9248 0)
(111.401 -94.4669 0)
(112.126 -91.9968 0)
(112.847 -89.5103 0)
(113.583 -87.0064 0)
(114.35 -84.4859 0)
(115.154 -81.9493 0)
(116 -79.3968 0)
(116.892 -76.8285 0)
(117.84 -74.2424 0)
(118.855 -71.6362 0)
(119.942 -69.0101 0)
(121.09 -66.3674 0)
(122.27 -63.7088 0)
(123.434 -61.028 0)
(124.54 -58.31 0)
(125.552 -55.5298 0)
(126.436 -52.6567 0)
(127.172 -49.6552 0)
(127.766 -46.4866 0)
(128.242 -43.121 0)
(128.634 -39.5464 0)
(128.975 -35.7728 0)
(129.306 -31.8317 0)
(129.676 -27.7719 0)
(130.132 -23.6437 0)
(130.66 -19.4952 0)
(132.452 -15.3814 0)
(-23930.6 -10791.1 0)
(1653.91 -6460.71 0)
(-5213.82 -4952.11 0)
(-3620.73 -4196.97 0)
(-2862.15 -3267.44 0)
(-2264.33 -2501.78 0)
(-1832.23 -1982.34 0)
(-1498.76 -1607.51 0)
(-1236.99 -1335.9 0)
(-1027.72 -1139.91 0)
(-858.656 -997.714 0)
(-720.775 -892.026 0)
(-608.062 -810.468 0)
(-516.119 -745.064 0)
(-440.99 -690.982 0)
(-379.197 -645.341 0)
(-327.797 -606.339 0)
(-284.375 -572.73 0)
(-247.023 -543.54 0)
(-214.309 -517.931 0)
(-185.263 -495.155 0)
(-159.359 -474.558 0)
(-136.248 -455.606 0)
(-115.663 -437.81 0)
(-97.3791 -420.689 0)
(-80.9529 -404.111 0)
(-66.3867 -388.573 0)
(-53.5112 -373.894 0)
(-42.1185 -360.137 0)
(-31.6876 -347.043 0)
(-22.0503 -334.778 0)
(-11.9575 -322.654 0)
(-2.22004 -311.85 0)
(7.18907 -301.531 0)
(16.1839 -291.631 0)
(24.6515 -282.089 0)
(32.4942 -272.836 0)
(39.651 -263.841 0)
(46.1406 -255.109 0)
(52.0373 -246.662 0)
(57.4323 -238.528 0)
(62.4237 -230.723 0)
(67.1018 -223.266 0)
(71.5324 -216.169 0)
(75.7491 -209.429 0)
(79.7559 -203.032 0)
(83.5417 -196.958 0)
(87.0963 -191.183 0)
(90.4183 -185.687 0)
(93.5126 -180.446 0)
(96.3854 -175.439 0)
(99.0404 -170.645 0)
(101.479 -166.045 0)
(103.703 -161.625 0)
(105.721 -157.372 0)
(107.547 -153.28 0)
(109.2 -149.341 0)
(110.699 -145.55 0)
(112.061 -141.9 0)
(113.301 -138.385 0)
(114.429 -134.995 0)
(115.457 -131.721 0)
(116.395 -128.553 0)
(117.251 -125.483 0)
(118.032 -122.5 0)
(118.746 -119.595 0)
(119.403 -116.762 0)
(120.013 -113.992 0)
(120.587 -111.277 0)
(121.135 -108.612 0)
(121.663 -105.988 0)
(122.175 -103.397 0)
(122.674 -100.832 0)
(123.163 -98.2847 0)
(123.643 -95.7482 0)
(124.119 -93.2171 0)
(124.6 -90.6878 0)
(125.099 -88.1585 0)
(125.628 -85.6272 0)
(126.191 -83.0899 0)
(126.79 -80.5414 0)
(127.429 -77.977 0)
(128.113 -75.3938 0)
(128.839 -72.7918 0)
(129.597 -70.1729 0)
(130.367 -67.5373 0)
(131.123 -64.8811 0)
(131.849 -62.1911 0)
(132.528 -59.4491 0)
(133.143 -56.6349 0)
(133.7 -53.7232 0)
(134.213 -50.6835 0)
(134.687 -47.4889 0)
(135.107 -44.1266 0)
(135.458 -40.6037 0)
(135.743 -36.9443 0)
(135.983 -33.1793 0)
(136.198 -29.3373 0)
(136.36 -25.4499 0)
(137.598 -21.5318 0)
(3433.86 1783.36 0)
(3221.5 -1305.87 0)
(1455.25 -3295.97 0)
(323.846 -3923.71 0)
(-131.712 -3389.82 0)
(-309.124 -2673.07 0)
(-396.625 -2225.73 0)
(-428.16 -1875.07 0)
(-427.674 -1595.61 0)
(-405.271 -1377.56 0)
(-368.914 -1209.91 0)
(-326.671 -1079.97 0)
(-284.434 -976.314 0)
(-245.414 -890.661 0)
(-211.021 -817.916 0)
(-181.407 -755.269 0)
(-155.901 -701.154 0)
(-133.495 -654.52 0)
(-113.217 -614.426 0)
(-94.3322 -579.908 0)
(-76.5155 -550.005 0)
(-59.852 -523.788 0)
(-44.427 -500.371 0)
(-30.2496 -479.012 0)
(-17.3369 -458.954 0)
(-5.03395 -439.405 0)
(5.85011 -421.629 0)
(15.5126 -404.872 0)
(24.0808 -389.014 0)
(31.7604 -373.986 0)
(38.8008 -359.749 0)
(45.429 -346.261 0)
(51.8002 -333.492 0)
(57.9841 -321.411 0)
(63.9899 -309.965 0)
(69.7569 -299.083 0)
(75.1924 -288.688 0)
(80.2082 -278.712 0)
(84.7539 -269.104 0)
(88.8316 -259.839 0)
(92.4868 -250.914 0)
(95.7909 -242.335 0)
(98.8246 -234.121 0)
(101.667 -226.292 0)
(104.38 -218.86 0)
(106.993 -211.825 0)
(109.507 -205.174 0)
(111.909 -198.888 0)
(114.191 -192.946 0)
(116.35 -187.322 0)
(118.383 -181.99 0)
(120.285 -176.922 0)
(122.044 -172.093 0)
(123.649 -167.477 0)
(125.092 -163.053 0)
(126.376 -158.806 0)
(127.509 -154.722 0)
(128.508 -150.791 0)
(129.388 -147.006 0)
(130.163 -143.358 0)
(130.846 -139.839 0)
(131.447 -136.441 0)
(131.976 -133.153 0)
(132.438 -129.965 0)
(132.839 -126.869 0)
(133.185 -123.854 0)
(133.483 -120.912 0)
(133.741 -118.038 0)
(133.973 -115.226 0)
(134.188 -112.47 0)
(134.395 -109.767 0)
(134.598 -107.109 0)
(134.802 -104.492 0)
(135.007 -101.909 0)
(135.215 -99.3521 0)
(135.427 -96.8145 0)
(135.646 -94.2893 0)
(135.88 -91.7712 0)
(136.136 -89.2557 0)
(136.421 -86.7379 0)
(136.739 -84.2118 0)
(137.09 -81.6717 0)
(137.47 -79.1136 0)
(137.875 -76.5361 0)
(138.294 -73.9368 0)
(138.718 -71.3123 0)
(139.139 -68.656 0)
(139.559 -65.9565 0)
(139.967 -63.2012 0)
(140.356 -60.3758 0)
(140.739 -57.4655 0)
(141.134 -54.4568 0)
(141.529 -51.3391 0)
(141.881 -48.1094 0)
(142.139 -44.7753 0)
(142.288 -41.3527 0)
(142.349 -37.8572 0)
(142.344 -34.3036 0)
(142.245 -30.6936 0)
(143.071 -27.0231 0)
(2292.19 -635.389 0)
(2567.93 -1405.93 0)
(2180.47 -1757.15 0)
(1607.86 -1887.37 0)
(1105.67 -1923.29 0)
(769.109 -1886.21 0)
(549.769 -1779 0)
(380.771 -1625.99 0)
(244.287 -1460.76 0)
(143.899 -1309.41 0)
(80.8853 -1182.89 0)
(47.6289 -1079.51 0)
(33.4232 -992.899 0)
(29.7038 -917.771 0)
(30.7234 -851.117 0)
(33.1358 -791.527 0)
(35.5622 -738.345 0)
(37.8693 -691.132 0)
(40.4661 -649.42 0)
(43.8063 -612.65 0)
(48.1146 -580.22 0)
(53.3826 -551.491 0)
(59.4487 -525.786 0)
(65.9869 -502.478 0)
(72.6246 -481.03 0)
(79.0337 -461.011 0)
(84.89 -442.112 0)
(89.9752 -424.145 0)
(94.2519 -407.014 0)
(97.826 -390.68 0)
(100.898 -375.15 0)
(103.697 -360.437 0)
(106.426 -346.549 0)
(109.219 -333.464 0)
(112.125 -321.135 0)
(115.111 -309.491 0)
(118.087 -298.449 0)
(120.939 -287.925 0)
(123.561 -277.844 0)
(125.892 -268.152 0)
(127.917 -258.819 0)
(129.662 -249.832 0)
(131.172 -241.194 0)
(132.513 -232.921 0)
(133.758 -225.034 0)
(134.963 -217.543 0)
(136.152 -210.453 0)
(137.325 -203.756 0)
(138.479 -197.439 0)
(139.609 -191.482 0)
(140.71 -185.863 0)
(141.774 -180.556 0)
(142.782 -175.535 0)
(143.715 -170.773 0)
(144.552 -166.244 0)
(145.282 -161.922 0)
(145.901 -157.786 0)
(146.413 -153.819 0)
(146.826 -150.007 0)
(147.15 -146.34 0)
(147.399 -142.807 0)
(147.582 -139.401 0)
(147.709 -136.108 0)
(147.787 -132.92 0)
(147.817 -129.825 0)
(147.805 -126.812 0)
(147.753 -123.872 0)
(147.668 -120.998 0)
(147.559 -118.185 0)
(147.437 -115.43 0)
(147.313 -112.729 0)
(147.193 -110.079 0)
(147.086 -107.477 0)
(146.993 -104.916 0)
(146.916 -102.389 0)
(146.854 -99.8884 0)
(146.806 -97.4051 0)
(146.776 -94.9309 0)
(146.769 -92.4584 0)
(146.789 -89.9817 0)
(146.84 -87.495 0)
(146.918 -84.992 0)
(147.017 -82.4669 0)
(147.133 -79.9143 0)
(147.262 -77.329 0)
(147.401 -74.7041 0)
(147.55 -72.0309 0)
(147.713 -69.3041 0)
(147.885 -66.5211 0)
(148.062 -63.676 0)
(148.25 -60.7626 0)
(148.455 -57.7797 0)
(148.66 -54.7305 0)
(148.81 -51.6226 0)
(148.846 -48.4655 0)
(148.754 -45.2641 0)
(148.562 -42.0194 0)
(148.31 -38.7285 0)
(148.004 -35.3746 0)
(148.548 -31.9214 0)
(1895.75 -188.596 0)
(2091.54 -493.765 0)
(1799.55 -780.753 0)
(1467.7 -986.669 0)
(1217.83 -1103.8 0)
(1032.71 -1158.76 0)
(879.404 -1174.49 0)
(741.394 -1161.37 0)
(616.297 -1127.03 0)
(508.046 -1079.28 0)
(420.655 -1025.16 0)
(354.804 -969.578 0)
(307.74 -915.253 0)
(274.908 -863.408 0)
(251.502 -814.441 0)
(233.544 -768.414 0)
(218.457 -725.339 0)
(205.041 -685.271 0)
(193.076 -648.288 0)
(182.815 -614.416 0)
(174.577 -583.585 0)
(168.511 -555.606 0)
(164.543 -530.192 0)
(162.394 -506.998 0)
(161.636 -485.647 0)
(161.762 -465.781 0)
(162.264 -447.091 0)
(162.724 -429.337 0)
(162.878 -412.359 0)
(162.64 -396.079 0)
(162.075 -380.484 0)
(161.353 -365.597 0)
(160.674 -351.453 0)
(160.212 -338.069 0)
(160.073 -325.441 0)
(160.277 -313.529 0)
(160.763 -302.271 0)
(161.419 -291.587 0)
(162.113 -281.397 0)
(162.733 -271.633 0)
(163.209 -262.241 0)
(163.511 -253.189 0)
(163.641 -244.465 0)
(163.63 -236.071 0)
(163.537 -228.022 0)
(163.425 -220.331 0)
(163.334 -213.01 0)
(163.284 -206.064 0)
(163.285 -199.494 0)
(163.342 -193.291 0)
(163.45 -187.439 0)
(163.6 -181.922 0)
(163.775 -176.721 0)
(163.955 -171.816 0)
(164.119 -167.182 0)
(164.247 -162.793 0)
(164.323 -158.621 0)
(164.338 -154.644 0)
(164.286 -150.841 0)
(164.168 -147.198 0)
(163.992 -143.7 0)
(163.767 -140.337 0)
(163.502 -137.097 0)
(163.206 -133.969 0)
(162.88 -130.941 0)
(162.527 -128.001 0)
(162.148 -125.139 0)
(161.743 -122.343 0)
(161.319 -119.608 0)
(160.882 -116.927 0)
(160.441 -114.297 0)
(160.007 -111.716 0)
(159.588 -109.182 0)
(159.191 -106.691 0)
(158.822 -104.238 0)
(158.481 -101.816 0)
(158.167 -99.4143 0)
(157.878 -97.0218 0)
(157.613 -94.628 0)
(157.37 -92.2238 0)
(157.151 -89.8017 0)
(156.957 -87.355 0)
(156.785 -84.8777 0)
(156.629 -82.3631 0)
(156.49 -79.8052 0)
(156.371 -77.1979 0)
(156.266 -74.5362 0)
(156.167 -71.8202 0)
(156.071 -69.0537 0)
(155.983 -66.2435 0)
(155.907 -63.3915 0)
(155.84 -60.4984 0)
(155.75 -57.575 0)
(155.583 -54.637 0)
(155.301 -51.6908 0)
(154.908 -48.7295 0)
(154.45 -45.7373 0)
(153.996 -42.6892 0)
(153.595 -39.5447 0)
(154.045 -36.2425 0)
(1555.42 -134.524 0)
(1710.06 -358.083 0)
(1533.68 -546.349 0)
(1349.39 -678.877 0)
(1216.53 -768.564 0)
(1111.72 -827.643 0)
(1015.37 -862.877 0)
(919.107 -878.328 0)
(821.471 -877.741 0)
(726.145 -865.1 0)
(639.066 -844.271 0)
(564.884 -818.488 0)
(505.18 -790.08 0)
(458.69 -760.496 0)
(422.463 -730.526 0)
(393.14 -700.568 0)
(367.943 -670.879 0)
(345.165 -641.728 0)
(324.147 -613.424 0)
(304.932 -586.284 0)
(287.857 -560.573 0)
(273.244 -536.463 0)
(261.236 -514.013 0)
(251.754 -493.168 0)
(244.499 -473.779 0)
(239.003 -455.634 0)
(234.71 -438.498 0)
(231.073 -422.151 0)
(227.651 -406.425 0)
(224.168 -391.22 0)
(220.535 -376.506 0)
(216.817 -362.307 0)
(213.178 -348.672 0)
(209.807 -335.656 0)
(206.865 -323.294 0)
(204.434 -311.592 0)
(202.511 -300.523 0)
(201.014 -290.033 0)
(199.812 -280.053 0)
(198.765 -270.511 0)
(197.76 -261.347 0)
(196.716 -252.515 0)
(195.589 -243.989 0)
(194.372 -235.759 0)
(193.099 -227.827 0)
(191.825 -220.204 0)
(190.589 -212.9 0)
(189.417 -205.926 0)
(188.332 -199.291 0)
(187.353 -192.996 0)
(186.486 -187.035 0)
(185.717 -181.399 0)
(185.029 -176.078 0)
(184.407 -171.064 0)
(183.839 -166.339 0)
(183.31 -161.881 0)
(182.799 -157.665 0)
(182.284 -153.668 0)
(181.749 -149.869 0)
(181.185 -146.248 0)
(180.588 -142.789 0)
(179.962 -139.475 0)
(179.312 -136.296 0)
(178.646 -133.24 0)
(177.97 -130.297 0)
(177.286 -127.455 0)
(176.594 -124.702 0)
(175.893 -122.026 0)
(175.183 -119.415 0)
(174.466 -116.859 0)
(173.744 -114.352 0)
(173.021 -111.888 0)
(172.307 -109.465 0)
(171.61 -107.08 0)
(170.941 -104.73 0)
(170.306 -102.411 0)
(169.71 -100.115 0)
(169.152 -97.8308 0)
(168.628 -95.5455 0)
(168.132 -93.2449 0)
(167.658 -90.9165 0)
(167.202 -88.55 0)