/*--------------------------------*- C++ -*----------------------------------*\
| =========                 |                                                 |
| \\      /  F ield         | OpenFOAM: The Open Source CFD Toolbox           |
|  \\    /   O peration     | Version:  2412                                  |
|   \\  /    A nd           | Website:  www.openfoam.com                      |
|    \\/     M anipulation  |                                                 |
\*---------------------------------------------------------------------------*/
FoamFile
{
    version     2.0;
    format      ascii;
    arch        "LSB;label=32;scalar=64";
    class       volScalarField;
    location    "1";
    object      p;
}
// * * * * * * * * * * * * * * * * * * * * * * * * * * * * * * * * * * * * * //

dimensions      [1 -1 -2 0 0 0 0];

internalField   nonuniform List<scalar> 
200
(
1.13124
0.931435
1.0485
0.982045
1.01855
1.00051
1.00813
1.00586
1.00616
1.00633
1.13122
0.931399
1.04848
0.98211
1.01847
1.00054
1.00802
1.00585
1.00605
1.00619
1.13118
0.931472
1.04843
0.982071
1.01841
1.00059
1.00794
1.00586
1.00601
1.00616
1.13113
0.931472
1.04838
0.982166
1.01831
1.00064
1.00784
1.00587
1.00596
1.0061
1.13108
0.931544
1.04833
0.982183
1.01824
1.00071
1.00778
1.0059
1.00595
1.00609
1.13103
0.931597
1.04827
0.982229
1.01818
1.00077
1.00772
1.00593
1.00594
1.00608
1.13099
0.931619
1.04824
0.982313
1.01811
1.00083
1.00768
1.00596
1.00594
1.00608
1.13095
0.931678
1.0482
0.982324
1.01809
1.00088
1.00765
1.00599
1.00594
1.00609
1.13093
0.931721
1.04818
0.982315
1.01807
1.00092
1.00762
1.00602
1.00595
1.00609
1.13091
0.931674
1.0482
0.982426
1.01801
1.00097
1.0076
1.00603
1.00595
1.00609
1.00646
1.00632
1.00625
1.00624
1.00626
1.00629
1.00634
1.00641
1.00649
1.00659
1.00625
1.00621
1.0062
1.00622
1.00626
1.00631
1.00637
1.00645
1.00653
1.00664
1.00623
1.00622
1.00623
1.00625
1.00628
1.00633
1.00639
1.00647
1.00655
1.00665
1.00618
1.00618
1.0062
1.00623
1.00628
1.00634
1.00641
1.00649
1.00658
1.00669
1.00618
1.0062
1.00623
1.00627
1.00632
1.00637
1.00644
1.00652
1.00661
1.00671
1.00617
1.00619
1.00623
1.00627
1.00632
1.00639
1.00646
1.00654
1.00663
1.00673
1.00618
1.00621
1.00625
1.0063
1.00635
1.00642
1.00649
1.00657
1.00665
1.00676
1.00618
1.00622
1.00626
1.00631
1.00636
1.00642
1.0065
1.00658
1.00666
1.00677
1.00619
1.00623
1.00627
1.00632
1.00638
1.00644
1.00651
1.00659
1.00668
1.00679
1.0062
1.00624
1.00628
1.00633
1.00638
1.00644
1.00652
1.0066
1.00668
1.00679
)
;

boundaryField
{
    inlet
    {
        type            fixedValue;
        value           uniform 1;
    }
    sym
    {
        type            slip;
    }
    wedge
    {
        type            slip;
    }
    top
    {
        type            slip;
    }
    back
    {
        type            empty;
    }
    front
    {
        type            empty;
    }
    outlet
    {
        type            zeroGradient;
    }
}


// ************************************************************************* //
