/*--------------------------------*- C++ -*----------------------------------*\
| =========                 |                                                 |
| \\      /  F ield         | OpenFOAM: The Open Source CFD Toolbox           |
|  \\    /   O peration     | Version:  2412                                  |
|   \\  /    A nd           | Website:  www.openfoam.com                      |
|    \\/     M anipulation  |                                                 |
\*---------------------------------------------------------------------------*/
FoamFile
{
    version     2.0;
    format      ascii;
    arch        "LSB;label=32;scalar=64";
    class       volScalarField;
    location    "1";
    object      p;
}
// * * * * * * * * * * * * * * * * * * * * * * * * * * * * * * * * * * * * * //

dimensions      [1 -1 -2 0 0 0 0];

internalField   nonuniform List<scalar> 
200
(
1.04713
0.948462
0.980465
0.99391
1.00053
1.00391
1.00577
1.00687
1.00754
1.00797
1.00295
1.00408
1.00483
1.00583
1.0064
1.00684
1.0073
1.00771
1.00804
1.0083
1.01102
1.00933
1.00629
1.00625
1.00711
1.00764
1.00791
1.00813
1.00833
1.0085
1.01079
1.01058
1.00767
1.00703
1.00753
1.00796
1.00815
1.00828
1.00841
1.00853
1.01165
1.0106
1.00778
1.00718
1.00759
1.00795
1.0081
1.0082
1.0083
1.00842
1.01194
1.01032
1.00765
1.00718
1.00759
1.00792
1.00805
1.00813
1.00822
1.00833
1.012
1.01025
1.0076
1.00716
1.00756
1.00788
1.008
1.00807
1.00815
1.00824
1.01198
1.01028
1.0076
1.00713
1.00754
1.00785
1.00796
1.00802
1.00809
1.00818
1.01195
1.01032
1.00761
1.00712
1.00752
1.00783
1.00794
1.00799
1.00806
1.00814
1.01194
1.01034
1.00762
1.00712
1.00751
1.00782
1.00793
1.00798
1.00804
1.00813
1.00844
1.00884
1.00907
1.0092
1.00928
1.00934
1.0094
1.00947
1.00954
1.00964
1.00865
1.00896
1.00912
1.00921
1.00928
1.00935
1.00941
1.00948
1.00956
1.00965
1.00875
1.00895
1.00907
1.00915
1.00922
1.0093
1.00937
1.00944
1.00953
1.00962
1.00872
1.00886
1.00896
1.00906
1.00914
1.00923
1.00931
1.0094
1.00949
1.00958
1.00859
1.00873
1.00885
1.00896
1.00906
1.00916
1.00925
1.00935
1.00944
1.00954
1.00847
1.00861
1.00875
1.00887
1.00898
1.00909
1.00919
1.00929
1.00939
1.00949
1.00838
1.00852
1.00866
1.00879
1.00891
1.00903
1.00914
1.00924
1.00935
1.00944
1.00831
1.00846
1.0086
1.00873
1.00886
1.00898
1.00909
1.0092
1.00931
1.00941
1.00827
1.00841
1.00855
1.00869
1.00882
1.00894
1.00906
1.00917
1.00928
1.00938
1.00824
1.00839
1.00853
1.00867
1.0088
1.00893
1.00904
1.00916
1.00926
1.00936
)
;

boundaryField
{
    inlet
    {
        type            fixedValue;
        value           uniform 1;
    }
    sym
    {
        type            slip;
    }
    wedge
    {
        type            slip;
    }
    top
    {
        type            slip;
    }
    back
    {
        type            empty;
    }
    front
    {
        type            empty;
    }
    outlet
    {
        type            zeroGradient;
    }
}


// ************************************************************************* //
