/*--------------------------------*- C++ -*----------------------------------*\
| =========                 |                                                 |
| \\      /  F ield         | OpenFOAM: The Open Source CFD Toolbox           |
|  \\    /   O peration     | Version:  2412                                  |
|   \\  /    A nd           | Website:  www.openfoam.com                      |
|    \\/     M anipulation  |                                                 |
\*---------------------------------------------------------------------------*/
FoamFile
{
    version     2.0;
    format      ascii;
    arch        "LSB;label=32;scalar=64";
    class       surfaceScalarField;
    location    "1";
    object      phi;
}
// * * * * * * * * * * * * * * * * * * * * * * * * * * * * * * * * * * * * * //

dimensions      [1 0 -1 0 0 0 0];

oriented        oriented;

internalField   nonuniform List<scalar> 
370
(
0.000268581
1.42108e-06
0.000268327
1.08757e-06
0.00026589
2.17399e-06
0.000264995
1.48265e-06
0.000260366
4.33501e-06
0.0002569
3.58043e-06
0.000249849
7.06105e-06
0.000242679
7.65223e-06
0.000232329
1.06234e-05
1.36947e-05
0.000218662
0.000269072
2.45518e-06
0.000269966
1.06227e-06
0.000267984
3.90746e-06
0.000266558
3.48586e-06
0.000264105
6.5009e-06
0.000261971
5.82101e-06
0.000259352
9.67029e-06
0.000256931
1.05143e-05
0.000254775
1.31489e-05
1.58249e-05
0.000252723
0.000269319
3.35372e-06
0.000269345
1.87409e-06
0.000268028
4.94908e-06
0.000268659
3.45813e-06
0.000266656
8.20499e-06
0.000265486
7.08797e-06
0.000263863
1.12717e-05
0.000262698
1.20744e-05
0.000261756
1.45312e-05
1.688e-05
0.00026082
0.000269942
3.73902e-06
0.000271011
1.67245e-06
0.00027014
5.54895e-06
0.000269787
4.4105e-06
0.000269221
8.46588e-06
0.000268946
7.44913e-06
0.000268898
1.12846e-05
0.000269244
1.20686e-05
0.000270231
1.40569e-05
1.59466e-05
0.000271341
0.000270303
3.82909e-06
0.000270989
1.83268e-06
0.000270715
5.52546e-06
0.000271571
4.18022e-06
0.000271444
8.2744e-06
0.000271717
7.24731e-06
0.000272226
1.07239e-05
0.000273166
1.14189e-05
0.000274675
1.31166e-05
1.4716e-05
0.00027614
0.000270692
3.57068e-06
0.000271393
1.97094e-06
0.000271595
5.0056e-06
0.000272915
3.50508e-06
0.000273384
7.47493e-06
0.000274191
6.5008e-06
0.000275415
9.43108e-06
0.000277061
1.00202e-05
0.000279443
1.13414e-05
1.25763e-05
0.000281873
0.000271087
2.9357e-06
0.000272615
1.31278e-06
0.000273099
4.20024e-06
0.000273748
3.50122e-06
0.000274895
5.99416e-06
0.000276065
5.38505e-06
0.000277811
7.60041e-06
0.000279981
8.06422e-06
0.000282873
9.07194e-06
1.00213e-05
0.000285774
0.000271243
2.11148e-06
0.000272277
1.12282e-06
0.000273061
3.06948e-06
0.000274703
2.53167e-06
0.000276082
4.26823e-06
0.000277834
3.68355e-06
0.000279956
5.38076e-06
0.000282582
5.62819e-06
0.000285956
6.30543e-06
6.93478e-06
0.00028946
0.000271296
1.19828e-06
0.000271925
1.32492e-06
0.000273005
1.62482e-06
0.000275752
4.74907e-07
0.000277217
2.44933e-06
0.000279309
1.64066e-06
0.000281716
2.86571e-06
0.000284614
2.90451e-06
0.000288232
3.2504e-06
3.57192e-06
0.000292086
0.000271532
0.000273725
0.000275
0.000276153
0.00027826
0.000279946
0.0002827
0.000285777
0.000289568
0.000293666
0.000231553
-1.34198e-05
0.000238889
-7.40637e-06
0.000243364
-4.24154e-06
0.000245808
-1.98333e-06
0.000246635
-5.88694e-07
0.0002466
1.0792e-07
0.0002462
3.6783e-07
0.000245659
4.48406e-07
0.000244698
8.3425e-07
-8.20895e-07
0.000252011
-1.33005e-05
0.000251315
-6.92324e-06
0.000250918
-3.79709e-06
0.000251343
-1.95986e-06
0.000252017
-9.4898e-07
0.000252792
-5.36343e-07
0.000253629
-4.68781e-07
0.00025457
-5.56687e-07
0.000255673
-3.67439e-07
-1.95561e-06
0.000258312
-1.13701e-05
0.000258027
-6.93634e-06
0.000258457
-4.22342e-06
0.00025938
-2.53556e-06
0.000260377
-1.55177e-06
0.000261051
-1.02699e-06
0.000261483
-8.61426e-07
0.000261765
-8.75509e-07
0.000261981
-6.64018e-07
-2.43362e-06
0.000268676
-9.22129e-06
0.000267061
-5.7187e-06
0.000266187
-3.40007e-06
0.000265899
-2.03449e-06
0.000266203
-1.38668e-06
0.000266606
-1.17584e-06
0.000267068
-1.23385e-06
0.000267596
-1.40651e-06
0.000268234
-1.36015e-06
-2.8922e-06
0.000273031
-6.42353e-06
0.000271034
-4.29021e-06
0.000270441
-2.89288e-06
0.000270632
-2.08191e-06
0.000271458
-1.71067e-06
0.0002722
-1.60162e-06
0.000272746
-1.64019e-06
0.000273119
-1.74725e-06
0.000273445
-1.7194e-06
-2.96686e-06
0.000279887
-4.54857e-06
0.000278149
-3.25449e-06
0.000277471
-2.35318e-06
0.000277271
-1.80301e-06
0.000277631
-1.55977e-06
0.000277959
-1.55056e-06
0.000278153
-1.64108e-06
0.000278248
-1.77146e-06
0.000278298
-1.77443e-06
-2.79251e-06
0.000284083
-2.80992e-06
0.000282239
-2.16534e-06
0.000281442
-1.75231e-06
0.000281236
-1.52059e-06
0.000281597
-1.44018e-06
0.000281982
-1.49023e-06
0.000282152
-1.56665e-06
0.000282144
-1.65331e-06
0.000282044
-1.65108e-06
-2.35018e-06
0.000288479
-1.71425e-06
0.000287033
-1.4455e-06
0.000286296
-1.2646e-06
0.00028598
-1.14115e-06
0.000286043
-1.08973e-06
0.000286195
-1.12092e-06
0.000286091
-1.17038e-06
0.000285808
-1.22517e-06
0.000285421
-1.21674e-06
-1.69155e-06
0.000291321
-7.75317e-07
0.000289871
-6.89485e-07
0.000288961
-6.37079e-07
0.00028848
-6.02633e-07
0.00028836
-5.94171e-07
0.00028842
-6.17745e-07
0.000288223
-6.45522e-07
0.000287841
-6.7233e-07
0.000287361
-6.69547e-07
-8.87102e-07
0.0002931
0.000291738
0.0002908
0.00029025
0.000290011
0.000289972
0.000289673
0.000289186
0.000288595
)
;

boundaryField
{
    inlet
    {
        type            calculated;
        value           nonuniform List<scalar> 10(-0.000272379 -0.000272487 -0.000272644 -0.00027279 -0.000272923 -0.000273026 -0.000273093 -0.00027312 -0.000273124 -0.000273078);
    }
    sym
    {
        type            calculated;
        value           uniform 0;
    }
    wedge
    {
        type            calculated;
        value           nonuniform List<scalar> 10(-2.32803e-41 2.41093e-20 0 0 -4.26993e-39 0 1.21118e-20 1.21135e-20 -1.21145e-20 -2.55468e-39);
    }
    top
    {
        type            calculated;
        value           uniform 0;
    }
    back
    {
        type            empty;
    }
    front
    {
        type            empty;
    }
    outlet
    {
        type            calculated;
        value           nonuniform List<scalar> 10(0.000245321 0.000256691 0.000262359 0.000268612 0.000273461 0.000278086 0.000281585 0.000284764 0.000286573 0.000287731);
    }
}


// ************************************************************************* //
