/*--------------------------------*- C++ -*----------------------------------*\
| =========                 |                                                 |
| \\      /  F ield         | OpenFOAM: The Open Source CFD Toolbox           |
|  \\    /   O peration     | Version:  2412                                  |
|   \\  /    A nd           | Website:  www.openfoam.com                      |
|    \\/     M anipulation  |                                                 |
\*---------------------------------------------------------------------------*/
FoamFile
{
    version     2.0;
    format      ascii;
    arch        "LSB;label=32;scalar=64";
    class       surfaceScalarField;
    location    "1";
    object      phi;
}
// * * * * * * * * * * * * * * * * * * * * * * * * * * * * * * * * * * * * * //

dimensions      [1 0 -1 0 0 0 0];

oriented        oriented;

internalField   nonuniform List<scalar> 
370
(
0.529202
6.24294e-08
0.529201
3.76752e-07
0.529199
1.22402e-06
0.529194
3.26538e-06
0.529185
8.00832e-06
0.529168
1.8903e-05
0.529144
4.39238e-05
0.529097
0.000101947
0.52918
0.000240063
0.000584958
0.527888
0.529202
3.15376e-08
0.529202
1.97873e-07
0.529202
6.66429e-07
0.529203
1.81045e-06
0.529205
4.47526e-06
0.529212
1.05756e-05
0.529229
2.44599e-05
0.529276
5.6037e-05
0.529403
0.000127981
0.000294148
0.529728
0.529202
9.70759e-09
0.529202
6.08187e-08
0.529202
2.04374e-07
0.529203
5.53572e-07
0.529206
1.36305e-06
0.529212
3.20528e-06
0.529228
7.36789e-06
0.529264
1.67564e-05
0.529351
3.7845e-05
8.57603e-05
0.52955
0.529202
3.00901e-09
0.529202
1.88411e-08
0.529202
6.32505e-08
0.529202
1.71089e-07
0.529203
4.20519e-07
0.529205
9.86571e-07
0.529209
2.26111e-06
0.52922
5.12256e-06
0.529243
1.15183e-05
2.5913e-05
0.529297
0.529202
9.40795e-10
0.529202
5.88694e-09
0.529202
1.97516e-08
0.529202
5.34224e-08
0.529202
1.31342e-07
0.529203
3.08292e-07
0.529204
7.07002e-07
0.529207
1.60277e-06
0.529214
3.60649e-06
8.11184e-06
0.52923
0.529202
3.02292e-10
0.529202
1.89149e-09
0.529202
6.3468e-09
0.529202
1.71714e-08
0.529202
4.22335e-08
0.529202
9.91804e-08
0.529203
2.27558e-07
0.529204
5.16153e-07
0.529206
1.16213e-06
2.6142e-06
0.529211
0.529202
9.8051e-11
0.529202
6.13702e-10
0.529202
2.0597e-09
0.529202
5.57162e-09
0.529202
1.36971e-08
0.529202
3.21464e-08
0.529202
7.37072e-08
0.529202
1.67081e-07
0.529203
3.75946e-07
8.44798e-07
0.529205
0.529202
3.12991e-11
0.529202
1.95875e-10
0.529202
6.57003e-10
0.529202
1.77462e-09
0.529202
4.35342e-09
0.529202
1.0192e-08
0.529202
2.33078e-08
0.529202
5.26968e-08
0.529202
1.18267e-07
2.64993e-07
0.529203
0.529202
8.77344e-12
0.529202
5.49504e-11
0.529202
1.84395e-10
0.529202
4.97882e-10
0.529202
1.2202e-09
0.529202
2.85249e-09
0.529202
6.51101e-09
0.529202
1.46861e-08
0.529202
3.2888e-08
7.34913e-08
0.529202
0.529202
0.529202
0.529202
0.529202
0.529202
0.529202
0.529202
0.529202
0.529202
0.529202
0.657378
-0.116375
0.766917
-0.110928
0.849498
-0.0999357
0.937161
-0.0942294
1.01092
-0.0744908
1.05761
-0.0443653
1.06398
-8.58168e-05
0.989155
0.0833595
0.910607
0.0980017
0.0677169
0.528525
-0.115247
0.525216
-0.108669
0.532054
-0.103845
0.532653
-0.096777
0.543596
-0.0872131
0.577761
-0.0736235
0.623537
-0.0440167
0.688215
0.0107491
0.721011
0.0587773
0.0896825
0.519016
-0.104584
0.512191
-0.1024
0.508573
-0.100216
0.509952
-0.0975592
0.517643
-0.0941108
0.531637
-0.0892512
0.567184
-0.0790812
0.644787
-0.0662888
0.748897
-0.0454736
0.0282067
0.515653
-0.0909507
0.503119
-0.0900484
0.492126
-0.0891925
0.482497
-0.0877946
0.475066
-0.086546
0.469678
-0.0839708
0.471262
-0.0808234
0.477677
-0.0730971
0.49171
-0.0606219
-0.0423226
0.514467
-0.0761962
0.500227
-0.0758537
0.486502
-0.0755059
0.473623
-0.0748713
0.461527
-0.0743046
0.450578
-0.0731718
0.44159
-0.0718822
0.437429
-0.0690827
0.440348
-0.0638788
-0.0568982
0.514088
-0.0610769
0.499177
-0.0609584
0.484477
-0.0608182
0.470168
-0.0605476
0.456171
-0.0602675
0.442735
-0.0597826
0.430002
-0.0591591
0.419023
-0.0581314
0.411006
-0.0559928
-0.0530785
0.513969
-0.0458417
0.49881
-0.045804
0.483737
-0.0457477
0.468833
-0.0456385
0.454078
-0.0455012
0.439564
-0.0452871
0.425382
-0.0449801
0.411773
-0.0445327
0.399401
-0.0436642
-0.0423892
0.513931
-0.0305697
0.498685
-0.0305586
0.483473
-0.030536
0.468329
-0.0304918
0.453259
-0.0304285
0.438294
-0.0303303
0.423495
-0.0301835
0.408928
-0.0299678
0.394853
-0.0296024
-0.02903
0.513919
-0.0152861
0.498643
-0.0152825
0.483382
-0.0152749
0.46815
-0.0152589
0.452956
-0.015234
0.437815
-0.0151927
0.422765
-0.0151333
0.407834
-0.0150389
0.393127
-0.0148995
-0.0146672
0.513916
0.498633
0.483359
0.4681
0.452866
0.437672
0.422538
0.407498
0.392596
)
;

boundaryField
{
    inlet
    {
        type            calculated;
        value           nonuniform List<scalar> 10(-0.529202 -0.529202 -0.529202 -0.529202 -0.529202 -0.529202 -0.529202 -0.529202 -0.529202 -0.529202);
    }
    sym
    {
        type            calculated;
        value           uniform 0;
    }
    wedge
    {
        type            calculated;
        value           nonuniform List<scalar> 10(-2.20941e-17 2.812e-17 0 -4.04623e-17 9.39374e-17 5.89781e-17 0 5.85422e-17 0 5.39994e-17);
    }
    top
    {
        type            calculated;
        value           uniform 0;
    }
    back
    {
        type            empty;
    }
    front
    {
        type            empty;
    }
    outlet
    {
        type            calculated;
        value           nonuniform List<scalar> 10(0.83546 0.694675 0.8062 0.559078 0.453548 0.406688 0.388538 0.381431 0.378738 0.377913);
    }
}


// ************************************************************************* //
