/*--------------------------------*- C++ -*----------------------------------*\
| =========                 |                                                 |
| \\      /  F ield         | OpenFOAM: The Open Source CFD Toolbox           |
|  \\    /   O peration     | Version:  2412                                  |
|   \\  /    A nd           | Website:  www.openfoam.com                      |
|    \\/     M anipulation  |                                                 |
\*---------------------------------------------------------------------------*/
FoamFile
{
    version     2.0;
    format      ascii;
    arch        "LSB;label=32;scalar=64";
    class       surfaceScalarField;
    location    "1";
    object      phi;
}
// * * * * * * * * * * * * * * * * * * * * * * * * * * * * * * * * * * * * * //

dimensions      [1 0 -1 0 0 0 0];

oriented        oriented;

internalField   nonuniform List<scalar> 
370
(
-0.00175988
-0.000379148
-0.00132793
-0.000409202
-0.000949106
-0.000378211
-0.000658059
-0.000290142
-0.000457557
-0.000200894
-0.000315795
-0.000142438
-0.000212241
-0.000104378
-0.000134577
-7.85008e-05
-7.55626e-05
-5.9842e-05
-4.59143e-05
-3.04567e-05
0.000798372
-3.53326e-06
0.000462299
-7.15502e-05
0.0002311
-0.00014839
9.42198e-05
-0.000155018
3.43642e-05
-0.000142295
2.03695e-05
-0.000129417
2.74226e-05
-0.000112284
4.28528e-05
-9.47261e-05
6.09776e-05
-7.87306e-05
-6.48578e-05
7.91726e-05
0.000594783
8.06587e-07
0.000550956
-2.84369e-05
0.000461931
-6.01317e-05
0.00037931
-7.2959e-05
0.000317021
-8.06055e-05
0.000271426
-8.45019e-05
0.000241274
-8.27893e-05
0.00022253
-7.66099e-05
0.000211687
-6.85013e-05
-6.00226e-05
0.000206245
0.000634956
-5.87242e-06
0.000611837
-5.65254e-06
0.000566995
-1.56314e-05
0.000521093
-2.74453e-05
0.000475487
-3.54728e-05
0.000431316
-4.08482e-05
0.000392141
-4.41452e-05
0.000360131
-4.51229e-05
0.000335193
-4.40762e-05
-4.16116e-05
0.000316278
0.000525591
-3.75406e-06
0.000521314
-1.56908e-06
0.000509821
-4.36566e-06
0.000492423
-1.03152e-05
0.000472323
-1.56884e-05
0.000451098
-1.99689e-05
0.00042992
-2.33397e-05
0.000410038
-2.56335e-05
0.000392285
-2.67269e-05
-2.67104e-05
0.000376974
0.000482
-8.37439e-07
0.000481074
-7.28922e-07
0.000478624
-2.06142e-06
0.000473028
-4.91053e-06
0.000465184
-8.06655e-06
0.000455915
-1.09506e-05
0.000445694
-1.34e-05
0.000435039
-1.52827e-05
0.000424485
-1.64967e-05
-1.70245e-05
0.000414462
0.000473987
3.8167e-07
0.000473931
-7.17388e-07
0.000473575
-1.80524e-06
0.0004717
-3.18088e-06
0.000468271
-4.81247e-06
0.000463603
-6.47767e-06
0.000457981
-7.99986e-06
0.000451698
-9.24663e-06
0.000445071
-1.01372e-05
-1.06381e-05
0.000438395
0.000478395
5.35934e-07
0.000478152
-5.0659e-07
0.000477594
-1.32448e-06
0.00047633
-2.03281e-06
0.000474221
-2.84356e-06
0.000471318
-3.73369e-06
0.000467726
-4.5943e-06
0.000463591
-5.32643e-06
0.000459088
-5.8737e-06
-6.211e-06
0.000454403
0.000483302
2.59997e-07
0.000482944
-1.76955e-07
0.000482175
-6.21815e-07
0.000481006
-9.62352e-07
0.000479351
-1.30918e-06
0.000477175
-1.69618e-06
0.000474496
-2.08336e-06
0.000471393
-2.41941e-06
0.000467971
-2.67508e-06
-2.83729e-06
0.000464359
0.000484989
0.000484785
0.000484101
0.000483046
0.000481628
0.000479802
0.000477561
0.000474955
0.000472066
0.000468999
4.26744e-05
-7.46621e-05
9.86437e-05
-5.73175e-05
0.000141895
-4.44423e-05
0.000175254
-3.44115e-05
0.000200851
-2.65288e-05
0.000220372
-2.03359e-05
0.000235085
-1.54489e-05
0.000245869
-1.14549e-05
0.000253034
-7.79972e-06
-6.63798e-06
0.000128597
-0.000125504
0.000165836
-9.58438e-05
0.000194371
-7.40999e-05
0.000216728
-5.77563e-05
0.000234339
-4.5015e-05
0.000248131
-3.49033e-05
0.000258754
-2.67821e-05
0.000266734
-2.01008e-05
0.000272625
-1.43302e-05
-1.12312e-05
0.000218369
-0.00013882
0.000231227
-0.000109825
0.000243144
-8.70944e-05
0.000253797
-6.93508e-05
0.000263049
-5.51032e-05
0.000270825
-4.34297e-05
0.00027716
-3.37677e-05
0.000282142
-2.56731e-05
0.00028596
-1.87132e-05
-1.42724e-05
0.0002997
-0.000123222
0.000292709
-0.00010378
0.00029075
-8.60864e-05
0.000291232
-7.07479e-05
0.000292885
-5.7562e-05
0.00029494
-4.62133e-05
0.000296975
-3.64558e-05
0.000298779
-2.80638e-05
0.000300305
-2.07553e-05
-1.5642e-05
0.000354139
-0.000101197
0.00033906
-8.95142e-05
0.000329322
-7.71688e-05
0.00032296
-6.52431e-05
0.000318835
-5.42182e-05
0.000316175
-4.42558e-05
0.000314453
-3.53786e-05
0.000313351
-2.75417e-05
0.000312724
-2.06284e-05
-1.55379e-05
0.000391634
-7.90547e-05
0.00037367
-7.22608e-05
0.000359844
-6.40706e-05
0.000349231
-5.54122e-05
0.000341137
-4.6884e-05
0.000335028
-3.8832e-05
0.000330441
-3.14202e-05
0.000327035
-2.47136e-05
0.000324597
-1.86929e-05
-1.40534e-05
0.000416853
-5.81123e-05
0.000398185
-5.42278e-05
0.000382459
-4.90047e-05
0.000369415
-4.30771e-05
0.000358735
-3.6943e-05
0.000350166
-3.09366e-05
0.000343392
-2.52602e-05
0.000338128
-2.00225e-05
0.000334193
-1.52606e-05
-1.15054e-05
0.000433913
-3.81715e-05
0.000415173
-3.60614e-05
0.000398543
-3.29874e-05
0.000384123
-2.93151e-05
0.000371846
-2.53787e-05
0.000361669
-2.14219e-05
0.000353415
-1.76109e-05
0.000346871
-1.40454e-05
0.000341877
-1.07691e-05
-8.1239e-06
0.000444547
-1.88728e-05
0.000425913
-1.79653e-05
0.0004089
-1.65565e-05
0.000393769
-1.48112e-05
0.000380594
-1.2896e-05
0.000369456
-1.09374e-05
0.000360274
-9.02775e-06
0.000352894
-7.2253e-06
0.000347182
-5.56025e-06
-4.19526e-06
0.000449631
0.000431145
0.000414022
0.000398597
0.000385019
0.000373434
0.000363811
0.000356029
0.000349967
)
;

boundaryField
{
    inlet
    {
        type            calculated;
        value           nonuniform List<scalar> 10(0.00199434 -0.00116644 -0.000598377 -0.000627994 -0.000527648 -0.000484915 -0.000475223 -0.00047857 -0.000483047 -0.00048475);
    }
    sym
    {
        type            calculated;
        value           uniform 0;
    }
    wedge
    {
        type            calculated;
        value           nonuniform List<scalar> 10(4.25411e-22 3.02583e-21 0 -6.05362e-21 1.21089e-20 1.21114e-20 -1.21153e-20 0 1.21211e-20 2.42423e-20);
    }
    top
    {
        type            calculated;
        value           uniform 0;
    }
    back
    {
        type            empty;
    }
    front
    {
        type            empty;
    }
    outlet
    {
        type            calculated;
        value           nonuniform List<scalar> 10(0.000259016 0.000276527 0.000288402 0.00030112 0.000312085 0.000322601 0.000331148 0.000338006 0.000342768 0.000345288);
    }
}


// ************************************************************************* //
