/*--------------------------------*- C++ -*----------------------------------*\
| =========                 |                                                 |
| \\      /  F ield         | OpenFOAM: The Open Source CFD Toolbox           |
|  \\    /   O peration     | Version:  2412                                  |
|   \\  /    A nd           | Website:  www.openfoam.com                      |
|    \\/     M anipulation  |                                                 |
\*---------------------------------------------------------------------------*/
FoamFile
{
    version     2.0;
    format      ascii;
    arch        "LSB;label=32;scalar=64";
    class       volVectorField;
    location    "1";
    object      U;
}
// * * * * * * * * * * * * * * * * * * * * * * * * * * * * * * * * * * * * * //

dimensions      [0 1 -1 0 0 0 0];

internalField   nonuniform List<vector> 
200
(
(-11.1749 0.00344848 0)
(8.04312 0.00493562 0)
(-3.68693 0.0070104 0)
(3.30733 0.00418138 0)
(-0.995785 0.0137576 0)
(1.45613 0.0128443 0)
(0.200533 0.0253251 0)
(0.663288 0.029332 0)
(0.56047 0.0421949 0)
(0.505657 0.0576241 0)
(-11.1567 0.0091412 0)
(8.02716 0.00659825 0)
(-3.66309 0.0168054 0)
(3.29542 0.0156613 0)
(-0.976216 0.0326294 0)
(1.45069 0.0292684 0)
(0.229838 0.0514756 0)
(0.678214 0.0563961 0)
(0.605725 0.0738043 0)
(0.571459 0.0918387 0)
(-11.1442 0.0136208 0)
(8.01834 0.00884248 0)
(-3.66032 0.0243108 0)
(3.29397 0.021333 0)
(-0.962081 0.0426394 0)
(1.44632 0.0385373 0)
(0.249726 0.0613073 0)
(0.681747 0.0662125 0)
(0.623133 0.0804879 0)
(0.58953 0.0943274 0)
(-11.1195 0.0166387 0)
(7.99773 0.0119311 0)
(-3.63332 0.0292547 0)
(3.28014 0.0232356 0)
(-0.944201 0.0478601 0)
(1.4394 0.0433612 0)
(0.271291 0.0662197 0)
(0.68624 0.0713 0)
(0.642768 0.0841449 0)
(0.612143 0.0964203 0)
(-11.1012 0.0176951 0)
(7.98359 0.0106945 0)
(-3.62248 0.0300826 0)
(3.27415 0.0262171 0)
(-0.928595 0.0483488 0)
(1.43305 0.0434485 0)
(0.288823 0.0640055 0)
(0.687373 0.0684349 0)
(0.654083 0.0788165 0)
(0.623844 0.0884733 0)
(-11.0821 0.0173316 0)
(7.96845 0.01244 0)
(-3.60804 0.0291758 0)
(3.26614 0.0229064 0)
(-0.914037 0.0449028 0)
(1.42681 0.0406147 0)
(0.304919 0.0586685 0)
(0.688961 0.0626593 0)
(0.665175 0.0713085 0)
(0.636671 0.0793261 0)
(-11.0638 0.0152373 0)
(7.95314 0.010597 0)
(-3.58844 0.0254349 0)
(3.2561 0.0208574 0)
(-0.901153 0.0384035 0)
(1.42091 0.0349381 0)
(0.317851 0.0495727 0)
(0.689777 0.052736 0)
(0.673205 0.0593978 0)
(0.645889 0.0654624 0)
(-11.0535 0.0117919 0)
(7.94517 0.00681668 0)
(-3.58427 0.0192958 0)
(3.25293 0.0192205 0)
(-0.892768 0.0303142 0)
(1.4174 0.0269142 0)
(0.328685 0.0380231 0)
(0.690851 0.0400957 0)
(0.680172 0.0449109 0)
(0.654289 0.0493207 0)
(-11.0478 0.00780656 0)
(7.94099 0.00854985 0)
(-3.58323 0.0132515 0)
(3.25196 0.00789476 0)
(-0.885431 0.0193238 0)
(1.41449 0.0155195 0)
(0.337685 0.0238434 0)
(0.69166 0.0249052 0)
(0.685377 0.027767 0)
(0.660491 0.0303685 0)
(-11.0374 0.00289855 0)
(7.93045 0.00581866 0)
(-3.56266 0.0054778 0)
(3.24239 -0.000603621 0)
(-0.875614 0.00644982 0)
(1.40991 0.00458779 0)
(0.3437 0.00824891 0)
(0.691772 0.00865941 0)
(0.688351 0.00967408 0)
(0.664237 0.0105958 0)
(0.497007 0.116999 -5.26212e-22)
(0.560626 0.153718 0)
(0.599167 0.17755 0)
(0.623805 0.195739 0)
(0.645469 0.210713 1.12721e-17)
(0.66711 0.223552 0)
(0.689556 0.235147 0)
(0.713405 0.246219 0)
(0.735489 0.257382 0)
(0.784107 0.270691 -6.7363e-18)
(0.570722 0.147168 -4.98603e-18)
(0.597276 0.177877 5.14625e-18)
(0.619204 0.194168 0)
(0.638668 0.204837 0)
(0.659431 0.212822 6.85412e-23)
(0.682741 0.21937 0)
(0.708784 0.225523 0)
(0.737388 0.232295 0)
(0.766227 0.240398 0)
(0.820181 0.251231 0)
(0.590318 0.120479 0)
(0.612965 0.13884 -5.14366e-18)
(0.63558 0.152138 0)
(0.658121 0.163231 0)
(0.681412 0.173114 -1.12759e-17)
(0.705724 0.182286 5.82175e-18)
(0.731535 0.191019 0)
(0.759156 0.199842 6.23884e-18)
(0.786493 0.209145 0)
(0.838221 0.219156 6.72598e-18)
(0.616316 0.118542 0)
(0.636698 0.136577 0)
(0.655908 0.150125 0)
(0.675814 0.160295 0)
(0.697511 0.168155 5.63927e-18)
(0.721182 0.174705 -5.8218e-18)
(0.747139 0.180613 0)
(0.775697 0.18653 -1.24746e-17)
(0.804902 0.192983 0)
(0.85823 0.200324 -6.72345e-18)
(0.627498 0.102513 2.48671e-18)
(0.646859 0.113038 2.56858e-18)
(0.665942 0.120871 0)
(0.687184 0.127139 2.73431e-18)
(0.710875 0.132583 2.81997e-18)
(0.736274 0.137721 0)
(0.763239 0.142853 0)
(0.792122 0.148262 6.2354e-18)
(0.82125 0.154204 0)
(0.873694 0.160716 0)
(0.642549 0.0905522 -2.4853e-18)
(0.663339 0.0993455 -2.56663e-18)
(0.683173 0.106657 0)
(0.704502 0.112934 -2.73367e-18)
(0.72777 0.118337 -2.82016e-18)
(0.752558 0.123093 0)
(0.778913 0.127574 0)
(0.807368 0.132131 0)
(0.836323 0.137109 0)
(0.88848 0.142592 0)
(0.652375 0.0727324 2.48439e-18)
(0.673201 0.0775417 0)
(0.693082 0.0812377 0)
(0.714685 0.0843522 0)
(0.738397 0.0871503 2.82044e-18)
(0.763673 0.0897251 0)
(0.790393 0.0924192 0)
(0.818982 0.0953622 0)
(0.848007 0.0987 0)
(0.899652 0.102525 3.35922e-18)
(0.662101 0.054315 -1.24181e-18)
(0.683957 0.0576801 1.28171e-18)
(0.704774 0.0606812 0)
(0.726843 0.0635959 1.3664e-18)
(0.750531 0.0664151 -1.41019e-18)
(0.775532 0.069043 1.45541e-18)
(0.801889 0.071713 1.50447e-18)
(0.830022 0.0745008 0)
(0.858641 0.0775444 1.61624e-18)
(0.909814 0.0809225 -1.67933e-18)
(0.668772 0.0329386 -1.86241e-18)
(0.690672 0.0344091 -1.92176e-18)
(0.711488 0.0355869 0)
(0.733432 0.0366529 -2.04936e-18)
(0.756951 0.0376213 -7.05107e-19)
(0.781842 0.0384805 -2.18327e-18)
(0.808137 0.0393741 -1.50447e-18)
(0.836166 0.0403518 0)
(0.864725 0.0414777 -1.61613e-18)
(0.915599 0.0428342 -2.5189e-18)
(0.672881 0.0114068 6.20758e-19)
(0.694962 0.0119467 6.40453e-19)
(0.715969 0.0125306 0)
(0.737986 0.0132163 6.83077e-19)
(0.761452 0.0139779 -7.05117e-19)
(0.78623 0.0147738 7.27795e-19)
(0.812388 0.0156237 0)
(0.840241 0.0165315 0)
(0.868633 0.017515 0)
(0.919304 0.018602 8.39627e-19)
)
;

boundaryField
{
    inlet
    {
        type            fixedValue;
        value           uniform (3 0 0);
    }
    sym
    {
        type            slip;
    }
    wedge
    {
        type            slip;
    }
    top
    {
        type            slip;
    }
    back
    {
        type            empty;
    }
    front
    {
        type            empty;
    }
    outlet
    {
        type            inletOutlet;
        inletValue      uniform (3 0 0);
        value           nonuniform List<vector> 10((0.784107 0.270691 -6.7363e-18) (0.820181 0.251231 0) (0.838221 0.219156 6.72598e-18) (0.85823 0.200324 -6.72345e-18) (0.873694 0.160716 0) (0.88848 0.142592 0) (0.899652 0.102525 3.35922e-18) (0.909814 0.0809225 -1.67933e-18) (0.915599 0.0428342 -2.5189e-18) (0.919304 0.018602 8.39627e-19));
    }
}


// ************************************************************************* //
