/*--------------------------------*- C++ -*----------------------------------*\
| =========                 |                                                 |
| \\      /  F ield         | OpenFOAM: The Open Source CFD Toolbox           |
|  \\    /   O peration     | Version:  2412                                  |
|   \\  /    A nd           | Website:  www.openfoam.com                      |
|    \\/     M anipulation  |                                                 |
\*---------------------------------------------------------------------------*/
FoamFile
{
    version     2.0;
    format      ascii;
    arch        "LSB;label=32;scalar=64";
    class       volVectorField;
    location    "1";
    object      U;
}
// * * * * * * * * * * * * * * * * * * * * * * * * * * * * * * * * * * * * * //

dimensions      [0 1 -1 0 0 0 0];

internalField   nonuniform List<vector> 
200
(
(-20.2801 -6.09509 0)
(0.630319 -2.11801 0)
(-3.00169 -1.5853 0)
(-1.86411 -1.14033 0)
(-1.31824 -0.779185 0)
(-0.888875 -0.546877 0)
(-0.609859 -0.38926 0)
(-0.396997 -0.280924 0)
(-0.238281 -0.202418 0)
(-0.130157 -0.142588 0)
(1.8722 0.805499 0)
(1.34675 -1.14043 0)
(0.808116 -1.78637 0)
(0.330762 -1.56889 0)
(0.0865865 -1.15195 0)
(0.0545772 -0.874357 0)
(0.0497219 -0.68067 0)
(0.0764072 -0.537268 0)
(0.116645 -0.427013 0)
(0.14012 -0.340634 0)
(0.497444 -0.129321 0)
(0.956747 -0.329541 0)
(1.26741 -0.477173 0)
(1.05377 -0.576772 0)
(0.779793 -0.637555 0)
(0.640418 -0.646483 0)
(0.572197 -0.604302 0)
(0.524252 -0.534915 0)
(0.491189 -0.459684 0)
(0.462625 -0.389154 0)
(0.730672 0.000672321 0)
(1.0191 -0.0619798 0)
(1.36866 -0.16594 0)
(1.33367 -0.247124 0)
(1.15703 -0.299937 0)
(1.01708 -0.334288 0)
(0.924435 -0.349476 0)
(0.851127 -0.345079 0)
(0.788355 -0.325995 0)
(0.733894 -0.298351 0)
(0.317261 -0.0377016 0)
(0.794543 -0.0266819 0)
(1.21832 -0.0483757 0)
(1.23607 -0.0864417 0)
(1.12299 -0.121124 0)
(1.04032 -0.149277 0)
(0.992968 -0.170571 0)
(0.953304 -0.183747 0)
(0.91244 -0.188567 0)
(0.872503 -0.186001 0)
(0.132678 -0.0127397 0)
(0.717413 -0.00261496 0)
(1.15158 -0.0130188 0)
(1.1763 -0.0364045 0)
(1.09035 -0.0601465 0)
(1.03838 -0.0807828 0)
(1.01759 -0.0977902 0)
(1.00058 -0.110365 0)
(0.978456 -0.117915 0)
(0.953922 -0.120501 0)
(0.0947513 -0.000461752 0)
(0.704016 -0.00270655 0)
(1.13985 -0.0107854 0)
(1.16811 -0.0223365 0)
(1.09187 -0.0346617 0)
(1.05087 -0.0466278 0)
(1.04049 -0.0574168 0)
(1.03356 -0.0661634 0)
(1.021 -0.072278 0)
(1.00534 -0.0755511 0)
(0.112504 0.0028851 0)
(0.710448 -0.00287364 0)
(1.14645 -0.00900061 0)
(1.17764 -0.0148942 0)
(1.10432 -0.0212773 0)
(1.06653 -0.0280464 0)
(1.06015 -0.0345142 0)
(1.05798 -0.0399765 0)
(1.05043 -0.0440116 0)
(1.03977 -0.0464409 0)
(0.134162 0.00231333 0)
(0.717852 -0.00174453 0)
(1.15412 -0.00547683 0)
(1.18799 -0.00844035 0)
(1.11601 -0.0115346 0)
(1.07918 -0.0149405 0)
(1.07435 -0.0183078 0)
(1.07438 -0.0212212 0)
(1.06935 -0.0234343 0)
(1.0613 -0.0248352 0)
(0.14246 0.000739864 0)
(0.720346 -0.000507631 0)
(1.15706 -0.00170157 0)
(1.19245 -0.00262727 0)
(1.12123 -0.00357183 0)
(1.08486 -0.00462216 0)
(1.08074 -0.00568213 0)
(1.08182 -0.00661434 0)
(1.07802 -0.00733353 0)
(1.07124 -0.00779813 0)
(0.0250098 -0.0713025 5.20749e-21)
(0.162169 -0.00460373 0)
(0.292859 0.051526 0)
(0.402628 0.0988772 0)
(0.493352 0.138788 1.03541e-16)
(0.570576 0.172772 0)
(0.638272 0.202087 0)
(0.698546 0.227832 0)
(0.751723 0.251203 0)
(0.82502 0.274215 -5.89825e-17)
(0.251056 -0.225154 -4.61369e-17)
(0.345813 -0.125456 4.70168e-17)
(0.439061 -0.0434221 0)
(0.5204 0.0228436 0)
(0.59044 0.0768963 -1.42639e-21)
(0.652772 0.121854 0)
(0.709851 0.160022 0)
(0.762904 0.193293 0)
(0.812553 0.223531 0)
(0.881155 0.25282 0)
(0.487766 -0.269677 0)
(0.52932 -0.168403 -4.49834e-17)
(0.578241 -0.0870716 0)
(0.627627 -0.0222708 0)
(0.675287 0.0306568 -9.85115e-17)
(0.721525 0.0750322 5.07605e-17)
(0.766831 0.112979 0)
(0.811389 0.146098 5.40212e-17)
(0.855113 0.175801 0)
(0.918176 0.203201 5.77015e-17)
(0.698801 -0.224475 0)
(0.697738 -0.151999 0)
(0.711367 -0.0875992 0)
(0.734031 -0.0320988 0)
(0.762121 0.016158 4.83801e-17)
(0.793678 0.0586911 -5.00011e-17)
(0.827755 0.0965442 0)
(0.86385 0.130596 -1.0688e-16)
(0.901469 0.161772 0)
(0.958777 0.19085 -5.72258e-17)
(0.833441 -0.154948 2.0664e-17)
(0.818797 -0.115471 2.14607e-17)
(0.815912 -0.0738826 0)
(0.822664 -0.0336938 2.30636e-17)
(0.836981 0.00382244 2.38841e-17)
(0.857002 0.0382902 0)
(0.881563 0.0696836 0)
(0.910039 0.098209 5.30003e-17)
(0.941895 0.124305 0)
(0.993869 0.148551 0)
(0.92351 -0.106462 -2.05451e-17)
(0.906244 -0.0840992 -2.12917e-17)
(0.896442 -0.057068 0)
(0.89459 -0.0282087 -2.28619e-17)
(0.900247 0.000742624 -2.36866e-17)
(0.912341 0.0288142 0)
(0.930025 0.0555501 0)
(0.952793 0.0808067 0)
(0.980166 0.104689 0)
(1.02761 0.127486 0)
(0.982533 -0.0699532 2.05191e-17)
(0.966551 -0.0576967 0)
(0.954835 -0.0407405 0)
(0.949001 -0.0210635 0)
(0.949653 -0.000224829 2.35777e-17)
(0.956506 0.020695 0)
(0.969211 0.0410448 0)
(0.987532 0.0604632 0)
(1.01122 0.0788274 0)
(1.05508 0.0962627 2.81732e-17)
(1.02204 -0.0441355 -1.02758e-17)
(1.00776 -0.0373264 1.0619e-17)
(0.995814 -0.0269611 0)
(0.988209 -0.0142139 1.13683e-17)
(0.986101 -0.000167313 -1.1773e-17)
(0.989763 0.0143665 1.21932e-17)
(0.999268 0.0288511 1.26309e-17)
(1.01465 0.042971 0)
(1.03588 0.0565992 1.35621e-17)
(1.07716 0.0698098 -1.40564e-17)
(1.04652 -0.0239974 -1.54668e-17)
(1.03356 -0.0206126 -1.59753e-17)
(1.02194 -0.0150808 0)
(1.01369 -0.00799621 -1.7082e-17)
(1.01023 1.83809e-05 -5.89326e-18)
(1.01213 0.00846969 -1.83038e-17)
(1.01974 0.0170058 -1.26356e-17)
(1.03329 0.0253989 0)
(1.05292 0.0335327 -1.35568e-17)
(1.0925 0.0414404 -2.10687e-17)
(1.05811 -0.00769976 5.18347e-18)
(1.04601 -0.00671836 5.35199e-18)
(1.03476 -0.0049527 0)
(1.02638 -0.00259385 5.71703e-18)
(1.02238 0.000134817 -5.91349e-18)
(1.02351 0.00304592 6.11894e-18)
(1.03026 0.00599891 0)
(1.04295 0.00889991 0)
(1.06184 0.0116997 0)
(1.10061 0.0144202 7.02794e-18)
)
;

boundaryField
{
    inlet
    {
        type            fixedValue;
        value           uniform (3 0 0);
    }
    sym
    {
        type            slip;
    }
    wedge
    {
        type            slip;
    }
    top
    {
        type            slip;
    }
    back
    {
        type            empty;
    }
    front
    {
        type            empty;
    }
    outlet
    {
        type            inletOutlet;
        inletValue      uniform (3 0 0);
        value           nonuniform List<vector> 10((0.82502 0.274215 -5.89825e-17) (0.881155 0.25282 0) (0.918176 0.203201 5.77015e-17) (0.958777 0.19085 -5.72258e-17) (0.993869 0.148551 0) (1.02761 0.127486 0) (1.05508 0.0962627 2.81732e-17) (1.07716 0.0698098 -1.40564e-17) (1.0925 0.0414404 -2.10687e-17) (1.10061 0.0144202 7.02794e-18));
    }
}


// ************************************************************************* //
