/*--------------------------------*- C++ -*----------------------------------*\
| =========                 |                                                 |
| \\      /  F ield         | OpenFOAM: The Open Source CFD Toolbox           |
|  \\    /   O peration     | Version:  2412                                  |
|   \\  /    A nd           | Website:  www.openfoam.com                      |
|    \\/     M anipulation  |                                                 |
\*---------------------------------------------------------------------------*/
FoamFile
{
    version     2.0;
    format      ascii;
    arch        "LSB;label=32;scalar=64";
    class       volVectorField;
    location    "1";
    object      U;
}
// * * * * * * * * * * * * * * * * * * * * * * * * * * * * * * * * * * * * * //

dimensions      [0 1 -1 0 0 0 0];

internalField   nonuniform List<vector> 
200
(
(2.99999 6.11375e-07 0)
(2.99996 3.77816e-06 0)
(2.99989 1.2551e-05 0)
(2.99974 3.38774e-05 0)
(2.99941 8.35475e-05 0)
(2.99866 0.000197468 0)
(2.99694 0.000457461 0)
(2.99302 0.00105086 0)
(2.98396 0.00241591 0)
(2.96359 0.0055811 0)
(3 7.94903e-07 0)
(2.99999 4.91197e-06 0)
(2.99997 1.63137e-05 0)
(2.99992 4.40124e-05 0)
(2.99982 0.000108464 0)
(2.9996 0.00025611 0)
(2.99909 0.00059257 0)
(2.99796 0.00135908 0)
(2.99537 0.00311389 0)
(2.9912 0.00716736 0)
(3 2.41224e-07 0)
(3 1.48974e-06 0)
(2.99999 4.94109e-06 0)
(2.99998 1.32988e-05 0)
(2.99995 3.26629e-05 0)
(2.99988 7.67801e-05 0)
(2.99972 0.000176658 0)
(2.99938 0.000402466 0)
(2.99861 0.000910774 0)
(2.99732 0.00207042 0)
(3 7.5342e-08 0)
(3 4.64733e-07 0)
(3 1.53838e-06 0)
(2.99999 4.13004e-06 0)
(2.99998 1.01102e-05 0)
(2.99996 2.3667e-05 0)
(2.99991 5.41706e-05 0)
(2.99981 0.000122632 0)
(2.99957 0.000275527 0)
(2.99915 0.000619826 0)
(3 2.32528e-08 0)
(3 1.43381e-07 0)
(3 4.7449e-07 0)
(3 1.27381e-06 0)
(2.99999 3.11909e-06 0)
(2.99999 7.30471e-06 0)
(2.99997 1.67303e-05 0)
(2.99994 3.7896e-05 0)
(2.99986 8.52129e-05 0)
(2.99972 0.000191636 0)
(3 7.42428e-09 0)
(3 4.57847e-08 0)
(3 1.51552e-07 0)
(3 4.07047e-07 0)
(3 9.97297e-07 0)
(3 2.33732e-06 0)
(2.99999 5.3571e-06 0)
(2.99998 1.21446e-05 0)
(2.99996 2.73327e-05 0)
(2.99991 6.14895e-05 0)
(3 2.40961e-09 0)
(3 1.48657e-08 0)
(3 4.92283e-08 0)
(3 1.32249e-07 0)
(3 3.24025e-07 0)
(3 7.59341e-07 0)
(3 1.74018e-06 0)
(2.99999 3.94464e-06 0)
(2.99999 8.8774e-06 0)
(2.99997 1.99613e-05 0)
(3 7.79903e-10 0)
(3 4.81199e-09 0)
(3 1.59316e-08 0)
(3 4.27562e-08 0)
(3 1.04592e-07 0)
(3 2.44644e-07 0)
(3 5.59528e-07 0)
(3 1.26586e-06 0)
(3 2.84318e-06 0)
(2.99999 6.37804e-06 0)
(3 2.38529e-10 0)
(3 1.47076e-09 0)
(3 4.86376e-09 0)
(3 1.30299e-08 0)
(3 3.18024e-08 0)
(3 7.41933e-08 0)
(3 1.69203e-07 0)
(3 3.81617e-07 0)
(3 8.54529e-07 0)
(3 1.91035e-06 0)
(3 5.03106e-11 0)
(3 3.10104e-10 0)
(3 1.02505e-09 0)
(3 2.74543e-09 0)
(3 6.69979e-09 0)
(3 1.56265e-08 0)
(3 3.56229e-08 0)
(3 8.02707e-08 0)
(3 1.79659e-07 0)
(3 4.01288e-07 0)
(2.89173 0.0260494 -1.07728e-21)
(2.81147 0.0736896 0)
(2.72134 0.141691 0)
(2.62156 0.235908 0)
(2.49248 0.348535 3.43437e-20)
(2.38728 0.496905 0)
(2.35555 0.614662 0)
(2.35238 0.688208 0)
(2.37822 0.709105 0)
(2.39721 0.706621 -2.45505e-20)
(2.97332 0.0265813 -1.31507e-20)
(2.94155 0.0798026 1.24115e-20)
(2.8911 0.161903 0)
(2.82034 0.287326 0)
(2.72091 0.451378 -1.29879e-20)
(2.58271 0.700127 0)
(2.41869 0.936068 0)
(2.2322 1.10443 0)
(2.15942 1.15986 0)
(2.18304 1.09095 0)
(2.99243 0.00601899 0)
(2.98416 0.0159473 -1.28006e-20)
(2.97056 0.0311868 0)
(2.95038 0.0602075 0)
(2.92232 0.100185 -3.00592e-20)
(2.87676 0.168189 1.42156e-20)
(2.80409 0.257585 0)
(2.66472 0.406877 1.64375e-20)
(2.42184 0.622897 0)
(2.27376 0.786833 1.98944e-20)
(2.99753 0.00187473 0)
(2.99477 0.00504939 0)
(2.98994 0.0105754 0)
(2.98261 0.0213264 0)
(2.97215 0.036959 1.45161e-20)
(2.95646 0.0628048 -1.58607e-20)
(2.9302 0.103612 0)
(2.87634 0.177889 -3.6538e-20)
(2.76163 0.322502 0)
(2.62865 0.620236 -3.29923e-20)
(2.99917 0.000611216 5.83209e-21)
(2.99819 0.00169463 6.01013e-21)
(2.99642 0.00365458 0)
(2.99365 0.00753318 6.40324e-21)
(2.9897 0.0133725 6.61976e-21)
(2.98376 0.0230467 0)
(2.97468 0.0373766 0)
(2.95724 0.062721 1.68644e-20)
(2.92085 0.113263 0)
(2.8844 0.221612 0)
(2.99972 0.000206112 -5.84547e-21)
(2.99937 0.000587506 -6.03023e-21)
(2.9987 0.00132002 0)
(2.99764 0.00279907 -6.45647e-21)
(2.99607 0.00514808 -6.7011e-21)
(2.99372 0.00899675 0)
(2.99016 0.0148696 0)
(2.98396 0.0244603 0)
(2.97162 0.0424057 0)
(2.96033 0.0787499 0)
(2.99991 6.98105e-05 5.84959e-21)
(2.99978 0.000203464 0)
(2.99954 0.000478662 0)
(2.99913 0.00104911 0)
(2.9985 0.00199989 6.62427e-21)
(2.99756 0.00356882 0)
(2.9961 0.00602054 0)
(2.9937 0.00994035 0)
(2.98916 0.0168075 0)
(2.98531 0.0300874 7.95783e-21)
(2.99997 2.31505e-05 -2.93011e-21)
(2.99993 6.8693e-05 3.01772e-21)
(2.99984 0.000169617 0)
(2.99969 0.000384504 3.21112e-21)
(2.99944 0.000758965 -3.32997e-21)
(2.99905 0.00139055 3.43161e-21)
(2.99843 0.00239833 3.5538e-21)
(2.99744 0.00402807 0)
(2.99564 0.00675688 3.83022e-21)
(2.99421 0.0118623 -4.15914e-21)
(2.99999 7.16615e-06 -4.40165e-21)
(2.99997 2.16025e-05 -4.53443e-21)
(2.99994 5.54455e-05 0)
(2.99988 0.000129436 -4.82631e-21)
(2.99978 0.000263265 -1.66389e-21)
(2.99961 0.000496322 -5.16046e-21)
(2.99932 0.000874755 -3.5665e-21)
(2.99886 0.00150063 0)
(2.99804 0.00252281 -3.85295e-21)
(2.99743 0.00440111 -6.01482e-21)
(3 1.55739e-06 1.46963e-21)
(2.99999 4.78012e-06 1.514e-21)
(2.99997 1.24435e-05 0)
(2.99994 2.95861e-05 1.61143e-21)
(2.99988 6.15333e-05 -1.66511e-21)
(2.99978 0.000119059 1.72269e-21)
(2.99961 0.000213744 0)
(2.99932 0.000373948 0)
(2.9988 0.000632942 0)
(2.99845 0.00110533 2.00353e-21)
)
;

boundaryField
{
    inlet
    {
        type            fixedValue;
        value           uniform (3 0 0);
    }
    sym
    {
        type            slip;
    }
    wedge
    {
        type            slip;
    }
    top
    {
        type            slip;
    }
    back
    {
        type            empty;
    }
    front
    {
        type            empty;
    }
    outlet
    {
        type            inletOutlet;
        inletValue      uniform (3 0 0);
        value           nonuniform List<vector> 10((2.39721 0.706621 -2.45505e-20) (2.18304 1.09095 0) (2.27376 0.786833 1.98944e-20) (2.62865 0.620236 -3.29923e-20) (2.8844 0.221612 0) (2.96033 0.0787499 0) (2.98531 0.0300874 7.95783e-21) (2.99421 0.0118623 -4.15914e-21) (2.99743 0.00440111 -6.01482e-21) (2.99845 0.00110533 2.00353e-21));
    }
}


// ************************************************************************* //
