/*--------------------------------*- C++ -*----------------------------------*\
| =========                 |                                                 |
| \\      /  F ield         | OpenFOAM: The Open Source CFD Toolbox           |
|  \\    /   O peration     | Version:  2412                                  |
|   \\  /    A nd           | Website:  www.openfoam.com                      |
|    \\/     M anipulation  |                                                 |
\*---------------------------------------------------------------------------*/
FoamFile
{
    version     2.0;
    format      ascii;
    arch        "LSB;label=32;scalar=64";
    class       volScalarField;
    location    "290";
    object      p;
}
// * * * * * * * * * * * * * * * * * * * * * * * * * * * * * * * * * * * * * //

dimensions      [1 -1 -2 0 0 0 0];

internalField   nonuniform List<scalar> 
200
(
101354
101395
101482
101664
102072
102909
104779
108503
117555
136067
101337
101355
101390
101465
101620
101948
102631
104029
106925
113137
101330
101338
101353
101384
101447
101578
101845
102392
103510
105789
101327
101330
101336
101348
101372
101422
101523
101729
102151
103022
101326
101327
101329
101334
101343
101363
101402
101483
101646
101984
101325
101326
101327
101328
101332
101340
101355
101387
101452
101585
101325
101325
101326
101326
101328
101331
101337
101350
101376
101429
101325
101325
101325
101326
101326
101327
101330
101335
101346
101367
101325
101325
101325
101325
101325
101326
101327
101329
101334
101343
101325
101325
101325
101325
101325
101326
101326
101327
101329
101334
202606
265875
326216
378133
415607
434617
436351
426366
412970
401439
132486
156730
188269
226508
268866
311051
347150
371589
383379
385484
112409
122054
137134
159630
191469
233335
282798
331592
368193
383904
105549
109329
115522
125367
140534
163127
194564
234546
275191
303187
102972
104493
107069
111301
118056
128587
144462
166990
194101
217074
101976
102592
103657
105451
108357
112943
119850
129902
142124
153946
101586
101836
102276
103028
104262
106222
109168
113408
118551
123639
101431
101534
101717
102033
102555
103391
104649
106452
108614
110773
101370
101414
101494
101632
101862
102232
102792
103599
104561
105543
101348
101371
101413
101486
101609
101811
102116
102563
103097
103664
)
;

boundaryField
{
    inlet
    {
        type            fixedValue;
        value           uniform 101325;
    }
    sym
    {
        type            slip;
    }
    wedge
    {
        type            slip;
    }
    top
    {
        type            slip;
    }
    back
    {
        type            empty;
    }
    front
    {
        type            empty;
    }
    outlet
    {
        type            zeroGradient;
    }
}


// ************************************************************************* //
