/*--------------------------------*- C++ -*----------------------------------*\
| =========                 |                                                 |
| \\      /  F ield         | OpenFOAM: The Open Source CFD Toolbox           |
|  \\    /   O peration     | Version:  2412                                  |
|   \\  /    A nd           | Website:  www.openfoam.com                      |
|    \\/     M anipulation  |                                                 |
\*---------------------------------------------------------------------------*/
FoamFile
{
    version     2.0;
    format      ascii;
    arch        "LSB;label=32;scalar=64";
    class       volScalarField;
    location    "8";
    object      p;
}
// * * * * * * * * * * * * * * * * * * * * * * * * * * * * * * * * * * * * * //

dimensions      [1 -1 -2 0 0 0 0];

internalField   nonuniform List<scalar> 
200
(
1.19711
0.860069
1.08277
0.922931
1.04136
0.979332
1.00892
1.00007
1.00096
1.00157
1.19441
0.833214
1.05902
0.986613
0.998802
0.996262
0.997065
0.998407
0.999461
1.00009
1.19014
0.837685
1.0447
0.980416
1.00113
0.996473
0.998383
0.999587
1.00037
1.00083
1.18121
0.870756
1.05065
0.951451
0.992928
0.981794
0.989141
0.99306
0.995939
0.997713
1.22876
0.927124
1.01148
0.9838
0.99325
0.992827
0.994496
0.995718
0.996908
0.997969
1.19779
0.861226
1.06549
0.95128
1.00595
0.985836
0.991711
0.991416
0.992922
0.994719
1.20001
0.818153
1.04799
0.992688
0.996685
0.99558
0.995269
0.995607
0.996124
0.996722
1.20924
0.838012
1.10094
0.973639
1.00465
1.00041
0.998389
0.997939
0.998766
0.999516
1.20732
0.856128
1.07295
0.889171
1.03867
0.979237
1.00512
0.997861
1.00064
1.00046
1.20731
0.850691
1.08637
0.944466
1.02418
0.9803
1.01098
0.98978
1.00743
0.996362
1.00175
1.00156
1.00144
1.00144
1.00154
1.00167
1.00177
1.00183
1.00186
1.00186
1.00038
1.00046
1.00062
1.00098
1.00136
1.00164
1.00179
1.00187
1.0019
1.0019
1.00106
1.00117
1.00133
1.00151
1.00166
1.00176
1.00182
1.00186
1.00187
1.00185
0.99913
1
1.0005
1.00098
1.00136
1.00161
1.00176
1.00185
1.00187
1.00186
0.99897
0.999685
1.0004
1.00096
1.00138
1.00162
1.00175
1.0018
1.0018
1.00179
0.997311
0.998815
1.00015
1.00085
1.0013
1.00154
1.00165
1.0017
1.00171
1.00171
0.99803
0.999265
1.0003
1.0009
1.00124
1.00142
1.00149
1.00152
1.00154
1.00159
1.00055
1.00051
1.00093
1.00106
1.0012
1.00134
1.00142
1.0014
1.00137
1.00152
1.00097
1.00025
1.00093
1.00091
1.00104
1.0011
1.0013
1.00129
1.0013
1.00153
1.00412
0.999394
1.00153
1.00101
1.00123
1.00126
1.00135
1.00138
1.00135
1.00153
)
;

boundaryField
{
    inlet
    {
        type            fixedValue;
        value           uniform 1;
    }
    sym
    {
        type            slip;
    }
    wedge
    {
        type            slip;
    }
    top
    {
        type            slip;
    }
    back
    {
        type            empty;
    }
    front
    {
        type            empty;
    }
    outlet
    {
        type            zeroGradient;
    }
}


// ************************************************************************* //
