/*--------------------------------*- C++ -*----------------------------------*\
| =========                 |                                                 |
| \\      /  F ield         | OpenFOAM: The Open Source CFD Toolbox           |
|  \\    /   O peration     | Version:  2412                                  |
|   \\  /    A nd           | Website:  www.openfoam.com                      |
|    \\/     M anipulation  |                                                 |
\*---------------------------------------------------------------------------*/
FoamFile
{
    version     2.0;
    format      ascii;
    arch        "LSB;label=32;scalar=64";
    class       surfaceScalarField;
    location    "8";
    object      phi;
}
// * * * * * * * * * * * * * * * * * * * * * * * * * * * * * * * * * * * * * //

dimensions      [1 0 -1 0 0 0 0];

oriented        oriented;

internalField   nonuniform List<scalar> 
370
(
4.05477e-05
9.57835e-05
-0.000188979
0.000229477
-0.000196489
7.41698e-06
0.000320074
-0.000516513
0.00027744
4.26178e-05
0.000415748
-0.000138308
0.000415187
5.67955e-07
0.000407571
7.61713e-06
0.000391407
1.61677e-05
2.38071e-05
0.00036761
0.000341439
-0.000132465
0.000784819
-0.000213832
0.000971116
-0.000178858
0.000604533
-0.000149915
0.000695425
-4.82665e-05
0.00053521
2.19119e-05
0.000424317
0.000111465
0.000286442
0.000145518
0.000171627
0.000130986
0.00010795
8.74955e-05
0.00032269
-0.000363231
0.000674632
-0.000565862
0.000543077
-4.74427e-05
0.000394027
-8.52367e-07
0.000309384
3.63237e-05
0.000186672
0.000144613
7.87016e-05
0.000219391
-1.33273e-05
0.000237547
-7.51396e-05
0.00019287
0.00014183
-0.000108997
9.67561e-05
-0.000388739
-0.000121974
-0.000347144
-0.000534375
0.000365031
-0.000627586
9.23499e-05
-0.000748182
0.000156967
-0.000731014
0.000127431
-0.000659434
0.00014781
-0.000568379
0.000146499
-0.000494403
0.000118902
8.42188e-05
-0.000436791
-0.000978206
0.000309744
-0.00178313
0.000457577
-0.00110322
-0.000314968
-0.00102349
1.28539e-05
-0.000876353
1.06292e-05
-0.000815072
6.62361e-05
-0.000733869
6.6611e-05
-0.000648313
6.09442e-05
-0.000562391
3.29745e-05
-1.6645e-06
-0.000476568
-1.7033e-05
0.000376364
-0.000167022
0.000608609
-0.000493854
1.29665e-05
-0.000529114
5.1057e-05
-0.00064314
0.000124792
-0.000611612
3.45125e-05
-0.000561235
1.63021e-05
-0.000479963
-2.03102e-05
-0.000385206
-6.17434e-05
-9.21879e-05
-0.000294591
0.000330742
0.000118737
0.000826273
0.000113154
0.000830785
7.64247e-06
0.000611734
0.000267275
0.000589471
0.000146387
0.000524992
9.89503e-05
0.000473742
6.75649e-05
0.000428691
2.47682e-05
0.000381657
-1.46853e-05
-4.88836e-05
0.000338376
0.000238869
-3.66845e-07
0.000611738
-0.000259483
0.000786262
-0.0001668
0.00077973
0.000273712
0.000946589
-2.0465e-05
0.000860764
0.00018482
0.00087614
5.22298e-05
0.000822338
7.86008e-05
0.000792104
1.55732e-05
2.02064e-05
0.000723037
8.98661e-05
5.2023e-05
-0.000145207
-2.48236e-05
-4.71465e-05
-0.000265404
0.000481358
-0.000254547
0.000337423
0.000123478
0.000422633
9.95972e-05
0.000443539
3.13714e-05
0.000298706
0.000223446
0.000300949
1.33506e-05
9.04926e-05
0.000230685
0.000194335
0.000169527
-9.60338e-05
-0.000350526
-0.000227075
-0.000127435
-9.60377e-05
0.000127431
0.000140811
0.000231331
0.000335201
3.24341e-05
0.000311503
2.37381e-05
0.000283539
2.80141e-05
0.000250409
3.31854e-05
0.000218355
3.21192e-05
0.000192481
2.59378e-05
0.000172922
1.96142e-05
0.000159869
1.3101e-05
0.000152078
7.83095e-06
6.9509e-06
-6.0481e-05
0.000180497
-0.000122931
8.62267e-05
-0.000132492
3.76106e-05
-0.000111469
1.21998e-05
-7.59224e-05
-3.4018e-06
-3.77722e-05
-1.21745e-05
-5.10255e-06
-1.30152e-05
1.8151e-05
-1.01088e-05
3.32028e-05
-7.17972e-06
1.71832e-06
-0.000174618
0.00024617
-0.000198183
0.000109758
-0.000174184
1.36316e-05
-0.000128761
-3.3195e-05
-7.92765e-05
-5.28531e-05
-3.61069e-05
-5.53053e-05
-2.95854e-06
-4.61231e-05
1.94058e-05
-3.24307e-05
2.81506e-05
-1.58773e-05
2.44239e-06
-0.000363428
0.000172808
-0.000277737
2.40903e-05
-0.000186819
-7.72555e-05
-0.000107263
-0.000112717
-4.64649e-05
-0.000113615
-1.57403e-06
-0.000100155
2.79745e-05
-7.5625e-05
4.32577e-05
-4.76686e-05
4.74292e-05
-2.00045e-05
5.11334e-06
-0.000297374
-6.37469e-06
-0.000149177
-0.000124082
-5.21941e-05
-0.00017421
9.80797e-06
-0.000174685
4.828e-05
-0.000152047
6.97206e-05
-0.000121549
8.21441e-05
-8.79962e-05
8.77326e-05
-5.31963e-05
8.64462e-05
-1.86701e-05
1.0302e-05
-7.85968e-05
-0.00022233
4.21683e-05
-0.000244825
9.33548e-05
-0.000225368
0.00011969
-0.000200981
0.000130353
-0.000162665
0.000131141
-0.000122285
0.000128078
-8.48733e-05
0.000122793
-4.78436e-05
0.000114616
-1.04278e-05
1.65526e-05
0.000331632
-0.000215551
0.000301794
-0.000214959
0.000277462
-0.000200997
0.000245323
-0.000168798
0.000213205
-0.000130489
0.000184733
-9.37614e-05
0.000163648
-6.37048e-05
0.000147829
-3.19543e-05
0.000131735
5.72994e-06
2.32747e-05
0.000620901
-0.000113369
0.000487833
-8.18434e-05
0.000394899
-0.00010801
0.000300903
-7.47333e-05
0.000224897
-5.44235e-05
0.00016807
-3.68556e-05
0.00013893
-3.4521e-05
0.000124045
-1.70176e-05
0.000102481
2.73407e-05
2.82852e-05
0.000200959
-8.3596e-05
0.000102415
1.67602e-05
3.62471e-05
-4.17799e-05
-1.92172e-05
-1.922e-05
-4.83542e-05
-2.52665e-05
-4.6019e-05
-3.91712e-05
-2.90866e-05
-5.14687e-05
-1.18989e-05
-3.41344e-05
-1.08627e-06
1.65945e-05
2.66629e-05
0.000147779
0.000164597
0.000122868
0.000103707
7.85003e-05
3.9399e-05
-1.20638e-05
-4.61446e-05
-2.94577e-05
)
;

boundaryField
{
    inlet
    {
        type            calculated;
        value           nonuniform List<scalar> 10(-0.000136513 -0.000113246 -9.23567e-05 -7.10297e-05 0.000279952 -4.70992e-05 -7.4731e-05 -0.000121958 -0.000144661 -0.000144303);
    }
    sym
    {
        type            calculated;
        value           uniform 0;
    }
    wedge
    {
        type            calculated;
        value           nonuniform List<scalar> 10(-1.51194e-40 0 0 1.20007e-20 -1.20033e-20 0 -1.20087e-20 0 0 -2.54065e-39);
    }
    top
    {
        type            calculated;
        value           uniform 0;
    }
    back
    {
        type            empty;
    }
    front
    {
        type            empty;
    }
    outlet
    {
        type            calculated;
        value           nonuniform List<scalar> 10(0.000145161 3.84626e-05 2.74617e-05 4.48071e-05 8.12982e-05 0.000108421 0.000125069 9.75145e-05 5.88972e-07 -2.72088e-06);
    }
}


// ************************************************************************* //
