/*--------------------------------*- C++ -*----------------------------------*\
| =========                 |                                                 |
| \\      /  F ield         | OpenFOAM: The Open Source CFD Toolbox           |
|  \\    /   O peration     | Version:  2412                                  |
|   \\  /    A nd           | Website:  www.openfoam.com                      |
|    \\/     M anipulation  |                                                 |
\*---------------------------------------------------------------------------*/
FoamFile
{
    version     2.0;
    format      ascii;
    arch        "LSB;label=32;scalar=64";
    class       volVectorField;
    location    "8";
    object      U;
}
// * * * * * * * * * * * * * * * * * * * * * * * * * * * * * * * * * * * * * //

dimensions      [0 1 -1 0 0 0 0];

internalField   nonuniform List<vector> 
200
(
(-23.3443 0.48384 0)
(17.0305 2.33842 0)
(-12.4046 -0.811372 0)
(7.73122 -3.8308 0)
(-3.37097 -0.504635 0)
(3.13834 -1.3293 0)
(-0.00540121 -0.615074 0)
(1.20181 -0.513604 0)
(0.968509 -0.419581 0)
(0.849624 -0.323309 0)
(-17.2148 0.228724 0)
(11.4439 0.491746 0)
(-1.22748 0.823694 0)
(2.68336 -0.749976 0)
(1.2639 0.693179 0)
(1.42313 0.0763474 0)
(1.17375 0.566294 0)
(0.831626 0.574098 0)
(0.499478 0.569575 0)
(0.289435 0.554566 0)
(-16.9572 -1.05806 0)
(11.3285 -3.69043 0)
(-2.33322 -2.98193 0)
(2.71393 -1.36157 0)
(0.157416 -0.996861 0)
(0.761136 0.153673 0)
(0.266655 0.959359 0)
(0.0702445 1.28809 0)
(-0.131965 1.0933 0)
(-0.208086 0.814132 0)
(-17.2219 -2.21259 0)
(11.269 -3.53313 0)
(-7.17993 2.71681 0)
(2.33814 1.15572 0)
(-3.4635 1.28916 0)
(-1.08247 1.13869 0)
(-1.77547 1.21025 0)
(-1.3776 1.14827 0)
(-1.22887 0.919695 0)
(-1.06377 0.675041 0)
(-12.481 -0.111806 0)
(1.99565 0.342077 0)
(-5.67247 0.211893 0)
(-1.1785 0.520158 0)
(-2.60675 0.464927 0)
(-1.80276 0.695838 0)
(-1.82017 0.753165 0)
(-1.57929 0.752683 0)
(-1.38866 0.601531 0)
(-1.16909 0.400089 0)
(-19.5314 2.0045 0)
(12.6887 3.97097 0)
(-8.30225 -2.55177 0)
(3.26456 -0.677424 0)
(-3.78958 -0.268929 0)
(-0.425083 -0.141716 0)
(-1.76319 -0.115093 0)
(-1.1227 -0.179701 0)
(-1.0032 -0.310178 0)
(-0.740001 -0.438837 0)
(-18.2111 1.0258 0)
(11.999 3.54824 0)
(-1.36825 2.40681 0)
(2.5492 1.61678 0)
(1.21556 1.34863 0)
(1.26903 0.684289 0)
(1.17565 0.354687 0)
(1.0632 0.0124576 0)
(0.932302 -0.310777 0)
(0.810404 -0.547902 0)
(-19.7701 -0.313274 0)
(13.3539 -1.52634 0)
(-3.33725 -2.0181 0)
(3.91647 1.35558 0)
(1.57038 0.212691 0)
(1.91963 0.650624 0)
(2.03398 0.365819 0)
(1.9816 0.295224 0)
(1.86158 0.159108 0)
(1.74753 0.0419037 0)
(-24.2478 0.29404 0)
(18.1813 -1.15811 0)
(-13.3901 -0.216624 0)
(8.88627 0.763785 0)
(-2.91174 -0.251875 0)
(2.84677 1.03364 0)
(0.281931 0.299026 0)
(1.07891 0.690659 0)
(0.596174 -0.0231038 0)
(0.638062 0.226612 0)
(-22.5966 0.0728174 0)
(16.5206 0.748526 0)
(-9.57888 -1.78729 0)
(5.78443 -2.73428 0)
(-5.3865 1.20066 0)
(3.20238 0.395307 0)
(-3.04927 0.117128 0)
(2.08268 1.59556 0)
(-0.998586 0.240756 0)
(1.24235 0.676913 0)
(0.774156 -0.1357 -3.40686e-21)
(0.771416 0.0253072 0)
(0.743136 0.152888 0)
(0.689415 0.229396 0)
(0.621816 0.260284 1.1303e-17)
(0.5582 0.261882 0)
(0.510916 0.250346 0)
(0.481665 0.233786 0)
(0.469671 0.217033 0)
(0.468011 0.201649 -6.79888e-18)
(-0.0174442 0.531394 -5.0101e-18)
(-0.284036 0.239444 5.1737e-18)
(-0.33087 0.112615 0)
(-0.319702 0.0565602 0)
(-0.247193 0.0302082 3.26033e-22)
(-0.155202 0.0116104 0)
(-0.0599459 0.0127852 0)
(0.0287335 0.0133638 0)
(0.077106 0.0110302 0)
(0.123835 0.0362491 0)
(-0.355248 0.508962 0)
(-0.483254 0.102394 -5.12488e-18)
(-0.469925 -0.0877092 0)
(-0.390438 -0.173551 0)
(-0.268807 -0.192545 -1.13294e-17)
(-0.151793 -0.16261 5.87194e-18)
(-0.0513031 -0.117078 0)
(0.0343039 -0.0570062 6.32493e-18)
(0.0811796 -0.0101716 0)
(0.0882491 0.0332902 6.82873e-18)
(-0.949103 0.463293 0)
(-0.806142 0.139177 0)
(-0.57129 -0.120245 0)
(-0.358908 -0.236346 0)
(-0.191639 -0.256064 5.6586e-18)
(-0.0614891 -0.229423 -5.87058e-18)
(0.0512217 -0.157923 0)
(0.107512 -0.0886504 -1.26221e-17)
(0.144699 -0.0184007 0)
(0.143977 0.0424653 -6.82149e-18)
(-0.958954 0.195515 2.46215e-18)
(-0.484269 -0.260403 2.55822e-18)
(-0.224436 -0.46966 0)
(-0.0355006 -0.469995 2.73586e-18)
(0.0876619 -0.396489 2.82817e-18)
(0.164358 -0.30668 0)
(0.216006 -0.208113 0)
(0.250019 -0.105072 6.29012e-18)
(0.267061 -0.00999142 0)
(0.261327 0.0728309 0)
(-0.471557 -0.510924 -2.4905e-18)
(0.05675 -0.587664 -2.56853e-18)
(0.163518 -0.578439 0)
(0.283692 -0.512848 -2.71975e-18)
(0.331142 -0.414597 -2.81089e-18)
(0.355221 -0.305836 0)
(0.363569 -0.196665 0)
(0.366122 -0.086163 0)
(0.359863 0.0193969 0)
(0.348657 0.0997378 0)
(0.775093 -0.700235 2.46676e-18)
(0.769 -0.677023 0)
(0.712345 -0.604997 0)
(0.662014 -0.502766 0)
(0.597421 -0.388659 2.79768e-18)
(0.534989 -0.278168 0)
(0.482391 -0.181125 0)
(0.451189 -0.0800098 0)
(0.423976 0.031469 0)
(0.40257 0.100669 3.39584e-18)
(1.48803 -0.192144 -1.20366e-18)
(1.34338 -0.25267 1.25016e-18)
(1.07508 -0.307776 0)
(0.88273 -0.277354 1.34827e-18)
(0.686529 -0.217937 -1.40392e-18)
(0.530255 -0.13558 1.45956e-18)
(0.412026 -0.0829666 1.51782e-18)
(0.378185 -0.0110154 0)
(0.344841 0.0821379 1.6393e-18)
(0.314297 0.108155 -1.70414e-18)
(0.428532 -0.398016 -1.87169e-18)
(0.43885 -0.123084 -1.93986e-18)
(0.118668 -0.271477 0)
(0.0442083 -0.118586 -2.08628e-18)
(-0.136966 -0.0798725 -7.1703e-19)
(-0.136248 -0.0677559 -2.21958e-18)
(-0.104407 -0.104693 -1.53003e-18)
(-0.0729818 -0.0724597 0)
(-0.00515801 0.0983349 -1.64897e-18)
(0.00123878 0.0849634 -2.57153e-18)
(-0.276499 0.000243514 6.26652e-19)
(0.760049 0.24537 6.49138e-19)
(0.196573 0.0668695 0)
(0.346066 0.0316719 6.91527e-19)
(0.232336 -0.0493263 -7.14967e-19)
(0.174471 -0.140027 7.40247e-19)
(0.0544233 -0.182116 0)
(-0.128468 -0.119182 0)
(-0.160075 -0.00221875 0)
(-0.00924658 0.0660256 8.55791e-19)
)
;

boundaryField
{
    inlet
    {
        type            fixedValue;
        value           uniform (3 0 0);
    }
    sym
    {
        type            slip;
    }
    wedge
    {
        type            slip;
    }
    top
    {
        type            slip;
    }
    back
    {
        type            empty;
    }
    front
    {
        type            empty;
    }
    outlet
    {
        type            inletOutlet;
        inletValue      uniform (3 0 0);
        value           nonuniform List<vector> 10((0.468011 0.201649 -6.79888e-18) (0.123835 0.0362491 0) (0.0882491 0.0332902 6.82873e-18) (0.143977 0.0424653 -6.82149e-18) (0.261327 0.0728309 0) (0.348657 0.0997378 0) (0.40257 0.100669 3.39584e-18) (0.314297 0.108155 -1.70414e-18) (0.00123878 0.0849634 -2.57153e-18) (3 0 0));
    }
}


// ************************************************************************* //
