/*--------------------------------*- C++ -*----------------------------------*\
| =========                 |                                                 |
| \\      /  F ield         | OpenFOAM: The Open Source CFD Toolbox           |
|  \\    /   O peration     | Version:  2412                                  |
|   \\  /    A nd           | Website:  www.openfoam.com                      |
|    \\/     M anipulation  |                                                 |
\*---------------------------------------------------------------------------*/
FoamFile
{
    version     2.0;
    format      ascii;
    arch        "LSB;label=32;scalar=64";
    class       volScalarField;
    location    "9";
    object      p;
}
// * * * * * * * * * * * * * * * * * * * * * * * * * * * * * * * * * * * * * //

dimensions      [1 -1 -2 0 0 0 0];

internalField   nonuniform List<scalar> 
50
(
354954
411877
479919
545316
586993
337830
397749
470434
540045
585297
320835
383604
462465
539457
589925
303741
368490
453745
539788
596748
294853
360829
450879
543886
606445
629247
631350
650056
679576
714830
626310
639791
669305
699221
724292
634639
652118
677569
699309
718511
644942
661882
684435
704220
721016
654104
667419
686952
704136
718545
)
;

boundaryField
{
    inlet
    {
        type            fixedValue;
        value           uniform 101325;
    }
    sym
    {
        type            slip;
    }
    wedge
    {
        type            slip;
    }
    top
    {
        type            slip;
    }
    back
    {
        type            empty;
    }
    front
    {
        type            empty;
    }
    outlet
    {
        type            zeroGradient;
    }
}


// ************************************************************************* //
