/*--------------------------------*- C++ -*----------------------------------*\
| =========                 |                                                 |
| \\      /  F ield         | OpenFOAM: The Open Source CFD Toolbox           |
|  \\    /   O peration     | Version:  2412                                  |
|   \\  /    A nd           | Website:  www.openfoam.com                      |
|    \\/     M anipulation  |                                                 |
\*---------------------------------------------------------------------------*/
FoamFile
{
    version     2.0;
    format      ascii;
    arch        "LSB;label=32;scalar=64";
    class       surfaceScalarField;
    location    "9";
    object      phi;
}
// * * * * * * * * * * * * * * * * * * * * * * * * * * * * * * * * * * * * * //

dimensions      [1 0 -1 0 0 0 0];

oriented        oriented;

internalField   nonuniform List<scalar> 
85
(
1.72235e+08
1.97171e+06
1.52776e+08
4.10652e+06
1.32307e+08
6.37667e+06
1.12003e+08
8.90803e+06
1.13463e+07
9.22543e+07
1.74191e+08
2.43728e+06
1.57082e+08
5.23077e+06
1.39979e+08
8.1043e+06
1.2533e+08
1.07135e+07
1.23314e+07
1.14931e+08
1.75441e+08
2.10141e+06
1.59382e+08
4.60932e+06
1.43383e+08
7.23233e+06
1.3035e+08
9.4146e+06
1.05391e+07
1.22006e+08
1.76601e+08
1.11194e+06
1.61327e+08
2.50976e+06
1.45981e+08
3.99138e+06
1.34101e+08
5.07079e+06
5.98583e+06
1.27611e+08
1.76892e+08
1.61515e+08
1.45656e+08
1.33222e+08
1.27665e+08
8.68736e+07
-4.56164e+06
7.83862e+07
-490838
6.98979e+07
25445.7
6.48341e+07
-1.43229e+06
-5.48702e+06
1.02429e+08
-3.63513e+06
9.26473e+07
-736543
8.59957e+07
-1.74408e+06
8.31168e+07
-4.50577e+06
-7.86667e+06
1.09745e+08
-2.17025e+06
1.03007e+08
-2.27213e+06
9.80496e+07
-2.97513e+06
9.32952e+07
-4.13546e+06
-6.66168e+06
1.16259e+08
-1.0675e+06
1.08775e+08
-1.61272e+06
1.02769e+08
-1.81987e+06
9.72748e+07
-2.5498e+06
-4.03394e+06
1.1752e+08
1.10043e+08
1.04102e+08
9.81217e+07
)
;

boundaryField
{
    inlet
    {
        type            calculated;
        value           nonuniform List<scalar> 5(-1.90722e+08 -1.90924e+08 -1.91137e+08 -1.91369e+08 -1.91495e+08);
    }
    sym
    {
        type            calculated;
        value           uniform 0;
    }
    wedge
    {
        type            calculated;
        value           nonuniform List<scalar> 5(1.43756e-08 7.18285e-09 1.46173e-08 0 -3.58385e-28);
    }
    top
    {
        type            calculated;
        value           uniform 0;
    }
    back
    {
        type            empty;
    }
    front
    {
        type            empty;
    }
    outlet
    {
        type            calculated;
        value           nonuniform List<scalar> 5(6.62751e+07 8.14596e+07 8.87226e+07 9.12148e+07 9.08769e+07);
    }
}


// ************************************************************************* //
