/*--------------------------------*- C++ -*----------------------------------*\
| =========                 |                                                 |
| \\      /  F ield         | OpenFOAM: The Open Source CFD Toolbox           |
|  \\    /   O peration     | Version:  2412                                  |
|   \\  /    A nd           | Website:  www.openfoam.com                      |
|    \\/     M anipulation  |                                                 |
\*---------------------------------------------------------------------------*/
FoamFile
{
    version     2.0;
    format      ascii;
    arch        "LSB;label=32;scalar=64";
    class       volScalarField;
    location    "9";
    object      T;
}
// * * * * * * * * * * * * * * * * * * * * * * * * * * * * * * * * * * * * * //

dimensions      [0 0 0 1 0 0 0];

internalField   nonuniform List<scalar> 
50
(
482.675
509.255
536.158
553.076
564.748
475.93
504.995
533.974
552.877
564.32
468.695
500.754
533.135
554.634
566.89
460.676
495.824
532.343
557.361
570.797
456.274
493.41
532.938
560.468
574.709
566.786
569.071
575.845
587.21
586.931
570.704
577.889
586.591
594.315
592.926
575.794
582.809
587.523
590.894
588.635
581.614
588.387
592.385
595.004
593.222
585.027
591.143
594.245
596.073
594.608
)
;

boundaryField
{
    inlet
    {
        type            fixedValue;
        value           uniform 300;
    }
    sym
    {
        type            slip;
    }
    wedge
    {
        type            slip;
    }
    top
    {
        type            slip;
    }
    back
    {
        type            empty;
    }
    front
    {
        type            empty;
    }
    outlet
    {
        type            inletOutlet;
        inletValue      uniform 300;
        value           nonuniform List<scalar> 5(586.819 592.818 588.52 593.116 594.51);
    }
}


// ************************************************************************* //
