/*--------------------------------*- C++ -*----------------------------------*\
| =========                 |                                                 |
| \\      /  F ield         | OpenFOAM: The Open Source CFD Toolbox           |
|  \\    /   O peration     | Version:  2412                                  |
|   \\  /    A nd           | Website:  www.openfoam.com                      |
|    \\/     M anipulation  |                                                 |
\*---------------------------------------------------------------------------*/
FoamFile
{
    version     2.0;
    format      ascii;
    arch        "LSB;label=32;scalar=64";
    class       volVectorField;
    location    "9";
    object      U;
}
// * * * * * * * * * * * * * * * * * * * * * * * * * * * * * * * * * * * * * //

dimensions      [0 1 -1 0 0 0 0];

internalField   nonuniform List<vector> 
50
(
(337.258 4.34554 0)
(292.068 8.56865 0)
(229.551 12.6962 0)
(171.724 17.3492 0)
(126.953 22.9963 0)
(357.214 8.61463 0)
(308.775 16.82 0)
(245.055 24.0888 0)
(188.56 30.6185 0)
(150.604 36.6328 0)
(377.27 8.60513 0)
(324.999 17.1433 0)
(256.912 24.6492 0)
(197.321 30.6307 0)
(159.005 35.4604 0)
(397.921 6.59015 0)
(342.407 13.3488 0)
(269.319 19.248 0)
(205.093 23.5324 0)
(165.517 26.4313 0)
(408.924 2.29392 0)
(351.373 4.72041 0)
(274.116 6.84021 0)
(205.199 8.28891 0)
(164.048 9.14927 0)
(85.0895 49.5861 0)
(110.62 70.0847 3.55652e-17)
(122.681 79.9207 0)
(123.318 84.1492 5.16511e-17)
(146.942 96.872 -6.30732e-17)
(124.428 59.6195 3.14689e-17)
(138.137 73.7462 3.64306e-17)
(144.054 75.7792 4.28305e-17)
(154.24 75.1176 7.26025e-19)
(180.15 82.8417 -6.33376e-17)
(134.759 44.9717 -3.13227e-17)
(148.771 49.4396 -3.60249e-17)
(158.311 51.1266 -4.23377e-17)
(171.976 54.6273 -5.11016e-17)
(196.359 60.6239 6.33255e-17)
(142.309 30.045 0)
(155.681 33.2675 0)
(164.71 36.0252 0)
(179.046 38.6036 0)
(202.785 41.606 0)
(140.11 8.14649 0)
(155.321 7.64357 0)
(165.389 7.26121 0)
(180.391 7.23274 0)
(203.212 8.12108 0)
)
;

boundaryField
{
    inlet
    {
        type            fixedValue;
        value           uniform (664 0 0);
    }
    sym
    {
        type            slip;
    }
    wedge
    {
        type            slip;
    }
    top
    {
        type            slip;
    }
    back
    {
        type            empty;
    }
    front
    {
        type            empty;
    }
    outlet
    {
        type            inletOutlet;
        inletValue      uniform (664 0 0);
        value           nonuniform List<vector> 5((146.942 96.872 -6.30732e-17) (180.15 82.8417 -6.33376e-17) (196.359 60.6239 6.33255e-17) (202.785 41.606 0) (203.212 8.12108 0));
    }
}


// ************************************************************************* //
