/*--------------------------------*- C++ -*----------------------------------*\
| =========                 |                                                 |
| \\      /  F ield         | OpenFOAM: The Open Source CFD Toolbox           |
|  \\    /   O peration     | Version:  2412                                  |
|   \\  /    A nd           | Website:  www.openfoam.com                      |
|    \\/     M anipulation  |                                                 |
\*---------------------------------------------------------------------------*/
FoamFile
{
    version     2.0;
    format      ascii;
    arch        "LSB;label=32;scalar=64";
    class       volScalarField;
    location    "10";
    object      p;
}
// * * * * * * * * * * * * * * * * * * * * * * * * * * * * * * * * * * * * * //

dimensions      [0 2 -2 0 0 0 0];

internalField   nonuniform List<scalar> 
20000
(
8.52576e+07
-4.88073e+07
-2.01776e+07
-1.27385e+07
-8.56517e+06
-6.28441e+06
-4.9125e+06
-4.02526e+06
-3.41215e+06
-2.96287e+06
-2.61643e+06
-2.33759e+06
-2.10515e+06
-1.90594e+06
-1.73151e+06
-1.57628e+06
-1.4365e+06
-1.30954e+06
-1.19352e+06
-1.08707e+06
-989112
-898820
-815501
-738574
-667532
-601926
-541354
-485448
-433874
-386324
-342511
-302169
-265046
-230902
-199508
-170639
-144080
-119623
-97070.2
-76236.2
-56951.3
-39064.4
-22444.8
-6983.04
7409.6
20803.7
33254.7
44807.4
55500
65367.7
74446.3
82773.6
90391.3
97345
103685
109464
114738
119562
123991
128070
131834
135310
138515
141463
144170
146654
148940
151058
153037
154911
156711
158467
160205
161949
163713
165502
167310
169121
170904
172622
174230
175686
176959
178033
178910
179611
180164
180600
180948
181233
181475
181687
181875
182039
182178
182291
182393
182513
182650
182686
-3.42811e+06
-4.62715e+06
-3.72154e+06
-3.84275e+06
-3.70151e+06
-3.48617e+06
-3.2503e+06
-3.0138e+06
-2.78606e+06
-2.5711e+06
-2.37014e+06
-2.18304e+06
-2.00914e+06
-1.84756e+06
-1.69742e+06
-1.55788e+06
-1.42818e+06
-1.30764e+06
-1.19563e+06
-1.09161e+06
-995050
-905478
-822443
-745525
-674322
-608458
-547573
-491331
-439412
-391517
-347364
-306685
-269227
-234750
-203024
-173826
-146945
-122179
-99338.6
-78246.8
-58742.5
-40681.9
-23938.9
-8405.46
6010.08
19384.8
31784.1
43264.2
53875.6
63665.4
72679.5
80964.3
88567.2
95537
101923
107776
113145
118077
122616
126803
130671
134245
137550
140605
143430
146047
148481
150758
152905
154949
156915
158827
160703
162557
164397
166221
168020
169774
171457
173039
174487
175774
176884
177811
178566
179169
179647
180030
180346
180617
180863
181096
181323
181543
181748
181923
182059
182152
182200
182192
533401
-1.5383e+06
-1.7339e+06
-2.05502e+06
-2.28139e+06
-2.39869e+06
-2.43591e+06
-2.4139e+06
-2.34978e+06
-2.25706e+06
-2.14599e+06
-2.0242e+06
-1.89724e+06
-1.76911e+06
-1.6426e+06
-1.51962e+06
-1.40144e+06
-1.28886e+06
-1.18231e+06
-1.082e+06
-987966
-900099
-818223
-742099
-671454
-605996
-545422
-489429
-437721
-390006
-346008
-305459
-268104
-233702
-202022
-172845
-145965
-121189
-98336.9
-77244.5
-57761.9
-39755
-23104.3
-7704.42
6538.29
19707.2
31877.5
43117.7
53491.4
63058.6
71876.8
80001.3
87486.1
94382.6
100740
106604
112018
117020
121647
125930
129899
133579
136996
140173
143134
145903
148503
150955
153282
155503
157634
159688
161677
163603
165467
167263
168979
170599
172105
173478
174704
175772
176684
177446
178076
178595
179028
179399
179729
180033
180324
180608
180888
181159
181410
181623
181781
181868
181880
181836
636728
-1.35434e+06
-1.4517e+06
-1.69749e+06
-1.89988e+06
-2.04641e+06
-2.135e+06
-2.16985e+06
-2.1592e+06
-2.11256e+06
-2.03906e+06
-1.94672e+06
-1.84213e+06
-1.73052e+06
-1.61593e+06
-1.50134e+06
-1.38893e+06
-1.2802e+06
-1.17617e+06
-1.07745e+06
-984383
-897085
-815531
-739590
-669057
-603684
-543193
-487293
-435691
-388096
-344225
-303804
-266574
-232287
-200711
-171626
-144828
-120128
-97352.5
-76342.9
-56955.2
-39059.6
-22539
-7287.62
6790.92
19784.8
31775.7
42839.6
53047.9
62467.7
71162.7
79192.9
86614.2
93478.7
99833.9
105723
111186
116258
120971
125353
129431
133229
136772
140082
143181
146090
148829
151414
153862
156184
158392
160492
162488
164382
166171
167850
169413
170854
172164
173341
174383
175293
176081
176761
177348
177863
178321
178739
179126
179491
179835
180161
180466
180744
180990
181195
181346
181433
181460
181450
1.21724e+06
-1.79951e+06
-1.77377e+06
-1.95702e+06
-2.08857e+06
-2.17621e+06
-2.22269e+06
-2.2309e+06
-2.20398e+06
-2.14722e+06
-2.06699e+06
-1.96966e+06
-1.86093e+06
-1.74563e+06
-1.62763e+06
-1.5099e+06
-1.39463e+06
-1.28338e+06
-1.17715e+06
-1.07659e+06
-982023
-893545
-811104
-734535
-663599
-598009
-537456
-481616
-430167
-382794
-339191
-299068
-262150
-228181
-196919
-168141
-141642
-117232
-94737.5
-74001.5
-54880.1
-37243.2
-20972.4
-5959.58
7894.11
20679.9
32482.2
43379.4
53444.8
62746.6
71348.5
79309.3
86683.3
93520.2
99865.3
105760
111240
116341
121091
125520
129652
133510
137116
140490
143651
146616
149399
152014
154473
156785
158958
160996
162905
164686
166342
167873
169280
170566
171733
172785
173729
174574
175329
176007
176617
177172
177681
178149
178581
178977
179340
179666
179957
180213
180434
180619
180765
180874
180947
180994
2.00897e+06
-2.82825e+06
-2.44923e+06
-2.57804e+06
-2.62598e+06
-2.63135e+06
-2.60016e+06
-2.54278e+06
-2.46041e+06
-2.35572e+06
-2.23422e+06
-2.10181e+06
-1.96371e+06
-1.82414e+06
-1.68634e+06
-1.55263e+06
-1.42462e+06
-1.3033e+06
-1.18923e+06
-1.08264e+06
-983509
-891646
-806760
-728488
-656428
-590164
-529280
-473367
-422036
-374916
-331660
-291944
-255470
-221961
-191164
-162846
-136797
-112822
-90744.9
-70406.4
-51661
-34376.7
-18433.3
-3721.01
9860.49
22403.3
33992.2
44705.1
54614.1
63785.4
72279.9
80153.7
87457.9
94239.1
100540
106399
111851
116928
121659
126069
130184
134026
137613
140965
144098
147026
149765
152324
154715
156947
159028
160964
162764
164432
165973
167395
168702
169899
170995
171995
172907
173738
174496
175187
175819
176396
176924
177405
177841
178233
178585
178899
179178
179424
179642
179838
180013
180171
180311
180431
2.22778e+06
-5.33923e+06
-4.59381e+06
-4.49843e+06
-4.16586e+06
-3.83115e+06
-3.54215e+06
-3.2804e+06
-3.0332e+06
-2.79767e+06
-2.57287e+06
-2.35905e+06
-2.15692e+06
-1.96716e+06
-1.79022e+06
-1.6262e+06
-1.47489e+06
-1.33584e+06
-1.20842e+06
-1.09192e+06
-985543
-888495
-799998
-719311
-645736
-578628
-517391
-461483
-410409
-363720
-321010
-281910
-246088
-213245
-183110
-155440
-130014
-106633
-85119.2
-65308.9
-47056
-30227.8
-14703.9
-374.981
12858.7
25088.1
36396.3
46859
56545.8
65520.2
73840.2
81558.9
88724.5
95381
101568
107323
112678
117664
122307
126632
130663
134421
137924
141190
144235
147075
149722
152188
154486
156624
158613
160461
162175
163764
165234
166593
167847
169002
170066
171043
171939
172762
173517
174207
174837
175412
175936
176412
176842
177232
177585
177905
178197
178464
178713
178950
179179
179401
179617
179814
5.79645e+06
-1.15118e+07
-7.80007e+06
-6.72179e+06
-5.80909e+06
-5.23243e+06
-4.76519e+06
-4.3061e+06
-3.86274e+06
-3.44789e+06
-3.06904e+06
-2.72886e+06
-2.42657e+06
-2.15936e+06
-1.92362e+06
-1.71567e+06
-1.53199e+06
-1.36939e+06
-1.22508e+06
-1.09664e+06
-981996
-879385
-787292
-704433
-629708
-562177
-501025
-445549
-395137
-349254
-307433
-269261
-234374
-202450
-173204
-146383
-121760
-99134.3
-78324
-59167.2
-41518.2
-25245.9
-10231.7
3631.42
16440.5
28283.5
39240.5
49384.3
58781.3
67492.1
75571.7
83070.6
90034.6
96505.5
102521
108117
113323
118168
122679
126880
130791
134435
137828
140988
143932
146674
149229
151608
153822
155884
157801
159583
161238
162773
164195
165513
166733
167860
168900
169859
170741
171554
172301
172987
173617
174193
174722
175209
175656
176067
176449
176809
177150
177475
177785
178083
178373
178656
178934
179198
1.01477e+08
-8.12758e+07
-3.68509e+07
-2.51986e+07
-1.71353e+07
-1.2295e+07
-9.17765e+06
-7.08125e+06
-5.61588e+06
-4.56e+06
-3.77546e+06
-3.17609e+06
-2.70685e+06
-2.33132e+06
-2.02478e+06
-1.7704e+06
-1.5563e+06
-1.37389e+06
-1.21685e+06
-1.08043e+06
-961034
-855863
-762679
-679711
-605530
-538962
-479031
-424920
-375939
-331498
-291095
-254294
-220714
-190023
-161931
-136183
-112555
-90846.5
-70880.5
-52498.7
-35559.6
-19936.2
-5514.19
7809.27
20127
31522.8
42072.7
51845.7
60904.6
69306.5
77103.6
84343.5
91069.6
97321.6
103136
108545
113579
118266
122630
126694
130479
134005
137290
140349
143199
145854
148328
150633
152779
154778
156639
158370
159979
161473
162861
164149
165344
166454
167481
168432
169311
170125
170880
171581
172230
172831
173391
173917
174414
174883
175326
175747
176151
176539
176913
177274
177624
177965
178299
178617
3.7768e+07
-6.13961e+07
-3.76712e+07
-2.62845e+07
-1.7674e+07
-1.22678e+07
-9.01547e+06
-6.92734e+06
-5.48281e+06
-4.44474e+06
-3.67266e+06
-3.08179e+06
-2.6192e+06
-2.24977e+06
-1.9488e+06
-1.69956e+06
-1.49034e+06
-1.31261e+06
-1.16005e+06
-1.02789e+06
-912560
-811298
-721830
-642365
-571469
-507965
-450881
-399404
-352849
-310638
-272279
-237353
-205489
-176366
-149703
-125256
-102810
-82175.3
-63183.9
-45686.5
-29549.7
-14653.8
-891.295
11834.6
23610.9
34516.3
44621.9
53992
62685.5
70755.5
78250.6
85215.4
91690.5
97713.3
103318
108535
113394
117921
122139
126070
129735
133151
136336
139305
142072
144651
147056
149299
151391
153342
155162
156857
158437
159907
161275
162549
163739
164849
165886
166851
167750
168588
169375
170116
170816
171474
172093
172679
173235
173766
174274
174760
175226
175674
176104
176519
176918
177305
177682
178041
-1.56433e+07
-2.12999e+07
-1.51019e+07
-1.09989e+07
-8.80597e+06
-7.20332e+06
-5.96718e+06
-4.99328e+06
-4.20031e+06
-3.5612e+06
-3.04423e+06
-2.62179e+06
-2.27359e+06
-1.98404e+06
-1.73979e+06
-1.53142e+06
-1.35233e+06
-1.19737e+06
-1.0624e+06
-944126
-840031
-748113
-666537
-593790
-528661
-470140
-417389
-369700
-326474
-287196
-251433
-218823
-189035
-161773
-136781
-113835
-92737.3
-73313.2
-55409.4
-38889.3
-23631.1
-9525.71
3525.12
15609.9
26808.6
37193.4
46829.7
55777
64089.4
71815.6
79000.5
85685
91906.8
97700.2
103097
108126
112815
117187
121266
125073
128626
131944
135041
137932
140629
143145
145496
147692
149747
151668
153466
155149
156722
158192
159565
160849
162055
163189
164258
165266
166215
167107
167949
168743
169495
170209
170890
171539
172158
172748
173311
173849
174364
174857
175332
175789
176231
176658
177073
177469
-5.23315e+06
-8.70263e+06
-8.07447e+06
-6.77744e+06
-5.70064e+06
-4.8112e+06
-4.11368e+06
-3.57782e+06
-3.13452e+06
-2.75633e+06
-2.43028e+06
-2.14723e+06
-1.90089e+06
-1.68625e+06
-1.49834e+06
-1.33307e+06
-1.18753e+06
-1.05908e+06
-945371
-844369
-754508
-674502
-602940
-538619
-480613
-428152
-380587
-337364
-298006
-262096
-229277
-199267
-171793
-146594
-123442
-102138
-82505.1
-64388.4
-47651.3
-32172.8
-17845.1
-4571.92
7733.79
19150.6
29750
39596.8
48750.1
57263.9
65187
72564.2
79436.2
85840.2
91810.6
97378.8
102574
107423
111950
116179
120131
123825
127281
130514
133540
136371
139018
141493
143809
145980
148016
149928
151725
153415
155006
156503
157912
159238
160487
161663
162772
163819
164810
165753
166650
167502
168311
169079
169810
170505
171168
171801
172406
172985
173541
174074
174588
175083
175561
176023
176472
176899
-3.44669e+06
-5.9397e+06
-5.33208e+06
-4.44164e+06
-3.89131e+06
-3.4831e+06
-3.109e+06
-2.76744e+06
-2.46379e+06
-2.19643e+06
-1.96162e+06
-1.75499e+06
-1.57232e+06
-1.41017e+06
-1.26601e+06
-1.13729e+06
-1.02205e+06
-918662
-825747
-742138
-666851
-598982
-537566
-481764
-430990
-384727
-342513
-303936
-268631
-236274
-206578
-179330
-154303
-131266
-110027
-90418.2
-72290.8
-55513.5
-39969.2
-25554
-12174.7
252.041
11801.7
22542.6
32537.2
41842.7
50511.4
58591.3
66126.4
73157
79720
85849
91575.1
96926.7
101930
106610
110989
115088
118926
122523
125896
129059
132029
134819
137440
139902
142217
144392
146439
148364
150177
151885
153492
155007
156440
157799
159087
160306
161461
162555
163591
164574
165507
166394
167238
168042
168808
169540
170240
170909
171550
172164
172755
173323
173870
174397
174907
175400
175878
176332
-2.08564e+06
-3.6441e+06
-3.33384e+06
-2.88846e+06
-2.65041e+06
-2.46978e+06
-2.27664e+06
-2.08047e+06
-1.89403e+06
-1.72098e+06
-1.56224e+06
-1.41777e+06
-1.28657e+06
-1.1673e+06
-1.05875e+06
-959876
-869755
-787568
-712580
-644133
-581616
-524486
-472305
-424570
-380837
-340719
-303873
-269996
-238818
-210099
-183628
-159219
-136676
-115808
-96468.9
-78539.4
-61905.6
-46461.3
-32109.5
-18761.8
-6338.1
5233.65
16018.7
26076.4
35460.9
44221.6
52404.5
60051.6
67201.8
73890.7
80151.3
86013.6
91505.4
96652
101477
106002
110247
114231
117972
121486
124787
127890
130808
133551
136132
138567
140867
143040
145091
147027
148855
150582
152213
153756
155214
156595
157901
159140
160316
161431
162492
163500
164460
165375
166248
167081
167877
168639
169368
170067
170738
171383
172003
172600
173176
173731
174268
174787
175291
175768
-1.40267e+06
-2.51162e+06
-2.3485e+06
-2.0707e+06
-1.92604e+06
-1.82334e+06
-1.71142e+06
-1.59187e+06
-1.47252e+06
-1.35692e+06
-1.24716e+06
-1.14448e+06
-1.0491e+06
-960622
-878575
-802560
-732204
-667137
-607003
-551469
-500221
-452949
-409348
-369111
-331951
-297603
-265827
-236408
-209151
-183880
-160434
-138662
-118446
-99670.3
-82215.4
-65977.2
-50860.3
-36776.4
-23644.6
-11390.6
52.7944
10746.8
20746.6
30102.4
38860.1
47061.6
54745.9
61948.7
68703.5
75041.2
80990.2
86577
91825.7
96758.8
101397
105759
109863
113725
117360
120784
124009
127049
129915
132619
135171
137580
139855
142005
144038
145960
147779
149501
151131
152676
154140
155529
156847
158098
159288
160420
161497
162524
163504
164440
165334
166190
167009
167795
168549
169273
169969
170638
171283
171905
172505
173084
173644
174186
174712
175210
-961631
-1.76093e+06
-1.66588e+06
-1.48373e+06
-1.39589e+06
-1.34116e+06
-1.27998e+06
-1.21015e+06
-1.13622e+06
-1.06105e+06
-986895
-915465
-847486
-783033
-722018
-664390
-610107
-559101
-511281
-466543
-424780
-385864
-349642
-315945
-284594
-255414
-228239
-202918
-179315
-157305
-136773
-117615
-99735.6
-83043.5
-67453.9
-52887.5
-39270.4
-26533.2
-14611.2
-3444.35
7022.63
16840.1
26053.6
34704.8
42831.3
50467.8
57646.3
64396.6
70746.5
76722.1
82347.7
87645.8
92637.3
97341.6
101776
105958
109903
113624
117135
120449
123578
126533
129325
131965
134460
136822
139057
141173
143178
145078
146879
148588
150208
151747
153208
154596
155916
157173
158369
159510
160598
161637
162630
163581
164491
165364
166201
167005
167779
168522
169238
169928
170594
171236
171857
172456
173036
173598
174143
174660
-679329
-1.27891e+06
-1.22546e+06
-1.10125e+06
-1.04309e+06
-1.01044e+06
-974145
-930948
-883153
-832662
-781383
-730904
-681996
-634818
-589369
-545695
-503881
-463995
-426081
-390166
-356261
-324354
-294398
-266315
-240002
-215350
-192248
-170592
-150284
-131239
-113376
-96620.8
-80904.9
-66163.1
-52333.7
-39357.7
-27178.9
-15743.4
-5000.18
5099.08
14599.4
23542.1
31965.1
39902.4
47385
54441.1
61096.9
67376.4
73302.4
78896.5
84178.8
89168.3
93882.7
98338.3
102550
106533
110300
113862
117231
120419
123436
126291
128995
131556
133982
136283
138465
140536
142502
144368
146142
147827
149430
150954
152405
153786
155101
156356
157553
158695
159788
160833
161834
162794
163714
164599
165449
166267
167055
167814
168546
169253
169935
170594
171232
171849
172446
173024
173586
174120
-484335
-942848
-913250
-825163
-784285
-763912
-742373
-715869
-685116
-651226
-615746
-580092
-544983
-510577
-476871
-443923
-411853
-380788
-350840
-322106
-294672
-268596
-243904
-220581
-198584
-177847
-158299
-139870
-122492
-106104
-90651.6
-76083.9
-62353.1
-49413.8
-37222
-25735.3
-14911.8
-4710.95
4906.98
13980.3
22545.3
30636
38283.5
45515.8
52358.5
58834.2
64964
70767.1
76261.7
81465.2
86393.9
91063.5
95488.6
99683
103659
107430
111005
114395
117610
120659
123550
126294
128897
131368
133714
135943
138062
140077
141994
143819
145556
147211
148787
150290
151722
153089
154394
155640
156831
157970
159062
160107
161111
162074
163001
163892
164751
165578
166377
167147
167892
168611
169307
169980
170632
171263
171875
172468
173045
173592
-346400
-703965
-689727
-626082
-596137
-582670
-569579
-553042
-532826
-509531
-484437
-458803
-433272
-407954
-382800
-357830
-333147
-308885
-285177
-262151
-239927
-218606
-198256
-178904
-160543
-143141
-126650
-111022
-96210.4
-82171.1
-68866.4
-56262
-44325.7
-33027.2
-22336.5
-12223.8
-2659.18
6387.58
14946.7
23048.3
30721.6
37994.3
44892.2
51438.6
57654.4
63558.1
69166.4
74494.5
79556.8
84366.6
88937
93280.5
97409
101334
105065
108613
111986
115194
118244
121143
123900
126520
129013
131384
133641
135789
137835
139785
141645
143419
145111
146727
148270
149744
151153
152499
153787
155019
156199
157330
158414
159456
160457
161420
162348
163242
164105
164938
165743
166522
167275
168005
168711
169395
170059
170702
171326
171932
172521
173081
-245514
-528299
-523943
-477169
-454314
-444842
-436826
-426581
-413245
-397052
-379074
-360438
-341717
-322976
-304118
-285116
-266038
-247008
-228160
-209633
-191566
-174082
-157274
-141197
-125866
-111270
-97379
-84157.2
-71568.9
-59582.3
-48170.1
-37308.9
-26977.7
-17157
-7827.32
1031.25
9439.48
17419.2
24993.1
32184.7
39017.4
45513.9
51695.8
57582.6
63191.5
68538
73635.3
78495.4
83129.3
87547.1
91758.9
95774.3
99602.7
103253
106734
110052
113217
116234
119110
121851
124464
126953
129327
131589
133747
135806
137771
139649
141443
143159
144800
146370
147873
149312
150690
152010
153275
154488
155652
156769
157843
158876
159871
160829
161754
162648
163511
164346
165155
165939
166698
167434
168148
168842
169514
170168
170802
171419
172019
172590
-170368
-396879
-399133
-364446
-346453
-339400
-334499
-328264
-319427
-307969
-294816
-281001
-267051
-252997
-238702
-224089
-209194
-194115
-178983
-163938
-149126
-134682
-120714
-107293
-94449.5
-82183.7
-70475.1
-59294.4
-48611.7
-38400.4
-28638.9
-19310.2
-10400.7
-1898.14
6209.19
13933.8
21289.6
28291.7
34957.3
41304.4
47351.8
53118.6
58622.7
63880.9
68907.9
73716.5
78317.5
82720.5
86933.6
90964.4
94820.5
98508.7
102036
105410
108637
111722
114672
117493
120189
122765
125226
127577
129823
131969
134021
135983
137860
139657
141379
143030
144612
146130
147587
148985
150327
151616
152854
154043
155186
156286
157345
158365
159349
160300
161219
162108
162968
163803
164612
165398
166161
166902
167622
168321
169002
169663
170306
170932
171542
172123
-113520
-297013
-303671
-277747
-263140
-257553
-254578
-250939
-245093
-236844
-227006
-216546
-205961
-195262
-184279
-172894
-161105
-148991
-136673
-124290
-111992
-99923.2
-88201.1
-76907
-66081
-55729.1
-45834.8
-36370.7
-27307.6
-18619.7
-10287.3
-2296.02
5363.77
12699.4
19717.2
26424.5
32829.6
38943
44777.2
50346.3
55665.7
60751.3
65618.7
70282.4
74755.3
79048.4
83170.8
87130.2
90932.8
94584.1
98089.4
101454
104682
107779
110750
113600
116332
118952
121462
123867
126171
128377
130489
132513
134451
136309
138092
139802
141445
143024
144542
146002
147407
148759
150061
151313
152519
153680
154799
155877
156917
157921
158892
159831
160740
161622
162477
163308
164116
164901
165665
166409
167132
167837
168523
169191
169842
170475
171094
171683
-70215.6
-220591
-230153
-210637
-198431
-193741
-191956
-189999
-186139
-180047
-172459
-164298
-156046
-147709
-139091
-130040
-120519
-110587
-100355
-89963.6
-79566.2
-69313.5
-59332.4
-49712
-40498
-31699.2
-23299.1
-15267.8
-7572.93
-185.748
6915.44
13745
20311.5
26619.4
32671.6
38471.2
44022.8
49333
54410.9
59267.6
63915.9
68369.6
72642.4
76747.2
80695.6
84497.6
88161
91692.3
95096.3
98377
101538
104583
107514
110336
113052
115664
118177
120592
122913
125142
127283
129339
131312
133206
135026
136774
138456
140073
141632
143133
144582
145979
147327
148628
149884
151096
152266
153396
154486
155539
156558
157543
158497
159421
160319
161191
162038
162863
163667
164450
165213
165957
166683
167391
168081
168755
169412
170052
170678
171276
-37251
-162106
-173470
-158589
-148063
-143887
-142801
-141900
-139324
-134645
-128539
-121903
-115223
-108507
-101544
-94147.6
-86250.6
-77889.6
-69167.8
-60226.4
-51225.8
-42325.3
-33661.7
-25331.4
-17385.2
-9832.71
-2654.06
4186.1
10727
17003.9
23043.6
28863.6
34473.3
39876.5
45073.8
50065.5
54852.8
59439.5
63831.9
68038.8
72071.2
75941.3
79661.3
83243.2
86697.7
90034
93259.2
96379
99397.4
102318
105142
107872
110511
113059
115520
117895
120186
122395
124524
126574
128548
130449
132278
134038
135733
137367
138942
140462
141930
143350
144724
146053
147341
148587
149794
150962
152093
153187
154246
155272
156265
157229
158163
159071
159955
160814
161652
162469
163267
164045
164806
165550
166276
166986
167680
168357
169019
169666
170299
170905
-12507.4
-117903
-130215
-118569
-109163
-105223
-104482
-104176
-102358
-98518.8
-93290
-87563.9
-81845.1
-76157.3
-70282
-64004.2
-57222.3
-49949.5
-42279.1
-34353.6
-26341.3
-18413
-10716.5
-3357.89
3607.31
10169.7
16353.8
22203.4
27767.7
33091.4
38209.7
43145.8
47912.5
52514.2
56950.8
61220.3
65321.4
69255.2
73025.9
76640.4
80108.2
83440.2
86647.9
89742.2
92733.4
95629.9
98438.4
101164
103811
106381
108876
111298
113648
115925
118133
120270
122340
124341
126276
128145
129949
131691
133371
134994
136560
138074
139539
140957
142331
143665
144960
146219
147442
148630
149785
150906
151995
153051
154077
155073
156039
156979
157892
158781
159648
160494
161320
162127
162917
163690
164447
165188
165914
166625
167321
168002
168668
169321
169960
170574
5390.14
-85589.6
-98125.6
-88526.8
-79755.7
-75817.8
-75132.3
-75055
-73575
-70115.2
-65270.7
-59941.9
-54670.6
-49511.7
-44247.7
-38637.9
-32546.2
-25959.3
-18958.5
-11687.7
-4325.01
2945.38
9962.11
16609.2
22826.1
28605
33977.3
38997.7
43728
48225.4
52535.6
56690
60706.2
64590.9
68344
71962.1
75442
78782.5
81986
85057.8
88006.4
90841.8
93574.5
96215
98772.6
101255
103669
106019
108309
110540
112715
114835
116899
118909
120865
122767
124614
126408
128148
129834
131467
133048
134578
136059
137494
138885
140236
141549
142826
144071
145285
146469
147625
148753
149853
150926
151970
152987
153978
154941
155879
156793
157683
158552
159401
160231
161043
161839
162620
163386
164138
164875
165600
166310
167007
167691
168362
169019
169664
170286
17205.2
-63815.1
-75878.1
-67207.2
-58574.7
-54358.3
-53393.8
-53135.1
-51539.7
-47979.4
-43026.7
-37607.5
-32318.8
-27259.7
-22220.3
-16931.9
-11215.6
-5021.12
1590.12
8476.13
15447.3
22301.9
28860.8
34994.8
40638
45785.1
50477.9
54785.3
58785.5
62550.9
66139.7
69592.3
72932
76167.9
79300.1
82324.2
85235.2
88030.3
90710.3
93279.9
95746.8
98120.5
100411
102628
104780
106874
108915
110908
112856
114761
116626
118450
120235
121981
123688
125356
126984
128571
130116
131620
133081
134501
135880
137219
138521
139788
141023
142228
143407
144561
145692
146800
147888
148953
149997
151019
152018
152995
153948
154878
155786
156673
157539
158386
159215
160028
160826
161609
162379
163137
163882
164615
165336
166046
166743
167429
168102
168764
169414
170043
23139.8
-52189.9
-63048.5
-54196.3
-45242.7
-40526.4
-39001.1
-38170.2
-35981.9
-31779.5
-26133.9
-20018.9
-14111
-8581.18
-3252.35
2154.05
7851.87
13932.8
20369.9
27041.8
33764.6
40331.5
46551.5
52282.9
57451.8
62054
66141.3
69799.7
73127
76214.3
79134.6
81938.2
84653.7
87292
89852.4
92328.3
94712.4
97000.2
99191.5
101291
103305
105245
107120
108939
110710
112438
114128
115783
117406
118999
120563
122102
123614
125102
126566
128004
129415
130799
132154
133478
134770
136031
137260
138458
139628
140772
141891
142989
144069
145131
146178
147211
148228
149231
150218
151188
152141
153075
153991
154887
155764
156622
157463
158287
159095
159890
160671
161441
162199
162947
163684
164411
165128
165835
166531
167217
167892
168557
169212
169848
22762.2
-51243.6
-59761.3
-49206.7
-39187.5
-33544.3
-31003.2
-29061.9
-25711.7
-20338.3
-13561.6
-6405.39
422.466
6748.91
12760.4
18741
24907
31338.9
37990.7
44729
51372.8
57731.7
63636.4
68963.9
73654.1
77713.3
81205.1
84230
86903.1
89333.1
91608.1
93789.3
95910.7
97984.5
100008
101971
103862
105675
107407
109062
110649
112178
113659
115101
116511
117893
119250
120585
121898
123193
124471
125734
126984
128222
129450
130665
131868
133056
134226
135377
136507
137614
138699
139762
140804
141828
142835
143829
144811
145783
146747
147703
148651
149591
150520
151439
152344
153235
154112
154972
155817
156646
157460
158260
159047
159822
160586
161340
162084
162820
163548
164267
164978
165681
166374
167059
167735
168402
169060
169701
14722.9
-63079.2
-67587.6
-53248.7
-41058.9
-33753.8
-29398.3
-25410.2
-19875.1
-12311.5
-3492.58
5416.87
13620.2
20929
27587.9
33989.1
40471.7
47217.6
54204.9
61246.1
68075.8
74438.7
80144.9
85094.8
89279.8
92759.3
95635
98030.5
100073
101880
103547
105141
106701
108240
109755
111233
112658
114022
115319
116554
117734
118870
119974
121055
122118
123169
124208
125236
126255
127265
128270
129271
130271
131273
132276
133281
134287
135291
136289
137279
138257
139223
140174
141110
142034
142945
143848
144743
145632
146519
147403
148286
149166
150042
150914
151780
152637
153484
154320
155144
155955
156754
157540
158314
159078
159831
160576
161313
162042
162765
163481
164190
164893
165589
166278
166959
167633
168299
168957
169602
-3904.82
-92384.9
-90233
-68861.5
-52489.9
-41918.3
-34098
-26412.4
-17168
-6096.07
5838.21
17336.9
27563.4
36366.4
44064.9
51125
57927.5
64697.7
71508.1
78298.8
84907.5
91077.2
96534.5
101103
104751
107578
109752
111450
112828
114007
115080
116107
117124
118143
119160
120160
121127
122049
122921
123744
124527
125279
126013
126738
127460
128185
128912
129643
130378
131117
131863
132618
133386
134168
134965
135778
136604
137441
138285
139131
139975
140815
141649
142475
143294
144107
144916
145723
146530
147338
148149
148962
149778
150594
151409
152222
153031
153833
154628
155413
156189
156955
157711
158458
159196
159927
160650
161368
162080
162787
163488
164185
164877
165564
166245
166920
167588
168250
168906
169549
-38645.8
-148231
-135654
-102885
-79627.9
-63209.5
-48900.1
-34383.8
-18622.2
-1825.24
14763.5
29773.5
42483.7
52966
61772.2
69544.8
76769
83693.2
90358.6
96669.4
102513
107805
112453
116329
119348
121534
123034
124054
124787
125378
125912
126438
126977
127532
128096
128654
129191
129694
130158
130584
130978
131351
131715
132083
132462
132858
133275
133712
134172
134653
135158
135687
136244
136830
137445
138088
138758
139451
140161
140883
141614
142348
143083
143817
144549
145281
146013
146747
147484
148226
148973
149726
150484
151244
152007
152770
153531
154288
155041
155787
156526
157257
157982
158699
159410
160115
160816
161511
162203
162892
163577
164259
164937
165611
166280
166945
167604
168258
168907
169544
-98531.1
-243892
-212900
-160280
-124861
-98118.3
-72650.8
-46799.5
-20736.1
4537.21
27465.3
46775.6
62124.4
74056.6
83535.8
91485.2
98546.9
105046
111065
116543
121368
125446
128790
131460
133466
134815
135582
135926
136033
136050
136067
136119
136213
136342
136493
136649
136793
136913
136999
137048
137066
137065
137058
137063
137091
137154
137257
137404
137596
137833
138115
138442
138814
139230
139690
140191
140729
141299
141897
142516
143151
143796
144450
145108
145771
146437
147107
147783
148465
149154
149851
150554
151263
151976
152693
153411
154128
154843
155555
156263
156965
157662
158354
159040
159722
160401
161075
161747
162417
163084
163750
164413
165074
165732
166387
167038
167684
168326
168963
169588
-201235
-418291
-368107
-279666
-213474
-160044
-111268
-66169.2
-25062.7
11362.2
41982.3
66120.6
84176
97400.8
107280
115042
121483
127022
131821
135912
139278
141906
143818
145112
145904
146263
146255
145987
145591
145176
144806
144499
144250
144046
143874
143723
143576
143412
143210
142960
142660
142325
141975
141632
141321
141058
140856
140723
140662
140674
140756
140905
141119
141394
141726
142110
142540
143010
143513
144045
144598
145168
145752
146346
146949
147561
148181
148809
149447
150094
150749
151412
152082
152758
153437
154117
154797
155476
156153
156825
157494
158159
158819
159475
160128
160778
161426
162073
162718
163362
164005
164647
165288
165927
166564
167198
167828
168454
169075
169685
-330636
-708117
-676169
-527239
-384925
-256450
-148896
-67116.3
-6427.75
39378
73748.5
98628.1
115957
127828
136090
142020
146403
149692
152178
154042
155388
156279
156759
156859
156624
156114
155396
154558
153706
152921
152237
151644
151109
150617
150169
149772
149414
149060
148669
148208
147669
147063
146416
145765
145144
144581
144098
143709
143418
143227
143134
143131
143213
143372
143600
143889
144231
144618
145044
145501
145983
146487
147008
147544
148094
148656
149231
149817
150416
151026
151647
152278
152916
153560
154208
154859
155510
156160
156807
157452
158092
158729
159361
159990
160615
161238
161858
162478
163097
163716
164335
164954
165572
166190
166807
167422
168033
168641
169244
169834
-408375
-1.90278e+06
-1.6166e+06
-1.0851e+06
-738184
-487075
-290805
-144420
-38890.9
35444.1
86107
119373
140521
153623
161951
167000
169599
170344
170118
169534
168863
168187
167462
166613
165595
164402
163069
161658
160277
159035
157995
157135
156374
155661
155013
154459
153989
153554
153084
152525
151850
151069
150213
149330
148467
147665
146954
146354
145875
145519
145281
145155
145130
145195
145339
145551
145822
146142
146502
146896
147317
147763
148228
148712
149212
149729
150261
150809
151371
151947
152536
153137
153747
154365
154988
155615
156243
156870
157496
158119
158738
159353
159962
160567
161167
161764
162358
162951
163543
164135
164728
165322
165917
166512
167107
167701
168292
168880
169464
170035
884324
-4.51492e+06
-3.13539e+06
-2.22634e+06
-1.42588e+06
-851805
-469660
-223508
-65520.6
34996.8
97534.2
135306
158065
172307
181185
186100
187069
184628
180888
177387
174661
172724
171361
170298
169279
168140
166832
165374
163862
162464
161292
160368
159605
158889
158221
157652
157179
156742
156264
155680
154957
154098
153138
152130
151129
150184
149333
148601
148001
147535
147199
146985
146881
146875
146954
147105
147318
147581
147887
148228
148598
148993
149410
149847
150304
150779
151271
151781
152309
152852
153411
153983
154566
155160
155761
156368
156978
157589
158200
158808
159412
160011
160603
161189
161768
162342
162912
163478
164043
164608
165173
165741
166310
166881
167453
168026
168597
169165
169730