/*--------------------------------*- C++ -*----------------------------------*\
| =========                 |                                                 |
| \\      /  F ield         | OpenFOAM: The Open Source CFD Toolbox           |
|  \\    /   O peration     | Version:  2412                                  |
|   \\  /    A nd           | Website:  www.openfoam.com                      |
|    \\/     M anipulation  |                                                 |
\*---------------------------------------------------------------------------*/
FoamFile
{
    version     2.0;
    format      ascii;
    arch        "LSB;label=32;scalar=64";
    class       surfaceScalarField;
    location    "10";
    object      phi;
}
// * * * * * * * * * * * * * * * * * * * * * * * * * * * * * * * * * * * * * //

dimensions      [0 3 -1 0 0 0 0];

oriented        oriented;

internalField   nonuniform List<scalar> 
39700
(
-113.91
-26.2492
-83.7834
-30.1269
-64.7266
-19.0568
-52.5777
-12.1489
-44.4752
-8.10253
-38.8219
-5.65326
-34.7411
-4.08084
-31.699
-3.04212
-29.3566
-2.34251
-27.4921
-1.86452
-25.9582
-1.53394
-24.6558
-1.30254
-23.5176
-1.13832
-22.4978
-1.01982
-21.5655
-0.932472
-20.6992
-0.866384
-19.8846
-0.814782
-19.1117
-0.77304
-18.3739
-0.737996
-17.6665
-0.707502
-16.9866
-0.680105
-16.332
-0.654834
-15.7012
-0.631048
-15.0931
-0.608334
-14.5069
-0.586432
-13.942
-0.565186
-13.3977
-0.544509
-12.8737
-0.524359
-12.3693
-0.504722
-11.884
-0.485598
-11.4174
-0.466999
-10.9688
-0.44894
-10.5378
-0.431436
-10.1237
-0.414499
-9.72605
-0.398141
-9.34416
-0.382367
-8.97749
-0.367181
-8.62544
-0.35258
-8.28745
-0.338559
-7.96294
-0.325108
-7.65135
-0.312212
-7.35216
-0.299857
-7.06483
-0.288022
-6.78887
-0.27669
-6.5238
-0.265838
-6.26915
-0.255449
-6.0245
-0.245503
-5.7894
-0.235984
-5.56346
-0.226876
-5.34627
-0.218167
-5.13745
-0.209844
-4.93663
-0.201894
-4.74345
-0.194305
-4.55757
-0.187067
-4.37864
-0.180166
-4.20635
-0.173587
-4.0404
-0.167309
-3.88051
-0.161309
-3.72644
-0.15556
-3.57797
-0.150032
-3.43491
-0.144697
-3.29709
-0.13953
-3.16437
-0.134509
-3.03662
-0.129621
-2.91373
-0.124853
-2.79559
-0.1202
-2.68209
-0.115656
-2.57312
-0.111218
-2.4686
-0.106885
-2.36841
-0.102662
-2.27244
-0.0985521
-2.18058
-0.0945668
-2.09269
-0.0907192
-2.00863
-0.087026
-1.92822
-0.0835056
-1.85129
-0.0801756
-1.77762
-0.0770521
-1.70701
-0.0741479
-1.63923
-0.0714733
-1.57404
-0.0690366
-1.51122
-0.0668447
-1.45051
-0.0649035
-1.39166
-0.0632154
-1.33444
-0.0617749
-1.27862
-0.0605641
-1.22402
-0.0595514
-1.17048
-0.0586958
-1.11791
-0.0579556
-1.06624
-0.0573009
-1.0154
-0.0567284
-0.965296
-0.0562747
-0.915741
-0.0560329
-0.866397
-0.0561597
-0.816728
-0.0568636
-0.765976
-0.0583748
-0.713269
-0.0608261
-0.657897
-0.0640797
-0.59955
-0.067772
-0.537983
-0.0718898
-0.0773912
-0.472079
8.82164
-7.74798
-11.1391
-10.1662
-19.6724
-10.5235
-23.7372
-8.08411
-25.5534
-6.28645
-26.1978
-5.00889
-26.197
-4.08169
-25.8364
-3.40276
-25.2755
-2.90344
-24.6053
-2.53482
-23.8781
-2.26121
-23.1244
-2.05635
-22.3619
-1.90088
-21.6012
-1.7806
-20.8487
-1.68512
-20.1083
-1.60695
-19.3825
-1.5407
-18.6732
-1.48258
-17.9814
-1.42993
-17.3081
-1.38095
-16.654
-1.33443
-16.0195
-1.28959
-15.4048
-1.24595
-14.8101
-1.20324
-14.2355
-1.16131
-13.6809
-1.12013
-13.146
-1.0797
-12.6306
-1.04007
-12.1344
-1.00129
-11.6569
-0.963428
-11.1978
-0.926545
-10.7564
-0.890696
-10.3324
-0.855925
-9.92508
-0.822268
-9.53396
-0.789752
-9.15846
-0.75839
-8.79799
-0.72819
-8.452
-0.69915
-8.11991
-0.671259
-7.80116
-0.644499
-7.49519
-0.61885
-7.20148
-0.594282
-6.91948
-0.570764
-6.64869
-0.548263
-6.38861
-0.526743
-6.13876
-0.506168
-5.89867
-0.4865
-5.66791
-0.467705
-5.44604
-0.449748
-5.23266
-0.432595
-5.0274
-0.416213
-4.82987
-0.400571
-4.63975
-0.385638
-4.45671
-0.371381
-4.28044
-0.357768
-4.11066
-0.344764
-3.94709
-0.332334
-3.78949
-0.320439
-3.63762
-0.309042
-3.49122
-0.298102
-3.3501
-0.287582
-3.21403
-0.277443
-3.08281
-0.26765
-2.95628
-0.258172
-2.83427
-0.248983
-2.71662
-0.240062
-2.60321
-0.231392
-2.49389
-0.222965
-2.38855
-0.214774
-2.28707
-0.206818
-2.18932
-0.199099
-2.09519
-0.191627
-2.00458
-0.18441
-1.91737
-0.177464
-1.83344
-0.170807
-1.7527
-0.164459
-1.67503
-0.158442
-1.60029
-0.15278
-1.52836
-0.147493
-1.45908
-0.142602
-1.3923
-0.138117
-1.32787
-0.134038
-1.26567
-0.13035
-1.2056
-0.127021
-1.14759
-0.12401
-1.09157
-0.121268
-1.03751
-0.118742
-0.98536
-0.116384
-0.93511
-0.11415
-0.886757
-0.112017
-0.840326
-0.110002
-0.795864
-0.108174
-0.753437
-0.106672
-0.713127
-0.105685
-0.675051
-0.105409
-0.639323
-0.105973
-0.605916
-0.10738
-0.574544
-0.109529
-0.54509
-0.112242
-0.114887
-0.518946
-0.127761
-9.96893
-5.82984
-4.4641
-12.3697
-3.98368
-16.6167
-3.83711
-19.3189
-3.58437
-20.9991
-3.32871
-21.9745
-3.10632
-22.454
-2.92327
-22.5809
-2.77662
-22.456
-2.65986
-22.1515
-2.56575
-21.7202
-2.48775
-21.2007
-2.42052
-20.6214
-2.35993
-20.0037
-2.30299
-19.3632
-2.2476
-18.7116
-2.1924
-18.0578
-2.13659
-17.4081
-2.07977
-16.7674
-2.02184
-16.1392
-1.96286
-15.5259
-1.90304
-14.9295
-1.84266
-14.3509
-1.78203
-13.7911
-1.72144
-13.2503
-1.66121
-12.7286
-1.60161
-12.2262
-1.54288
-11.7426
-1.48523
-11.2775
-1.42886
-10.8305
-1.37389
-10.4012
-1.32046
-9.98886
-1.26865
-9.59306
-1.21852
-9.21318
-1.17012
-8.84861
-1.12346
-8.49878
-1.07856
-8.1631
-1.0354
-7.84098
-0.993972
-7.53187
-0.954241
-7.23521
-0.916174
-6.95046
-0.879728
-6.6771
-0.84486
-6.41461
-0.81152
-6.16251
-0.779658
-5.9203
-0.749222
-5.68754
-0.720158
-5.46378
-0.692412
-5.24858
-0.665929
-5.04156
-0.640654
-4.84232
-0.616533
-4.65052
-0.593512
-4.46582
-0.571536
-4.2879
-0.550551
-4.11648
-0.530501
-3.95128
-0.511334
-3.79207
-0.492994
-3.63859
-0.475431
-3.49061
-0.458596
-3.34793
-0.442443
-3.21032
-0.426931
-3.07757
-0.412016
-2.94946
-0.39766
-2.82581
-0.383824
-2.70641
-0.370471
-2.5911
-0.357567
-2.47971
-0.345084
-2.37209
-0.333001
-2.26809
-0.3213
-2.16759
-0.309971
-2.07047
-0.299008
-1.97661
-0.288409
-1.88591
-0.278179
-1.79827
-0.268327
-1.71359
-0.258866
-1.6318
-0.249812
-1.5528
-0.241187
-1.4765
-0.233016
-1.4028
-0.225326
-1.33163
-0.21814
-1.26287
-0.211467
-1.19644
-0.205301
-1.13228
-0.199609
-1.07035
-0.19434
-1.01061
-0.189428
-0.953091
-0.184796
-0.897821
-0.180362
-0.84488
-0.176047
-0.794365
-0.171783
-0.746409
-0.167519
-0.70118
-0.163232
-0.65889
-0.15895
-0.61979
-0.154769
-0.584142
-0.150862
-0.552148
-0.147471
-0.523886
-0.144835
-0.499263
-0.143111
-0.47817
-0.142189
-0.460936
-0.141434
-0.139314
-0.448744
-4.69917
-7.64308
-9.67521
0.511922
-13.2205
-0.438381
-16.0285
-1.02914
-18.124
-1.48891
-19.615
-1.83775
-20.5999
-2.12151
-21.1709
-2.35234
-21.413
-2.53461
-21.3995
-2.67341
-21.1915
-2.77379
-20.8387
-2.84072
-20.3804
-2.87887
-19.8479
-2.89256
-19.2653
-2.88566
-18.6514
-2.86164
-18.0204
-2.82354
-17.3831
-2.77406
-16.7476
-2.71551
-16.1197
-2.64989
-15.5038
-2.57893
-14.903
-2.50408
-14.3193
-2.42659
-13.7541
-2.34748
-13.2082
-2.26764
-12.6819
-2.18778
-12.1753
-2.10849
-11.6883
-2.03025
-11.2204
-1.95345
-10.7712
-1.87837
-10.3403
-1.80526
-9.92684
-1.73429
-9.53036
-1.66557
-9.15015
-1.59918
-8.78558
-1.53518
-8.43597
-1.47358
-8.1007
-1.41437
-7.77913
-1.35754
-7.47067
-1.30304
-7.17471
-1.25083
-6.89071
-1.20085
-6.6181
-1.15303
-6.35637
-1.10733
-6.10502
-1.06365
-5.86355
-1.02194
-5.63152
-0.982114
-5.40847
-0.944106
-5.19399
-0.907838
-4.98768
-0.873236
-4.78915
-0.840225
-4.59805
-0.80873
-4.41403
-0.778676
-4.23678
-0.749989
-4.066
-0.722596
-3.9014
-0.696425
-3.74272
-0.671406
-3.5897
-0.64747
-3.4421
-0.624554
-3.29969
-0.602597
-3.16227
-0.581541
-3.02963
-0.561333
-2.90156
-0.541926
-2.77787
-0.523272
-2.65839
-0.505328
-2.54293
-0.488053
-2.43132
-0.471407
-2.32338
-0.455356
-2.21896
-0.439867
-2.11792
-0.424915
-2.02011
-0.410479
-1.9254
-0.396544
-1.83369
-0.383103
-1.74485
-0.370155
-1.65877
-0.357703
-1.57534
-0.345757
-1.49448
-0.334327
-1.4161
-0.323426
-1.34011
-0.313066
-1.26647
-0.303259
-1.19513
-0.294011
-1.12609
-0.285314
-1.05934
-0.277135
-0.994917
-0.269421
-0.932881
-0.262099
-0.873302
-0.255089
-0.816269
-0.248298
-0.761902
-0.241621
-0.710355
-0.234941
-0.661812
-0.228166
-0.616457
-0.221244
-0.574496
-0.21413
-0.536199
-0.206788
-0.501844
-0.199298
-0.471631
-0.191901
-0.445692
-0.184886
-0.424081
-0.17855
-0.406531
-0.173333
-0.392259
-0.169607
-0.380208
-0.166984
-0.163712
-0.36951
-10.0879
-7.06101
-13.489
3.91307
-16.1373
2.20987
-18.227
1.06049
-19.7596
0.0436721
-20.7853
-0.812129
-21.3827
-1.52411
-21.6353
-2.09979
-21.616
-2.55404
-21.3879
-2.90153
-21.0043
-3.15755
-20.5082
-3.33688
-19.9342
-3.453
-19.3092
-3.51768
-18.6539
-3.54103
-17.9842
-3.53153
-17.3116
-3.49624
-16.6449
-3.44097
-15.99
-3.3705
-15.3514
-3.28869
-14.7319
-3.19868
-14.1332
-3.10299
-13.5564
-3.00365
-13.0018
-2.90227
-12.4696
-2.80016
-11.9593
-2.69831
-11.4706
-2.59755
-11.0027
-2.49849
-10.5548
-2.40161
-10.1263
-2.30727
-9.71626
-2.21571
-9.32384
-2.12712
-8.94823
-2.04162
-8.58863
-1.95925
-8.24426
-1.88003
-7.9144
-1.80397
-7.59831
-1.73101
-7.29532
-1.6611
-7.0048
-1.59418
-6.72611
-1.53015
-6.45869
-1.46894
-6.20198
-1.41046
-5.95547
-1.35459
-5.71865
-1.30126
-5.49106
-1.25035
-5.27227
-1.20178
-5.06187
-1.15543
-4.85945
-1.11122
-4.66466
-1.06904
-4.47715
-1.0288
-4.29658
-0.990413
-4.12265
-0.953777
-3.95506
-0.918806
-3.79353
-0.885411
-3.6378
-0.853509
-3.4876
-0.823018
-3.3427
-0.793857
-3.20286
-0.765951
-3.06787
-0.739226
-2.93751
-0.713614
-2.81159
-0.689049
-2.68993
-0.665471
-2.57235
-0.642828
-2.45868
-0.621068
-2.34876
-0.600147
-2.24243
-0.580024
-2.13952
-0.560659
-2.03989
-0.542014
-1.94339
-0.524056
-1.84989
-0.506756
-1.75926
-0.490092
-1.67139
-0.47405
-1.58615
-0.458628
-1.50344
-0.443827
-1.42314
-0.429652
-1.34516
-0.4161
-1.26943
-0.403163
-1.19592
-0.390824
-1.1246
-0.37907
-1.05549
-0.367882
-0.988635
-0.357232
-0.92409
-0.347061
-0.861959
-0.337281
-0.802382
-0.327787
-0.745504
-0.318491
-0.691463
-0.309317
-0.64039
-0.300162
-0.592438
-0.290899
-0.547753
-0.281438
-0.506429
-0.271785
-0.468513
-0.261943
-0.434056
-0.25187
-0.40312
-0.241632
-0.375735
-0.231492
-0.351924
-0.221729
-0.331807
-0.21251
-0.315527
-0.204217
-0.302885
-0.197489
-0.292864
-0.192692
-0.188788
-0.28363
-15.0257
-7.89136
-18.1849
7.0723
-20.5932
4.61817
-22.2598
2.72698
-23.2553
1.03919
-23.6998
-0.367722
-23.6989
-1.52506
-23.3686
-2.43017
-22.8161
-3.10657
-22.1232
-3.59455
-21.3477
-3.93313
-20.5298
-4.15481
-19.6972
-4.28575
-18.8683
-4.34668
-18.0555
-4.35396
-17.2667
-4.32042
-16.5069
-4.25625
-15.7786
-4.16944
-15.083
-4.06628
-14.4202
-3.95169
-13.7896
-3.82948
-13.1901
-3.70265
-12.6206
-3.57346
-12.0794
-3.44369
-11.5652
-3.31468
-11.0763
-3.18745
-10.6114
-3.06277
-10.169
-2.94122
-9.7478
-2.8232
-9.34645
-2.709
-8.96375
-2.59881
-8.59858
-2.49272
-8.24988
-2.39078
-7.91665
-2.29295
-7.598
-2.19919
-7.29307
-2.10942
-7.0011
-2.02354
-6.72136
-1.94144
-6.45317
-1.86299
-6.19592
-1.78807
-5.94902
-1.71654
-5.71194
-1.64827
-5.48418
-1.58313
-5.26527
-1.52099
-5.05476
-1.46171
-4.85227
-1.40517
-4.65741
-1.35124
-4.46982
-1.2998
-4.28917
-1.25073
-4.11515
-1.20392
-3.94747
-1.15925
-3.78584
-1.11661
-3.63
-1.07591
-3.47969
-1.03704
-3.33469
-0.999911
-3.19475
-0.964424
-3.05965
-0.930491
-2.92918
-0.898026
-2.80315
-0.866944
-2.68137
-0.837166
-2.56367
-0.808614
-2.44987
-0.781218
-2.33983
-0.754919
-2.23338
-0.729663
-2.13038
-0.705406
-2.03066
-0.68211
-1.93407
-0.659732
-1.84047
-0.638231
-1.74971
-0.617564
-1.66167
-0.59769
-1.57624
-0.578571
-1.49332
-0.560182
-1.41282
-0.54251
-1.33466
-0.525556
-1.25876
-0.509322
-1.18506
-0.493791
-1.11352
-0.478922
-1.04417
-0.464656
-0.977053
-0.450937
-0.912264
-0.437725
-0.849878
-0.424998
-0.789975
-0.412701
-0.732661
-0.400721
-0.678082
-0.388916
-0.626393
-0.377194
-0.577682
-0.365549
-0.531977
-0.35394
-0.489317
-0.342234
-0.449763
-0.330324
-0.41328
-0.318314
-0.379707
-0.306333
-0.348918
-0.294307
-0.320888
-0.282207
-0.295551
-0.270326
-0.272729
-0.259032
-0.252424
-0.248298
-0.234902
-0.238212
-0.220591
-0.229182
-0.209291
-0.222079
-0.216751
-0.199673
-18.8169
-6.50346
-26.7769
15.0323
-30.3673
8.20858
-31.5035
3.86314
-30.9444
0.480084
-29.5738
-1.73841
-27.9556
-3.14327
-26.3046
-4.08121
-24.7101
-4.70111
-23.2078
-5.097
-21.8095
-5.33149
-20.5166
-5.44783
-19.3251
-5.4773
-18.2287
-5.44316
-17.22
-5.3628
-16.2914
-5.24915
-15.4356
-5.11226
-14.6454
-4.9598
-13.9143
-4.79754
-13.2363
-4.62986
-12.606
-4.46003
-12.0184
-4.29049
-11.4691
-4.12297
-10.9544
-3.95867
-10.4709
-3.79848
-10.0157
-3.643
-9.58614
-3.49263
-9.18007
-3.34764
-8.79548
-3.20815
-8.43064
-3.07424
-8.08397
-2.9459
-7.75406
-2.82307
-7.43967
-2.70564
-7.13966
-2.59346
-6.85303
-2.48635
-6.57889
-2.38412
-6.31643
-2.28659
-6.06492
-2.19357
-5.8237
-2.10487
-5.59217
-2.02029
-5.36979
-1.93965
-5.15606
-1.86277
-4.95052
-1.78948
-4.75276
-1.7196
-4.5624
-1.65297
-4.37907
-1.58944
-4.20245
-1.52885
-4.03222
-1.47106
-3.86811
-1.41593
-3.70984
-1.36333
-3.55717
-1.31313
-3.40984
-1.2652
-3.26764
-1.21944
-3.13035
-1.17573
-2.99775
-1.13396
-2.86966
-1.09405
-2.74587
-1.05588
-2.62621
-1.01937
-2.51051
-0.984419
-2.39859
-0.950936
-2.29032
-0.918834
-2.18556
-0.888029
-2.08417
-0.858453
-1.98604
-0.83005
-1.89103
-0.802784
-1.799
-0.776623
-1.70982
-0.751533
-1.62334
-0.727468
-1.53942
-0.704376
-1.45797
-0.682198
-1.37888
-0.660871
-1.30212
-0.640339
-1.22765
-0.620564
-1.15545
-0.601542
-1.08549
-0.583289
-1.01774
-0.565793
-0.95217
-0.54899
-0.88883
-0.532777
-0.827808
-0.517043
-0.76923
-0.501718
-0.713181
-0.48682
-0.659697
-0.47235
-0.608794
-0.458213
-0.560544
-0.444221
-0.515051
-0.430249
-0.472338
-0.416379
-0.432321
-0.402677
-0.394886
-0.389046
-0.360014
-0.375292
-0.327659
-0.361544
-0.29765
-0.348059
-0.269767
-0.334811
-0.243845
-0.32173
-0.219824
-0.309002
-0.197638
-0.296982
-0.177283
-0.285566
-0.158707
-0.274887
-0.142417
-0.264726
-0.129332
-0.255436
-0.247045
-0.119921
-35.6383
-0.787162
-43.551
22.945
-43.2179
7.87548
-40.9101
1.55534
-37.7168
-2.71323
-34.3596
-5.09562
-31.18
-6.32295
-28.2817
-6.97955
-25.6976
-7.28526
-23.4267
-7.36802
-21.4459
-7.31235
-19.7232
-7.17064
-18.2244
-6.97618
-16.9167
-6.75099
-15.7699
-6.50967
-14.7589
-6.26038
-13.8619
-6.00935
-13.0612
-5.76075
-12.3416
-5.51729
-11.6909
-5.28077
-11.0988
-5.05233
-10.5568
-4.83273
-10.0577
-4.62233
-9.59574
-4.42096
-9.16602
-4.22851
-8.76459
-4.04475
-8.38814
-3.86943
-8.03393
-3.70222
-7.69964
-3.54283
-7.38334
-3.39096
-7.08335
-3.24634
-6.79819
-3.1087
-6.52658
-2.97776
-6.26736
-2.85321
-6.01958
-2.7347
-5.78236
-2.62193
-5.55497
-2.51461
-5.33674
-2.41247
-5.12708
-2.31522
-4.92548
-2.22263
-4.73146
-2.13444
-4.54462
-2.05043
-4.36456
-1.97038
-4.19096
-1.8941
-4.02351
-1.82137
-3.86191
-1.75203
-3.70591
-1.6859
-3.55526
-1.62281
-3.40975
-1.5626
-3.26915
-1.50513
-3.13329
-1.45027
-3.00195
-1.39787
-2.87498
-1.34781
-2.7522
-1.29998
-2.63345
-1.25426
-2.51856
-1.21056
-2.40739
-1.16876
-2.29978
-1.12877
-2.19559
-1.09049
-2.09468
-1.05381
-1.99693
-1.01865
-1.90224
-0.984894
-1.81051
-0.952462
-1.72168
-0.921287
-1.63565
-0.891336
-1.55232
-0.862601
-1.47159
-0.835057
-1.39334
-0.808663
-1.31745
-0.783361
-1.24383
-0.759079
-1.17242
-0.735727
-1.1032
-0.713205
-1.03618
-0.691432
-0.971408
-0.670384
-0.9089
-0.650111
-0.848621
-0.630646
-0.790533
-0.611934
-0.734626
-0.593844
-0.680952
-0.576208
-0.629627
-0.558894
-0.58073
-0.541959
-0.534252
-0.525494
-0.490097
-0.509494
-0.448219
-0.493725
-0.408665
-0.477976
-0.371444
-0.462369
-0.336465
-0.447067
-0.303501
-0.432118
-0.272399
-0.417262
-0.243081
-0.40256
-0.215456
-0.388278
-0.189387
-0.374435
-0.164698
-0.36101
-0.141603
-0.347791
-0.120453
-0.334996
-0.100816
-0.323346
-0.0820188
-0.313242
-0.0645011
-0.303373
-0.0491112
-0.29373
-0.283892
-0.0367597
-145.923
7.87422
-107.213
-15.765
-83.7119
-15.6258
-65.1536
-17.003
-51.3625
-16.5044
-41.3914
-15.0667
-34.1783
-13.536
-28.823
-12.3349
-24.7604
-11.3479
-21.628
-10.5005
-19.1734
-9.76699
-17.2185
-9.12569
-15.6364
-8.5583
-14.3366
-8.05098
-13.25
-7.59637
-12.3283
-7.1823
-11.5355
-6.80226
-10.845
-6.45143
-10.2366
-6.12595
-9.69486
-5.82274
-9.20803
-5.53941
-8.7668
-5.27423
-8.36332
-5.0261
-7.99161
-4.79299
-7.64692
-4.57354
-7.32541
-4.36662
-7.02399
-4.17123
-6.74013
-3.98649
-6.4718
-3.81159
-6.21737
-3.64585
-5.97548
-3.48872
-5.74496
-3.33973
-5.52473
-3.19854
-5.31384
-3.06466
-5.11152
-2.93762
-4.91711
-2.81699
-4.73001
-2.70239
-4.54973
-2.59346
-4.37584
-2.48986
-4.20795
-2.3913
-4.04574
-2.29748
-3.88891
-2.20813
-3.73721
-2.12301
-3.59039
-2.04188
-3.44825
-1.96453
-3.3106
-1.89075
-3.17727
-1.82035
-3.04809
-1.75316
-2.92293
-1.689
-2.80165
-1.62772
-2.68411
-1.56917
-2.57021
-1.51321
-2.45981
-1.45972
-2.35281
-1.40856
-2.2491
-1.35963
-2.14858
-1.31282
-2.05113
-1.26803
-1.95666
-1.22516
-1.86506
-1.18411
-1.77622
-1.14477
-1.69005
-1.10704
-1.60648
-1.07081
-1.52544
-1.03597
-1.4469
-1.00241
-1.37086
-0.970102
-1.29726
-0.93907
-1.22603
-0.909315
-1.15707
-0.8808
-1.09033
-0.853469
-1.0257
-0.827249
-0.963129
-0.802041
-0.902574
-0.777715
-0.844058
-0.754132
-0.78766
-0.731211
-0.733424
-0.709044
-0.681319
-0.687732
-0.631275
-0.667265
-0.58322
-0.647519
-0.537116
-0.62829
-0.493024
-0.609354
-0.45102
-0.590753
-0.411121
-0.572638
-0.373174
-0.555177
-0.337015
-0.538152
-0.302552
-0.521284
-0.269745
-0.504654
-0.238607
-0.488366
-0.208947
-0.472676
-0.180623
-0.457284
-0.153792
-0.441956
-0.12853
-0.427044
-0.104253
-0.41326
-0.080477
-0.400519
-0.0574012
-0.387978
-0.0351776
-0.375757
-0.0134372
-0.364243
0.00798845
-0.353349
0.0287485
-0.34218
0.0482886
-0.330924
-0.319369
0.0669614
-54.0993
-16.2749
-49.8559
-20.0084
-42.7517
-22.73
-35.147
-24.6076
-28.5274
-23.124
-23.4601
-20.1341
-19.9275
-17.0687
-17.3648
-14.8977
-15.3961
-13.3167
-13.8421
-12.0546
-12.5911
-11.0181
-11.5665
-10.1504
-10.715
-9.4099
-10.0016
-8.76451
-9.39133
-8.20684
-8.86176
-7.71206
-8.39652
-7.26771
-7.983
-6.86518
-7.61155
-6.49764
-7.27481
-6.15974
-6.96726
-5.84724
-6.68488
-5.55693
-6.42304
-5.28827
-6.17844
-5.03793
-5.94857
-4.80379
-5.73133
-4.58426
-5.52501
-4.37798
-5.3282
-4.18375
-5.13978
-4.00049
-4.95889
-3.82725
-4.78493
-3.66322
-4.61741
-3.50782
-4.45577
-3.36078
-4.29944
-3.22163
-4.14801
-3.08972
-4.00113
-2.96458
-3.85851
-2.84575
-3.71991
-2.73285
-3.5851
-2.62549
-3.45393
-2.52335
-3.32623
-2.4261
-3.20187
-2.33345
-3.08075
-2.24514
-2.96277
-2.16093
-2.84784
-2.08057
-2.73589
-2.00387
-2.62686
-1.93062
-2.52067
-1.86063
-2.41728
-1.79374
-2.31663
-1.72979
-2.21867
-1.66862
-2.12336
-1.61009
-2.03065
-1.55407
-1.94048
-1.50045
-1.85283
-1.4491
-1.76763
-1.39992
-1.68485
-1.35281
-1.60443
-1.30767
-1.52633
-1.26442
-1.45047
-1.22294
-1.3768
-1.18315
-1.30526
-1.14492
-1.2358
-1.10811
-1.16844
-1.0726
-1.10322
-1.03832
-1.04012
-1.00531
-0.97911
-0.973644
-0.920131
-0.943276
-0.863134
-0.914155
-0.808059
-0.886218
-0.754834
-0.859379
-0.703387
-0.833511
-0.653684
-0.808435
-0.605791
-0.783976
-0.559778
-0.76022
-0.515635
-0.737351
-0.473299
-0.715413
-0.432679
-0.694309
-0.393653
-0.673873
-0.356149
-0.653833
-0.320154
-0.634178
-0.285739
-0.614974
-0.252773
-0.59659
-0.221153
-0.578789
-0.190827
-0.561245
-0.161971
-0.543813
-0.134431
-0.526935
-0.107451
-0.511484
-0.0808837
-0.496579
-0.054686
-0.481934
-0.0287376
-0.467717
-0.00277414
-0.454201
0.023146
-0.441054
0.0486946
-0.42775
0.0734709
-0.414451
0.0969198
-0.401266
0.118542
-0.388243
0.138663
-0.37535
0.157455
-0.362571
-0.349719
0.175439
48.6902
-2.96563
34.2657
-5.58388
23.3502
-11.8145
13.7566
-15.0141
6.65045
-16.0179
1.92581
-15.4096
-0.936562
-14.2064
-2.6168
-13.2175
-3.62431
-12.3093
-4.23592
-11.4431
-4.60211
-10.6521
-4.81014
-9.94254
-4.91364
-9.3066
-4.95857
-8.71979
-4.95824
-8.2074
-4.92544
-7.7451
-4.87031
-7.32311
-4.79978
-6.936
-4.71853
-6.5792
-4.62982
-6.24878
-4.53618
-5.94123
-4.44108
-5.6524
-4.34439
-5.38536
-4.24634
-5.13639
-4.14738
-4.9032
-4.04779
-4.68432
-3.94778
-4.47849
-3.8475
-4.28457
-3.74704
-4.10151
-3.64655
-3.92833
-3.54628
-3.76412
-3.44665
-3.6081
-3.34783
-3.46029
-3.24973
-3.32046
-3.15238
-3.18783
-3.05585
-3.06191
-2.9602
-2.94224
-2.86548
-2.82845
-2.77176
-2.72014
-2.6791
-2.61699
-2.58755
-2.51867
-2.49717
-2.4249
-2.40803
-2.33542
-2.32017
-2.24997
-2.23365
-2.16833
-2.14852
-2.0903
-2.06483
-2.01567
-1.98263
-1.94427
-1.90196
-1.87592
-1.82284
-1.81048
-1.74532
-1.74779
-1.66942
-1.68773
-1.59516
-1.63015
-1.52258
-1.57495
-1.45168
-1.52201
-1.38249
-1.47123
-1.315
-1.42251
-1.24924
-1.37577
-1.1852
-1.3309
-1.12287
-1.28784
-1.06224
-1.24648
-1.00327
-1.20673
-0.945921
-1.16845
-0.890187
-1.13149
-0.836136
-1.09569
-0.783822
-1.06112
-0.733205
-1.02795
-0.684259
-0.996111
-0.636963
-0.965554
-0.591295
-0.936219
-0.547214
-0.908037
-0.504645
-0.880916
-0.463486
-0.854709
-0.4237
-0.829176
-0.385325
-0.804331
-0.348337
-0.78042
-0.312689
-0.75751
-0.278364
-0.735477
-0.245322
-0.714183
-0.213524
-0.693356
-0.183092
-0.672827
-0.153852
-0.652961
-0.125146
-0.634612
-0.0969774
-0.616895
-0.0692154
-0.599652
-0.0416568
-0.582833
-0.0140088
-0.566599
0.0137526
-0.551205
0.0413773
-0.53589
0.0685775
-0.520629
0.0950733
-0.505501
0.120375
-0.490561
0.144272
-0.475816
0.167039
-0.461234
0.188805
-0.446801
0.209588
-0.432518
0.229367
-0.418391
0.248157
-0.404422
0.265992
-0.39061
-0.376823
0.283195
37.4288
-1.6542
36.6285
-4.78364
32.2293
-7.41531
26.1546
-8.93951
19.9304
-9.79378
14.7122
-10.1914
10.7862
-10.2805
7.75217
-10.1836
5.39588
-9.95316
3.58732
-9.63475
2.20479
-9.26976
1.14646
-8.88444
0.333745
-8.49417
-0.287434
-8.09894
-0.768314
-7.72687
-1.14448
-7.36928
-1.44053
-7.02743
-1.67398
-6.70294
-1.85761
-6.39598
-2.00102
-6.10581
-2.11142
-5.83129
-2.19758
-5.56672
-2.26254
-5.3209
-2.30884
-5.09062
-2.3393
-4.8733
-2.35633
-4.66787
-2.36197
-4.47348
-2.35785
-4.28933
-2.34532
-4.11471
-2.32546
-3.94889
-2.29921
-3.7911
-2.26782
-3.64026
-2.23226
-3.49667
-2.1928
-3.36078
-2.14994
-3.23159
-2.10413
-3.10865
-2.05579
-2.99157
-2.00528
-2.87998
-1.95295
-2.77355
-1.89909
-2.67197
-1.84399
-2.57495
-1.7879
-2.48223
-1.73104
-2.39357
-1.67362
-2.30874
-1.61583
-2.22753
-1.55785
-2.14976
-1.49984
-2.07523
-1.44194
-2.00379
-1.3843
-1.93527
-1.32703
-1.86954
-1.27025
-1.80645
-1.21406
-1.74588
-1.15855
-1.68772
-1.10382
-1.63185
-1.04992
-1.57817
-0.996948
-1.52659
-0.944951
-1.47701
-0.893993
-1.42935
-0.844127
-1.38353
-0.795399
-1.33947
-0.747846
-1.29709
-0.701478
-1.25631
-0.656277
-1.21703
-0.6122
-1.17912
-0.569279
-1.14235
-0.527601
-1.10675
-0.4871
-1.07261
-0.447761
-1.03984
-0.409591
-1.00836
-0.372606
-0.978096
-0.336818
-0.948992
-0.30223
-0.920964
-0.268818
-0.893893
-0.236599
-0.867505
-0.205556
-0.841841
-0.17534
-0.817482
-0.14576
-0.794339
-0.116852
-0.772068
-0.0885822
-0.75061
-0.0607484
-0.729874
-0.0330555
-0.709799
-0.00520925
-0.690465
0.0226951
-0.672127
0.0503944
-0.654056
0.0776558
-0.636304
0.1044
-0.618889
0.13043
-0.601819
0.155255
-0.585092
0.179046
-0.568653
0.201991
-0.552465
0.22417
-0.536501
0.245593
-0.520743
0.26625
-0.505178
0.286157
-0.489796
0.305336
-0.47459
0.3238
-0.459552
0.341556
-0.444682
0.358609
-0.429978
0.374964
-0.41544
-0.400974
0.390847
32.2089
-1.14073
30.3695
-2.94424
27.377
-4.42286
24.0205
-5.58296
20.7065
-6.4799
17.6329
-7.11777
14.8758
-7.5235
12.4419
-7.74985
10.329
-7.84034
8.52001
-7.82588
6.9827
-7.7326
5.68031
-7.58225
4.57821
-7.39228
3.65534
-7.17631
2.87396
-6.94577
2.21201
-6.70766
1.65142
-6.46721
1.17632
-6.22826
0.773296
-5.99344
0.431474
-5.76452
0.142377
-5.5428
-0.0993611
-5.32564
-0.301986
-5.11897
-0.472252
-4.92107
-0.615286
-4.731
-0.735127
-4.54879
-0.835045
-4.37435
-0.917732
-4.20747
-0.985422
-4.04788
-1.03996
-3.89524
-1.08284
-3.74915
-1.11577
-3.6083
-1.14024
-3.4732
-1.15659
-3.34548
-1.16568
-3.22359
-1.16832
-3.10714
-1.16527
-2.9958
-1.15718
-2.88929
-1.14467
-2.78735
-1.12826
-2.68972
-1.10842
-2.59618
-1.08558
-2.50653
-1.06012
-2.42055
-1.03237
-2.33807
-1.00266
-2.25891
-0.971253
-2.1829
-0.938422
-2.10988
-0.9044
-2.03971
-0.869405
-1.97225
-0.83364
-1.90738
-0.797289
-1.84498
-0.760519
-1.78493
-0.723486
-1.72714
-0.68633
-1.6715
-0.649179
-1.61794
-0.612152
-1.56636
-0.575354
-1.51669
-0.538886
-1.46885
-0.502837
-1.42276
-0.467291
-1.37836
-0.432325
-1.33557
-0.39801
-1.29432
-0.364405
-1.25453
-0.33154
-1.21608
-0.299483
-1.17872
-0.268255
-1.14252
-0.237547
-1.10811
-0.207402
-1.07503
-0.177868
-1.04321
-0.148984
-1.01259
-0.12077
-0.983127
-0.0932017
-0.954789
-0.0661683
-0.927545
-0.0393947
-0.901294
-0.0126076
-0.875988
0.0142123
-0.851806
0.0408997
-0.828526
0.0672705
-0.805929
0.0931921
-0.784028
0.118618
-0.762805
0.143542
-0.742224
0.167872
-0.722255
0.191194
-0.702863
0.213719
-0.683974
0.23558
-0.665539
0.256851
-0.647513
0.277555
-0.629858
0.297679
-0.612537
0.317233
-0.595516
0.336237
-0.578767
0.35471
-0.562262
0.372668
-0.545981
0.390122
-0.529904
0.407079
-0.514018
0.423542
-0.498313
0.439513
-0.48278
0.454991
-0.467414
0.469973
-0.452212
0.484453
-0.437174
-0.422224
0.498598
26.5548
-0.724035
25.5624
-1.95177
24.1708
-3.03132
22.4777
-3.88987
20.5857
-4.58795
18.6146
-5.14678
16.6651
-5.574
14.8
-5.8849
13.0565
-6.09693
11.4561
-6.2255
10.0078
-6.28448
8.71179
-6.28639
7.56163
-6.2423
6.54701
-6.16191
5.6547
-6.0537
4.8715
-5.92472
4.18475
-5.78077
3.5827
-5.62656
3.05471
-5.46583
2.59132
-5.30156
2.18406
-5.13602
1.82876
-4.97086
1.51691
-4.8077
1.2426
-4.6474
1.00152
-4.49061
0.789795
-4.33783
0.604042
-4.18943
0.441293
-4.04562
0.298987
-3.90655
0.174962
-3.77228
0.0675081
-3.64285
-0.0244056
-3.51763
-0.102175
-3.39674
-0.167907
-3.28109
-0.223167
-3.16971
-0.269205
-3.06253
-0.307048
-2.95944
-0.337575
-2.8603
-0.361552
-2.76496
-0.379658
-2.67326
-0.392499
-2.58506
-0.400618
-2.50019
-0.404507
-2.41852
-0.404609
-2.3399
-0.401329
-2.2642
-0.395033
-2.19129
-0.386057
-2.12104
-0.374709
-2.05334
-0.361275
-1.98807
-0.346015
-1.92512
-0.329171
-1.86441
-0.310968
-1.80584
-0.291609
-1.74933
-0.271286
-1.69479
-0.250171
-1.64216
-0.228426
-1.59136
-0.206195
-1.54234
-0.183613
-1.49501
-0.160797
-1.44933
-0.137852
-1.40525
-0.114865
-1.3627
-0.0918995
-1.32164
-0.0689782
-1.28202
-0.0460419
-1.24383
-0.0228877
-1.20695
0.000620132
-1.17129
0.0242928
-1.13713
0.0479499
-1.1041
0.0714542
-1.0722
0.0947264
-1.04142
0.117709
-1.01173
0.140352
-0.983118
0.162601
-0.955542
0.184459
-0.928957
0.205947
-0.90332
0.226862
-0.878589
0.24715
-0.85471
0.266922
-0.831627
0.286231
-0.809294
0.305111
-0.787666
0.323579
-0.766699
0.341639
-0.746345
0.359276
-0.726555
0.376504
-0.70728
0.393341
-0.688474
0.409804
-0.670096
0.425909
-0.652103
0.44167
-0.634457
0.4571
-0.617123
0.472209
-0.60007
0.487005
-0.583271
0.501496
-0.5667
0.515684
-0.550337
0.52957
-0.534166
0.543152
-0.518173
0.556425
-0.502347
0.569382
-0.486682
0.582015
-0.471172
0.594312
-0.455816
-0.440551
0.606403
23.1602
-0.523157
22.5999
-1.39149
21.7199
-2.15132
20.6085
-2.77856
19.3458
-3.32532
18.0007
-3.80173
16.6281
-4.20142
15.2674
-4.52427
13.9464
-4.77599
12.6845
-4.96372
11.4947
-5.0948
10.3846
-5.17652
9.35805
-5.21588
8.41541
-5.21946
7.55479
-5.19328
6.77258
-5.14276
6.0642
-5.07265
5.42442
-4.98707
4.84779
-4.88953
4.32885
-4.78298
3.86233
-4.6699
3.44336
-4.55233
3.06715
-4.43198
2.72944
-4.31022
2.42639
-4.18813
2.15453
-4.0666
1.91075
-3.94632
1.69222
-3.82784
1.49643
-3.71156
1.3211
-3.59781
1.16413
-3.48682
1.02421
-3.3787
0.900004
-3.2736
0.789405
-3.17163
0.691243
-3.07276
0.604404
-2.97699
0.527867
-2.88428
0.460695
-2.79459
0.402039
-2.70786
0.351131
-2.624
0.30727
-2.54293
0.26982
-2.46457
0.238201
-2.38883
0.211879
-2.31561
0.190368
-2.24482
0.173218
-2.17637
0.16002
-2.11017
0.150393
-2.04614
0.14399
-1.9842
0.140488
-1.92426
0.139591
-1.86626
0.141022
-1.81012
0.144527
-1.75578
0.149869
-1.70319
0.156829
-1.65227
0.165204
-1.60299
0.17481
-1.55529
0.185475
-1.50913
0.197045
-1.46445
0.20938
-1.42122
0.222354
-1.3794
0.235849
-1.33896
0.249755
-1.29985
0.263959
-1.26204
0.278418
-1.2255
0.29314
-1.19018
0.307836
-1.15606
0.32253
-1.1231
0.337216
-1.09126
0.351867
-1.06051
0.366453
-1.03083
0.380939
-1.00218
0.395289
-0.974528
0.409476
-0.947837
0.42348
-0.922072
0.437278
-0.897189
0.450858
-0.873146
0.464222
-0.849897
0.477373
-0.8274
0.490314
-0.805609
0.503048
-0.78448
0.51558
-0.763967
0.527916
-0.744023
0.540066
-0.724601
0.55204
-0.705658
0.563847
-0.68715
0.575498
-0.669036
0.587001
-0.651277
0.598363
-0.633835
0.609588
-0.616679
0.620681
-0.599778
0.631643
-0.583106
0.642472
-0.566641
0.653164
-0.550363
0.663715
-0.534256
0.674117
-0.518309
0.684358
-0.502512
0.694428
-0.486857
0.704311
-0.471343
-0.455916
0.714115
20.4284
-0.380578
20.056
-1.01913
19.4942
-1.58954
18.7891
-2.07351
17.972
-2.50823
17.0709
-2.90065
16.114
-3.24465
15.1274
-3.53778
14.1333
-3.78189
13.1496
-3.98016
12.1908
-4.13616
11.2678
-4.25368
10.3884
-4.33663
9.5577
-4.3889
8.77849
-4.41427
8.05189
-4.41638
7.3776
-4.39861
6.75431
-4.36406
6.18001
-4.31553
5.65221
-4.25551
5.16817
-4.18622
4.72503
-4.10957
4.31986
-4.02723
3.9498
-3.94062
3.6121
-3.85094
3.30417
-3.75922
3.02357
-3.66631
2.76803
-3.57293
2.53546
-3.47967
2.32393
-3.38702
2.13169
-3.29535
1.95714
-3.20498
1.7988
-3.11616
1.65529
-3.02908
1.52539
-2.94387
1.40796
-2.86064
1.30198
-2.77945
1.2065
-2.70033
1.12065
-2.6233
1.04364
-2.54835
0.974744
-2.47547
0.913282
-2.40462
0.85864
-2.33577
0.810249
-2.26888
0.767582
-2.20389
0.730155
-2.14076
0.697517
-2.07944
0.669254
-2.01986
0.644979
-1.96199
0.624335
-1.90577
0.60699
-1.85115
0.592634
-1.79808
0.580981
-1.74653
0.571763
-1.69645
0.564735
-1.64781
0.559667
-1.60057
0.556349
-1.5547
0.554585
-1.51017
0.554198
-1.46696
0.555025
-1.42502
0.556915
-1.38435
0.559732
-1.3449
0.563349
-1.30667
0.567652
-1.26963
0.57254
-1.23374
0.577929
-1.199
0.583731
-1.16536
0.589881
-1.13282
0.596321
-1.10134
0.603001
-1.0709
0.609871
-1.04148
0.616889
-1.01304
0.624017
-0.98556
0.631222
-0.959009
0.638475
-0.933353
0.645756
-0.908557
0.653048
-0.884583
0.660343
-0.861393
0.667633
-0.838946
0.674917
-0.8172
0.682191
-0.796114
0.689457
-0.775643
0.696717
-0.755741