/*--------------------------------*- C++ -*----------------------------------*\
| =========                 |                                                 |
| \\      /  F ield         | OpenFOAM: The Open Source CFD Toolbox           |
|  \\    /   O peration     | Version:  2412                                  |
|   \\  /    A nd           | Website:  www.openfoam.com                      |
|    \\/     M anipulation  |                                                 |
\*---------------------------------------------------------------------------*/
FoamFile
{
    version     2.0;
    format      ascii;
    arch        "LSB;label=32;scalar=64";
    class       volVectorField;
    location    "10";
    object      U;
}
// * * * * * * * * * * * * * * * * * * * * * * * * * * * * * * * * * * * * * //

dimensions      [0 1 -1 0 0 0 0];

internalField   nonuniform List<vector> 
20000
(
(-37279.5 -22054.5 0)
(1319.15 -3942.78 0)
(-6520.22 -2578.75 0)
(-4484.34 -1694.45 0)
(-3780.88 -1140.36 0)
(-3247.38 -790.266 0)
(-2875.08 -561.132 0)
(-2602.79 -408.835 0)
(-2396.75 -306.538 0)
(-2235.34 -237.213 0)
(-2104.51 -189.808 0)
(-1994.9 -157.058 0)
(-1900.22 -134.152 0)
(-1816.22 -117.886 0)
(-1739.99 -106.109 0)
(-1669.58 -97.3763 0)
(-1603.64 -90.7088 0)
(-1541.26 -85.444 0)
(-1481.82 -81.1324 0)
(-1424.89 -77.4694 0)
(-1370.2 -74.2494 0)
(-1317.54 -71.3345 0)
(-1266.79 -68.6328 0)
(-1217.86 -66.0845 0)
(-1170.66 -63.6512 0)
(-1125.15 -61.3088 0)
(-1081.28 -59.0433 0)
(-1039.03 -56.8466 0)
(-998.338 -54.7147 0)
(-959.19 -52.6457 0)
(-921.547 -50.6385 0)
(-885.377 -48.6926 0)
(-850.643 -46.8069 0)
(-817.303 -44.9801 0)
(-785.313 -43.2103 0)
(-754.623 -41.4954 0)
(-725.176 -39.8333 0)
(-696.911 -38.2221 0)
(-669.764 -36.6609 0)
(-643.67 -35.1496 0)
(-618.567 -33.6894 0)
(-594.397 -32.2828 0)
(-571.108 -30.9335 0)
(-548.66 -29.6459 0)
(-527.022 -28.4245 0)
(-506.172 -27.2734 0)
(-486.098 -26.1954 0)
(-466.791 -25.1919 0)
(-448.246 -24.2618 0)
(-430.455 -23.4022 0)
(-413.41 -22.6084 0)
(-397.096 -21.8736 0)
(-381.492 -21.1898 0)
(-366.571 -20.5483 0)
(-352.299 -19.9398 0)
(-338.637 -19.3554 0)
(-325.539 -18.7878 0)
(-312.956 -18.2315 0)
(-300.84 -17.6838 0)
(-289.152 -17.1446 0)
(-277.868 -16.6151 0)
(-266.979 -16.0965 0)
(-256.493 -15.5881 0)
(-246.422 -15.0861 0)
(-236.774 -14.5838 0)
(-227.547 -14.0725 0)
(-218.723 -13.5423 0)
(-210.271 -12.9844 0)
(-202.146 -12.3919 0)
(-194.302 -11.7602 0)
(-186.687 -11.088 0)
(-179.246 -10.3772 0)
(-171.922 -9.63404 0)
(-164.662 -8.86953 0)
(-157.422 -8.09996 0)
(-150.178 -7.34678 0)
(-142.931 -6.63609 0)
(-135.713 -5.9973 0)
(-128.596 -5.46055 0)
(-121.687 -5.05316 0)
(-115.12 -4.79529 0)
(-109.031 -4.69593 0)
(-103.53 -4.75062 0)
(-98.6622 -4.9424 0)
(-94.3931 -5.24625 0)
(-90.6155 -5.63547 0)
(-87.1844 -6.08669 0)
(-83.9584 -6.58133 0)
(-80.8223 -7.10401 0)
(-77.6892 -7.64119 0)
(-74.4983 -8.18108 0)
(-71.2175 -8.71357 0)
(-67.852 -9.23017 0)
(-64.4412 -9.72135 0)
(-61.0336 -10.1735 0)
(-57.6493 -10.5791 0)
(-54.1788 -10.9546 0)
(-50.2326 -11.3646 0)
(-45.4538 -11.9623 0)
(-41.0776 -12.8783 0)
(1222.24 5106.42 0)
(242.311 -4260.21 0)
(-1616.51 -3508.18 0)
(-1755.15 -2331.91 0)
(-1976.55 -1626.65 0)
(-2061.07 -1188.2 0)
(-2078.06 -899.064 0)
(-2059.53 -702.17 0)
(-2021.01 -565.252 0)
(-1971.34 -468.65 0)
(-1915.71 -399.688 0)
(-1857.09 -349.888 0)
(-1797.25 -313.443 0)
(-1737.21 -286.318 0)
(-1677.58 -265.691 0)
(-1618.75 -249.578 0)
(-1560.96 -236.588 0)
(-1504.38 -225.75 0)
(-1449.12 -216.386 0)
(-1395.27 -208.032 0)
(-1342.88 -200.369 0)
(-1292.01 -193.186 0)
(-1242.67 -186.342 0)
(-1194.89 -179.75 0)
(-1148.68 -173.356 0)
(-1104.04 -167.13 0)
(-1060.96 -161.057 0)
(-1019.43 -155.134 0)
(-979.425 -149.359 0)
(-940.921 -143.737 0)
(-903.892 -138.271 0)
(-868.305 -132.964 0)
(-834.125 -127.818 0)
(-801.313 -122.831 0)
(-769.823 -118.002 0)
(-739.607 -113.327 0)
(-710.612 -108.801 0)
(-682.782 -104.421 0)
(-656.06 -100.184 0)
(-630.386 -96.087 0)
(-605.705 -92.1329 0)
(-581.965 -88.3252 0)
(-559.12 -84.6702 0)
(-537.129 -81.1758 0)
(-515.961 -77.8509 0)
(-495.589 -74.7032 0)
(-475.991 -71.7387 0)
(-457.15 -68.96 0)
(-439.05 -66.3657 0)
(-421.673 -63.9502 0)
(-405.003 -61.7035 0)
(-389.018 -59.6119 0)
(-373.695 -57.6585 0)
(-359.004 -55.8242 0)
(-344.916 -54.0889 0)
(-331.396 -52.433 0)
(-318.411 -50.8391 0)
(-305.924 -49.2933 0)
(-293.902 -47.7866 0)
(-282.315 -46.3152 0)
(-271.14 -44.8785 0)
(-260.364 -43.4765 0)
(-249.978 -42.1069 0)
(-239.978 -40.7621 0)
(-230.356 -39.4294 0)
(-221.099 -38.0911 0)
(-212.184 -36.7271 0)
(-203.58 -35.3181 0)
(-195.25 -33.8476 0)
(-187.153 -32.3035 0)
(-179.246 -30.6795 0)
(-171.485 -28.9757 0)
(-163.828 -27.2011 0)
(-156.239 -25.375 0)
(-148.693 -23.5278 0)
(-141.185 -21.7009 0)
(-133.734 -19.9458 0)
(-126.385 -18.3211 0)
(-119.21 -16.8875 0)
(-112.307 -15.701 0)
(-105.786 -14.8033 0)
(-99.7504 -14.2144 0)
(-94.2774 -13.927 0)
(-89.3944 -13.9075 0)
(-85.0713 -14.1034 0)
(-81.2261 -14.4548 0)
(-77.7467 -14.9049 0)
(-74.5149 -15.406 0)
(-71.4242 -15.9202 0)
(-68.3867 -16.4195 0)
(-65.3369 -16.8866 0)
(-62.2399 -17.3159 0)
(-59.1004 -17.7121 0)
(-55.9604 -18.0803 0)
(-52.9145 -18.4243 0)
(-50.1291 -18.7585 0)
(-47.7632 -19.1144 0)
(-45.8582 -19.5864 0)
(-44.376 -20.4127 0)
(-43.5675 -21.8587 0)
(-3499.21 -3185.91 0)
(1050.69 -1755.83 0)
(-939.334 -1294.14 0)
(-1214.46 -1116.11 0)
(-1456.78 -956.893 0)
(-1618.23 -826.37 0)
(-1714.55 -722.458 0)
(-1766.56 -641.014 0)
(-1786.99 -577.835 0)
(-1784.74 -529.053 0)
(-1766.23 -491.302 0)
(-1736.13 -461.802 0)
(-1697.89 -438.34 0)
(-1654.04 -419.199 0)
(-1606.46 -403.079 0)
(-1556.58 -389.022 0)
(-1505.43 -376.336 0)
(-1453.79 -364.534 0)
(-1402.27 -353.285 0)
(-1351.27 -342.373 0)
(-1301.14 -331.664 0)
(-1252.09 -321.085 0)
(-1204.29 -310.603 0)
(-1157.86 -300.211 0)
(-1112.87 -289.92 0)
(-1069.37 -279.752 0)
(-1027.37 -269.732 0)
(-986.892 -259.886 0)
(-947.911 -250.241 0)
(-910.412 -240.82 0)
(-874.366 -231.641 0)
(-839.74 -222.72 0)
(-806.493 -214.067 0)
(-774.584 -205.688 0)
(-743.963 -197.586 0)
(-714.582 -189.76 0)
(-686.389 -182.206 0)
(-659.33 -174.922 0)
(-633.353 -167.903 0)
(-608.405 -161.145 0)
(-584.439 -154.648 0)
(-561.41 -148.41 0)
(-539.276 -142.433 0)
(-518.001 -136.72 0)
(-497.551 -131.272 0)
(-477.898 -126.091 0)
(-459.011 -121.178 0)
(-440.866 -116.529 0)
(-423.435 -112.139 0)
(-406.692 -108 0)
(-390.61 -104.097 0)
(-375.162 -100.416 0)
(-360.316 -96.9373 0)
(-346.045 -93.6419 0)
(-332.319 -90.5085 0)
(-319.109 -87.5167 0)
(-306.39 -84.6471 0)
(-294.137 -81.8824 0)
(-282.33 -79.2079 0)
(-270.948 -76.612 0)
(-259.974 -74.0853 0)
(-249.394 -71.6194 0)
(-239.19 -69.2051 0)
(-229.345 -66.8312 0)
(-219.839 -64.4841 0)
(-210.647 -62.1485 0)
(-201.744 -59.8084 0)
(-193.101 -57.4499 0)
(-184.687 -55.0625 0)
(-176.471 -52.641 0)
(-168.425 -50.1867 0)
(-160.519 -47.7086 0)
(-152.733 -45.2246 0)
(-145.05 -42.7621 0)
(-137.469 -40.3588 0)
(-130.001 -38.0607 0)
(-122.676 -35.9195 0)
(-115.543 -33.9886 0)
(-108.664 -32.3171 0)
(-102.111 -30.9436 0)
(-95.9555 -29.8887 0)
(-90.2531 -29.1497 0)
(-85.0342 -28.6986 0)
(-80.2933 -28.4842 0)
(-75.9882 -28.4387 0)
(-72.0475 -28.4866 0)
(-68.3854 -28.5546 0)
(-64.9175 -28.579 0)
(-61.5714 -28.5121 0)
(-58.2908 -28.3263 0)
(-55.0376 -28.0185 0)
(-51.7998 -27.6144 0)
(-48.5879 -27.1612 0)
(-45.4466 -26.7248 0)
(-42.5075 -26.3803 0)
(-39.9813 -26.1787 0)
(-38.1063 -26.1173 0)
(-37.1237 -26.1499 0)
(-37.1404 -26.1941 0)
(-38.1237 -26.0802 0)
(-3458.41 -1529.48 0)
(455.443 -384.296 0)
(-1017.94 -445.042 0)
(-1191.5 -472.953 0)
(-1378.91 -494.94 0)
(-1514.02 -508.142 0)
(-1606.04 -516.97 0)
(-1662.97 -523.139 0)
(-1691.7 -527.433 0)
(-1698.22 -530.081 0)
(-1687.63 -531.047 0)
(-1664.15 -530.249 0)
(-1631.16 -527.65 0)
(-1591.36 -523.273 0)
(-1546.85 -517.203 0)
(-1499.28 -509.57 0)
(-1449.89 -500.537 0)
(-1399.66 -490.287 0)
(-1349.29 -479.008 0)
(-1299.34 -466.886 0)
(-1250.18 -454.1 0)
(-1202.1 -440.819 0)
(-1155.3 -427.193 0)
(-1109.92 -413.359 0)
(-1066.02 -399.438 0)
(-1023.66 -385.534 0)
(-982.852 -371.736 0)
(-943.594 -358.12 0)
(-905.866 -344.745 0)
(-869.636 -331.663 0)
(-834.865 -318.91 0)
(-801.509 -306.517 0)
(-769.519 -294.504 0)
(-738.842 -282.885 0)
(-709.427 -271.667 0)
(-681.218 -260.852 0)
(-654.161 -250.441 0)
(-628.203 -240.43 0)
(-603.293 -230.815 0)
(-579.381 -221.59 0)
(-556.423 -212.75 0)
(-534.377 -204.287 0)
(-513.203 -196.195 0)
(-492.865 -188.468 0)
(-473.331 -181.098 0)
(-454.567 -174.075 0)
(-436.544 -167.389 0)
(-419.229 -161.029 0)
(-402.593 -154.981 0)
(-386.604 -149.231 0)
(-371.232 -143.761 0)
(-356.446 -138.555 0)
(-342.215 -133.594 0)
(-328.511 -128.861 0)
(-315.305 -124.336 0)
(-302.574 -120.004 0)
(-290.294 -115.847 0)
(-278.445 -111.849 0)
(-267.009 -107.995 0)
(-255.969 -104.269 0)
(-245.309 -100.657 0)
(-235.015 -97.1445 0)
(-225.067 -93.7177 0)
(-215.448 -90.3626 0)
(-206.136 -87.0667 0)
(-197.106 -83.819 0)
(-188.337 -80.611 0)
(-179.803 -77.4379 0)
(-171.483 -74.2989 0)
(-163.358 -71.1985 0)
(-155.408 -68.1468 0)
(-147.621 -65.1603 0)
(-139.989 -62.2612 0)
(-132.51 -59.4779 0)
(-125.192 -56.8427 0)
(-118.052 -54.3902 0)
(-111.115 -52.1544 0)
(-104.415 -50.1637 0)
(-97.9892 -48.4375 0)
(-91.8778 -46.9811 0)
(-86.1138 -45.7825 0)
(-80.7191 -44.811 0)
(-75.6981 -44.0185 0)
(-71.0339 -43.3443 0)
(-66.6886 -42.7213 0)
(-62.6097 -42.0829 0)
(-58.7416 -41.3696 0)
(-55.038 -40.5347 0)
(-51.4688 -39.5507 0)
(-48.0214 -38.4135 0)
(-44.7049 -37.1404 0)
(-41.5364 -35.777 0)
(-38.5493 -34.4044 0)
(-35.8207 -33.1355 0)
(-33.4554 -32.0866 0)
(-31.5942 -31.3506 0)
(-30.471 -30.9809 0)
(-30.354 -30.9352 0)
(-31.2677 -30.9941 0)
(-32.9459 -30.7651 0)
(-5051.89 -1409.08 0)
(301.165 373.913 0)
(-1258.08 120.851 0)
(-1359.98 -35.5139 0)
(-1507.56 -163.538 0)
(-1610.78 -266.126 0)
(-1674.87 -356.063 0)
(-1706.67 -432.941 0)
(-1714.15 -495.617 0)
(-1702.98 -544.79 0)
(-1677.71 -581.732 0)
(-1642.11 -607.964 0)
(-1599.21 -625.046 0)
(-1551.39 -634.451 0)
(-1500.51 -637.512 0)
(-1447.97 -635.402 0)
(-1394.83 -629.132 0)
(-1341.86 -619.56 0)
(-1289.62 -607.412 0)
(-1238.53 -593.293 0)
(-1188.84 -577.706 0)
(-1140.74 -561.067 0)
(-1094.33 -543.717 0)
(-1049.67 -525.937 0)
(-1006.76 -507.954 0)
(-965.605 -489.952 0)
(-926.164 -472.08 0)
(-888.391 -454.454 0)
(-852.233 -437.167 0)
(-817.629 -420.286 0)
(-784.514 -403.866 0)
(-752.823 -387.942 0)
(-722.492 -372.539 0)
(-693.453 -357.674 0)
(-665.646 -343.354 0)
(-639.008 -329.58 0)
(-613.48 -316.349 0)
(-589.007 -303.657 0)
(-565.536 -291.493 0)
(-543.017 -279.848 0)
(-521.405 -268.71 0)
(-500.658 -258.064 0)
(-480.735 -247.898 0)
(-461.601 -238.195 0)
(-443.221 -228.938 0)
(-425.562 -220.11 0)
(-408.591 -211.692 0)
(-392.278 -203.664 0)
(-376.591 -196.006 0)
(-361.502 -188.698 0)
(-346.979 -181.719 0)
(-332.994 -175.05 0)
(-319.521 -168.671 0)
(-306.532 -162.564 0)
(-294.004 -156.712 0)
(-281.915 -151.098 0)
(-270.243 -145.707 0)
(-258.969 -140.523 0)
(-248.075 -135.532 0)
(-237.545 -130.718 0)
(-227.361 -126.07 0)
(-217.509 -121.572 0)
(-207.971 -117.212 0)
(-198.732 -112.979 0)
(-189.773 -108.864 0)
(-181.078 -104.86 0)
(-172.63 -100.961 0)
(-164.414 -97.1694 0)
(-156.414 -93.4861 0)
(-148.619 -89.9182 0)
(-141.021 -86.4761 0)
(-133.613 -83.1737 0)
(-126.394 -80.0276 0)
(-119.366 -77.0557 0)
(-112.536 -74.2756 0)
(-105.912 -71.7014 0)
(-99.5078 -69.3428 0)
(-93.338 -67.203 0)
(-87.4173 -65.2771 0)
(-81.7592 -63.5502 0)
(-76.3723 -61.9964 0)
(-71.2589 -60.5779 0)
(-66.4148 -59.2476 0)
(-61.8281 -57.9554 0)
(-57.4795 -56.6545 0)
(-53.3462 -55.3049 0)
(-49.4075 -53.8741 0)
(-45.6535 -52.3422 0)
(-42.0918 -50.7067 0)
(-38.7369 -48.9861 0)
(-35.6069 -47.2085 0)
(-32.7402 -45.4042 0)
(-30.1814 -43.6274 0)
(-27.9486 -41.9625 0)
(-26.0732 -40.4833 0)
(-24.6532 -39.2368 0)
(-23.8473 -38.2658 0)
(-23.8395 -37.5657 0)
(-24.7634 -36.979 0)
(-26.6953 -36.1847 0)
(-6210.06 -1252.6 0)
(101.345 1144.51 0)
(-1662.16 787.988 0)
(-1686.39 488.183 0)
(-1802.89 199.828 0)
(-1857.69 -48.4728 0)
(-1880.6 -249.602 0)
(-1864.86 -407.36 0)
(-1827.31 -528.564 0)
(-1776.54 -619.143 0)
(-1717.59 -684.612 0)
(-1654.09 -729.786 0)
(-1588.59 -758.721 0)
(-1522.81 -774.77 0)
(-1457.91 -780.681 0)
(-1394.67 -778.688 0)
(-1333.55 -770.602 0)
(-1274.85 -757.883 0)
(-1218.7 -741.702 0)
(-1165.14 -722.994 0)
(-1114.15 -702.504 0)
(-1065.65 -680.82 0)
(-1019.56 -658.405 0)
(-975.763 -635.626 0)
(-934.141 -612.767 0)
(-894.578 -590.051 0)
(-856.956 -567.649 0)
(-821.161 -545.69 0)
(-787.085 -524.273 0)
(-754.624 -503.468 0)
(-723.679 -483.324 0)
(-694.157 -463.871 0)
(-665.972 -445.127 0)
(-639.044 -427.099 0)
(-613.297 -409.785 0)
(-588.662 -393.178 0)
(-565.075 -377.266 0)
(-542.477 -362.033 0)
(-520.814 -347.463 0)
(-500.035 -333.537 0)
(-480.093 -320.232 0)
(-460.947 -307.529 0)
(-442.557 -295.403 0)
(-424.887 -283.833 0)
(-407.902 -272.794 0)
(-391.57 -262.261 0)
(-375.86 -252.212 0)
(-360.742 -242.62 0)
(-346.188 -233.462 0)
(-332.171 -224.714 0)
(-318.664 -216.353 0)
(-305.644 -208.359 0)
(-293.085 -200.709 0)
(-280.967 -193.384 0)
(-269.268 -186.365 0)
(-257.969 -179.635 0)
(-247.051 -173.178 0)
(-236.496 -166.976 0)
(-226.29 -161.015 0)
(-216.416 -155.282 0)
(-206.859 -149.762 0)
(-197.604 -144.445 0)
(-188.639 -139.322 0)
(-179.949 -134.383 0)
(-171.521 -129.623 0)
(-163.343 -125.036 0)
(-155.402 -120.621 0)
(-147.688 -116.374 0)
(-140.189 -112.294 0)
(-132.899 -108.383 0)
(-125.811 -104.642 0)
(-118.923 -101.076 0)
(-112.234 -97.6886 0)
(-105.743 -94.4864 0)
(-99.4532 -91.4717 0)
(-93.365 -88.642 0)
(-87.4821 -85.9894 0)
(-81.8087 -83.5011 0)
(-76.3499 -81.1618 0)
(-71.1116 -78.9546 0)
(-66.0967 -76.8599 0)
(-61.3045 -74.8514 0)
(-56.7339 -72.8962 0)
(-52.3845 -70.9619 0)
(-48.2558 -69.0276 0)
(-44.3462 -67.0851 0)
(-40.6583 -65.1255 0)
(-37.1983 -63.1383 0)
(-33.9783 -61.1273 0)
(-31.0204 -59.1227 0)
(-28.3409 -57.1527 0)
(-25.9389 -55.2191 0)
(-23.8198 -53.3316 0)
(-21.9918 -51.5403 0)
(-20.456 -49.8907 0)
(-19.207 -48.3609 0)
(-18.2708 -46.9343 0)
(-17.708 -45.6146 0)
(-17.7569 -44.3638 0)
(-19.2586 -42.9417 0)
(-6555.04 -2138.45 0)
(-525.487 1745.46 0)
(-2442.99 992.039 0)
(-2455.92 519.37 0)
(-2487.84 146.813 0)
(-2409.81 -147.707 0)
(-2279.02 -392.561 0)
(-2144.36 -583.977 0)
(-2014.14 -725.616 0)
(-1890.65 -825.996 0)
(-1775.51 -893.672 0)
(-1669.02 -935.897 0)
(-1570.94 -958.557 0)
(-1480.75 -966.334 0)
(-1397.83 -962.892 0)
(-1321.58 -951.09 0)
(-1251.37 -933.171 0)
(-1186.61 -910.874 0)
(-1126.77 -885.543 0)
(-1071.34 -858.209 0)
(-1019.86 -829.66 0)
(-971.928 -800.493 0)
(-927.176 -771.155 0)
(-885.283 -741.977 0)
(-845.969 -713.208 0)
(-808.987 -685.031 0)
(-774.122 -657.579 0)
(-741.187 -630.944 0)
(-710.016 -605.191 0)
(-680.463 -580.361 0)
(-652.399 -556.477 0)
(-625.706 -533.545 0)
(-600.279 -511.559 0)
(-576.026 -490.503 0)
(-552.863 -470.357 0)
(-530.716 -451.097 0)
(-509.518 -432.693 0)
(-489.208 -415.117 0)
(-469.733 -398.339 0)
(-451.043 -382.325 0)
(-433.095 -367.046 0)
(-415.847 -352.47 0)
(-399.265 -338.566 0)
(-383.312 -325.302 0)
(-367.959 -312.649 0)
(-353.176 -300.577 0)
(-338.935 -289.057 0)
(-325.212 -278.061 0)
(-311.981 -267.562 0)
(-299.219 -257.534 0)
(-286.906 -247.952 0)
(-275.019 -238.792 0)
(-263.539 -230.033 0)
(-252.449 -221.654 0)
(-241.73 -213.635 0)
(-231.367 -205.957 0)
(-221.343 -198.602 0)
(-211.645 -191.553 0)
(-202.259 -184.793 0)
(-193.172 -178.306 0)
(-184.372 -172.079 0)
(-175.847 -166.098 0)
(-167.586 -160.354 0)
(-159.58 -154.84 0)
(-151.818 -149.549 0)
(-144.29 -144.478 0)
(-136.988 -139.621 0)
(-129.9 -134.972 0)
(-123.018 -130.524 0)
(-116.335 -126.27 0)
(-109.845 -122.201 0)
(-103.545 -118.313 0)
(-97.4341 -114.601 0)
(-91.5149 -111.064 0)
(-85.7873 -107.702 0)
(-80.2502 -104.508 0)
(-74.9034 -101.468 0)
(-69.7482 -98.5632 0)
(-64.7885 -95.7734 0)
(-60.0316 -93.0863 0)
(-55.4837 -90.4979 0)
(-51.1471 -87.9989 0)
(-47.0234 -85.5673 0)
(-43.1155 -83.1743 0)
(-39.4294 -80.8061 0)
(-35.9679 -78.477 0)
(-32.7349 -76.1959 0)
(-29.7406 -73.9457 0)
(-26.9862 -71.7078 0)
(-24.4659 -69.5131 0)
(-22.179 -67.394 0)
(-20.1243 -65.33 0)
(-18.2865 -63.3023 0)
(-16.6194 -61.3414 0)
(-15.1096 -59.4785 0)
(-13.7585 -57.6503 0)
(-12.5802 -55.8293 0)
(-11.4969 -54.0145 0)
(-10.4383 -52.2715 0)
(-10.7894 -50.4035 0)
(-9383.74 -4704.72 0)
(-1447.25 6082.48 0)
(-3769.74 3178.33 0)
(-3362.02 1671 0)
(-3165.85 454.267 0)
(-2868.27 -319.213 0)
(-2586.32 -743.865 0)
(-2341.07 -988.753 0)
(-2123.11 -1129.14 0)
(-1931.42 -1205.06 0)
(-1764.25 -1239.88 0)
(-1618.96 -1247.8 0)
(-1492.74 -1237.87 0)
(-1382.82 -1216.11 0)
(-1286.65 -1186.54 0)
(-1202.09 -1151.89 0)
(-1127.3 -1114.12 0)
(-1060.73 -1074.62 0)
(-1001.08 -1034.4 0)
(-947.305 -994.162 0)
(-898.519 -954.407 0)
(-853.983 -915.49 0)
(-813.076 -877.637 0)
(-775.297 -840.977 0)
(-740.231 -805.598 0)
(-707.533 -771.549 0)
(-676.92 -738.847 0)
(-648.154 -707.493 0)
(-621.037 -677.473 0)
(-595.404 -648.766 0)
(-571.114 -621.345 0)
(-548.045 -595.179 0)
(-526.088 -570.225 0)
(-505.146 -546.436 0)
(-485.139 -523.763 0)
(-465.994 -502.156 0)
(-447.648 -481.568 0)
(-430.046 -461.951 0)
(-413.14 -443.259 0)
(-396.885 -425.448 0)
(-381.245 -408.474 0)
(-366.185 -392.296 0)
(-351.673 -376.874 0)
(-337.682 -362.17 0)
(-324.186 -348.148 0)
(-311.162 -334.773 0)
(-298.588 -322.012 0)
(-286.445 -309.833 0)
(-274.712 -298.207 0)
(-263.373 -287.104 0)
(-252.41 -276.499 0)
(-241.809 -266.365 0)
(-231.554 -256.68 0)
(-221.631 -247.421 0)
(-212.027 -238.567 0)
(-202.729 -230.099 0)
(-193.725 -221.997 0)
(-185.004 -214.244 0)
(-176.555 -206.82 0)
(-168.367 -199.708 0)
(-160.432 -192.89 0)
(-152.74 -186.35 0)
(-145.283 -180.075 0)
(-138.056 -174.054 0)
(-131.05 -168.283 0)
(-124.26 -162.757 0)
(-117.677 -157.472 0)
(-111.295 -152.419 0)
(-105.104 -147.589 0)
(-99.0977 -142.968 0)
(-93.2706 -138.54 0)
(-87.6195 -134.291 0)
(-82.1456 -130.21 0)
(-76.8536 -126.295 0)
(-71.7471 -122.553 0)
(-66.8265 -118.983 0)
(-62.0918 -115.572 0)
(-57.5413 -112.296 0)
(-53.1753 -109.129 0)
(-48.9995 -106.055 0)
(-45.0201 -103.08 0)
(-41.2405 -100.216 0)
(-37.6665 -97.4503 0)
(-34.2961 -94.7456 0)
(-31.1247 -92.075 0)
(-28.1469 -89.4616 0)
(-25.364 -86.9279 0)
(-22.7886 -84.4613 0)
(-20.4086 -82.0157 0)
(-18.1853 -79.6073 0)
(-16.1074 -77.2685 0)
(-14.1819 -74.9684 0)
(-12.4036 -72.6765 0)
(-10.6865 -70.4055 0)
(-8.99531 -68.1999 0)
(-7.3236 -65.9927 0)
(-5.75551 -63.8217 0)
(-4.31416 -61.6076 0)
(-2.7067 -59.3866 0)
(-2.06721 -57.0759 0)
(-40150.9 10102.2 0)
(-415.761 381.471 0)
(-8788.66 -1280 0)
(-5786.68 -2020.57 0)
(-4597.97 -2233.58 0)
(-3633.31 -2188.65 0)
(-2965.6 -2096.62 0)
(-2471.9 -2008.44 0)
(-2103.37 -1919.32 0)
(-1821.33 -1829.5 0)
(-1602.35 -1741.46 0)
(-1429.5 -1656.56 0)
(-1291.02 -1575.42 0)
(-1178.27 -1498.46 0)
(-1084.75 -1425.87 0)
(-1006.08 -1357.17 0)
(-938.906 -1292.18 0)
(-880.782 -1230.72 0)
(-829.855 -1172.6 0)
(-784.74 -1117.62 0)
(-744.406 -1065.62 0)
(-708.02 -1016.46 0)
(-674.876 -970.008 0)
(-644.454 -926.045 0)
(-616.33 -884.408 0)
(-590.167 -844.95 0)
(-565.693 -807.533 0)
(-542.688 -772.031 0)
(-520.971 -738.328 0)
(-500.399 -706.322 0)
(-480.859 -675.926 0)
(-462.255 -647.066 0)
(-444.497 -619.671 0)
(-427.506 -593.656 0)
(-411.215 -568.94 0)
(-395.569 -545.45 0)
(-380.517 -523.117 0)
(-366.017 -501.877 0)
(-352.032 -481.669 0)
(-338.532 -462.436 0)
(-325.488 -444.124 0)
(-312.876 -426.682 0)
(-300.675 -410.064 0)
(-288.865 -394.225 0)
(-277.43 -379.122 0)
(-266.354 -364.718 0)
(-255.623 -350.975 0)
(-245.223 -337.859 0)
(-235.142 -325.338 0)
(-225.369 -313.38 0)
(-215.894 -301.957 0)
(-206.706 -291.042 0)
(-197.797 -280.61 0)
(-189.156 -270.638 0)
(-180.775 -261.103 0)
(-172.646 -251.986 0)
(-164.762 -243.266 0)
(-157.115 -234.924 0)
(-149.697 -226.941 0)
(-142.501 -219.298 0)
(-135.52 -211.973 0)
(-128.746 -204.947 0)
(-122.175 -198.2 0)
(-115.801 -191.718 0)
(-109.624 -185.496 0)
(-103.639 -179.535 0)
(-97.8424 -173.833 0)
(-92.2303 -168.383 0)
(-86.7969 -163.174 0)
(-81.5362 -158.194 0)
(-76.4425 -153.423 0)
(-71.511 -148.838 0)
(-66.7418 -144.417 0)
(-62.1407 -140.154 0)
(-57.7115 -136.063 0)
(-53.4578 -132.155 0)
(-49.383 -128.423 0)
(-45.4832 -124.844 0)
(-41.7528 -121.38 0)
(-38.1886 -117.999 0)
(-34.7864 -114.714 0)
(-31.545 -111.548 0)
(-28.4852 -108.506 0)
(-25.6092 -105.545 0)
(-22.8951 -102.62 0)
(-20.307 -99.7523 0)
(-17.8326 -96.956 0)
(-15.5132 -94.2347 0)
(-13.3522 -91.5262 0)
(-11.2629 -88.8329 0)
(-9.19186 -86.1842 0)
(-7.14639 -83.5556 0)
(-5.2045 -80.949 0)
(-3.35606 -78.3114 0)
(-1.55535 -75.6732 0)
(0.310797 -73.0889 0)
(2.10606 -70.6976 0)
(3.77001 -68.305 0)
(5.5388 -65.9208 0)
(6.63482 -63.4827 0)
(-27382.9 -9115.56 0)
(4249.77 -6017.09 0)
(-4592.61 -5048.93 0)
(-3106.83 -4841.3 0)
(-2551.39 -4369.63 0)
(-2067.91 -3789.28 0)
(-1736.41 -3257.54 0)
(-1481.48 -2873.3 0)
(-1298.07 -2578.98 0)
(-1155.43 -2340.1 0)
(-1042.42 -2142.71 0)
(-950.914 -1976.84 0)
(-876.198 -1834.95 0)
(-814.624 -1711.81 0)
(-762.224 -1604.62 0)
(-717.324 -1509.23 0)
(-678.216 -1423.35 0)
(-643.724 -1345.36 0)
(-612.909 -1273.98 0)
(-585.071 -1208.2 0)
(-559.79 -1147.26 0)
(-536.727 -1090.63 0)
(-515.406 -1038.05 0)
(-495.583 -988.936 0)
(-477.015 -942.928 0)
(-459.516 -899.732 0)
(-442.935 -859.093 0)
(-427.145 -820.785 0)
(-412.044 -784.61 0)
(-397.55 -750.395 0)
(-383.609 -717.998 0)
(-370.191 -687.316 0)
(-357.25 -658.274 0)
(-344.74 -630.769 0)
(-332.627 -604.687 0)
(-320.883 -579.936 0)
(-309.481 -556.433 0)
(-298.399 -534.1 0)
(-287.621 -512.868 0)
(-277.129 -492.67 0)
(-266.912 -473.444 0)
(-256.958 -455.135 0)
(-247.258 -437.69 0)
(-237.806 -421.06 0)
(-228.593 -405.2 0)
(-219.615 -390.067 0)
(-210.866 -375.622 0)
(-202.341 -361.83 0)
(-194.037 -348.655 0)
(-185.947 -336.067 0)
(-178.068 -324.035 0)
(-170.397 -312.532 0)
(-162.929 -301.533 0)
(-155.661 -291.012 0)
(-148.589 -280.947 0)
(-141.711 -271.318 0)
(-135.024 -262.104 0)
(-128.524 -253.287 0)
(-122.208 -244.847 0)
(-116.074 -236.765 0)
(-110.116 -229.021 0)
(-104.329 -221.59 0)
(-98.7088 -214.448 0)
(-93.2537 -207.573 0)
(-87.9639 -200.959 0)
(-82.8388 -194.612 0)
(-77.8789 -188.538 0)
(-73.0834 -182.73 0)
(-68.4499 -177.18 0)
(-63.9753 -171.875 0)
(-59.6536 -166.798 0)
(-55.4778 -161.922 0)
(-51.4446 -157.217 0)
(-47.5544 -152.658 0)
(-43.8031 -148.266 0)
(-40.1949 -144.064 0)
(-36.7431 -140.049 0)
(-33.4493 -136.2 0)
(-30.31 -132.479 0)
(-27.3112 -128.84 0)
(-24.4213 -125.292 0)
(-21.616 -121.85 0)
(-18.9379 -118.548 0)
(-16.4197 -115.33 0)
(-14.0428 -112.142 0)
(-11.7302 -109 0)
(-9.40577 -105.894 0)
(-7.12383 -102.878 0)
(-4.9643 -99.9024 0)
(-2.90157 -96.9156 0)
(-0.838379 -93.9351 0)
(1.28755 -91.0513 0)
(3.36338 -88.3035 0)
(5.34916 -85.5571 0)
(7.24525 -82.8196 0)
(9.05542 -80.0983 0)
(10.7728 -77.3985 0)
(12.3748 -74.7272 0)
(14.0292 -72.0883 0)
(15.1359 -69.4419 0)
(4350.28 1647.02 0)
(4175.54 -1081 0)
(2403.21 -3046.95 0)
(1296.83 -4099.53 0)
(727.643 -4236.79 0)
(312.909 -3842.22 0)
(-6.3838 -3302.54 0)
(-161.421 -2922.33 0)
(-257.637 -2642.42 0)
(-316.035 -2409.33 0)
(-350.815 -2212.8 0)
(-370.279 -2045.42 0)
(-380.791 -1900.65 0)
(-387.069 -1772.61 0)
(-388.131 -1661.95 0)
(-386.63 -1563.19 0)
(-383.128 -1474.05 0)
(-378.259 -1393.03 0)
(-372.368 -1318.89 0)
(-365.647 -1250.63 0)
(-358.478 -1187.37 0)
(-351.307 -1128.47 0)
(-343.877 -1074.09 0)
(-336.363 -1023.46 0)
(-328.76 -976.121 0)
(-321.096 -931.762 0)
(-313.385 -890.101 0)
(-305.638 -850.891 0)
(-297.858 -813.908 0)
(-290.043 -778.95 0)
(-282.205 -745.84 0)
(-274.405 -714.447 0)
(-266.652 -684.745 0)
(-258.943 -656.648 0)
(-251.284 -630.013 0)
(-243.682 -604.74 0)
(-236.142 -580.74 0)
(-228.668 -557.929 0)
(-221.265 -536.234 0)
(-213.938 -515.585 0)
(-206.689 -495.92 0)
(-199.524 -477.18 0)
(-192.446 -459.311 0)
(-185.461 -442.263 0)
(-178.575 -425.989 0)
(-171.791 -410.448 0)
(-165.115 -395.6 0)
(-158.552 -381.406 0)
(-152.103 -367.834 0)
(-145.774 -354.852 0)
(-139.565 -342.43 0)
(-133.481 -330.541 0)
(-127.522 -319.16 0)
(-121.69 -308.263 0)
(-115.987 -297.828 0)
(-110.415 -287.834 0)
(-104.975 -278.261 0)
(-99.6702 -269.092 0)
(-94.5012 -260.307 0)
(-89.4691 -251.889 0)
(-84.5733 -243.819 0)
(-79.8118 -236.075 0)
(-75.1815 -228.63 0)
(-70.6813 -221.454 0)
(-66.3114 -214.53 0)
(-62.069 -207.873 0)
(-57.9572 -201.499 0)
(-53.9794 -195.399 0)
(-50.1375 -189.562 0)
(-46.4313 -183.975 0)
(-42.8573 -178.626 0)
(-39.4099 -173.491 0)
(-36.0866 -168.537 0)
(-32.8793 -163.726 0)
(-29.7605 -159.074 0)
(-26.725 -154.614 0)
(-23.7973 -150.349 0)
(-20.9933 -146.25 0)
(-18.3292 -142.284 0)
(-15.7994 -138.396 0)
(-13.3441 -134.587 0)
(-10.8786 -130.847 0)
(-8.43589 -127.263 0)
(-6.08246 -123.79 0)
(-3.85404 -120.372 0)
(-1.72512 -116.986 0)
(0.481242 -113.613 0)
(2.69314 -110.444 0)
(4.86465 -107.345 0)
(6.96403 -104.27 0)
(8.97863 -101.212 0)
(10.9162 -98.1754 0)
(12.7777 -95.165 0)
(14.5621 -92.1856 0)
(16.2731 -89.238 0)
(17.914 -86.3237 0)
(19.4881 -83.4451 0)
(20.9832 -80.6018 0)
(22.5246 -77.7936 0)
(23.5765 -74.9938 0)
(2943.48 -770.127 0)
(3325.53 -1673.76 0)
(2888.86 -2121.8 0)
(2330.35 -2342.57 0)
(1808.94 -2454.95 0)
(1352.83 -2483.58 0)
(993.663 -2447.01 0)
(724.794 -2365.5 0)
(515.511 -2256.41 0)
(353.218 -2136.74 0)
(229.535 -2017.85 0)
(135.829 -1905.02 0)
(64.2592 -1799.73 0)
(6.37127 -1697.25 0)
(-36.2937 -1606.7 0)
(-69.9383 -1523.21 0)
(-96.5566 -1445.48 0)
(-117.688 -1373.15 0)
(-134.403 -1305.76 0)
(-147.397 -1242.87 0)
(-157.447 -1183.94 0)
(-165.725 -1128.07 0)
(-171.897 -1076.36 0)
(-176.507 -1028.03 0)
(-179.747 -982.598 0)
(-181.832 -939.819 0)
(-182.937 -899.476 0)
(-183.202 -861.374 0)
(-182.741 -825.335 0)
(-181.63 -791.184 0)
(-179.932 -758.742 0)
(-177.798 -727.835 0)
(-175.289 -698.514 0)
(-172.43 -670.781 0)
(-169.27 -644.458 0)
(-165.849 -619.446 0)
(-162.203 -595.658 0)
(-158.365 -573.015 0)
(-154.365 -551.445 0)
(-150.227 -530.883 0)
(-145.975 -511.268 0)
(-141.626 -492.545 0)
(-137.201 -474.665 0)
(-132.715 -457.58 0)
(-128.185 -441.247 0)
(-123.625 -425.624 0)
(-119.052 -410.675 0)
(-114.477 -396.363 0)
(-109.912 -382.656 0)
(-105.369 -369.524 0)
(-100.858 -356.938 0)
(-96.3852 -344.874 0)
(-91.9596 -333.307 0)
(-87.5877 -322.215 0)
(-83.2756 -311.577 0)
(-79.0293 -301.374 0)
(-74.8545 -291.586 0)
(-70.7569 -282.197 0)
(-66.7422 -273.188 0)
(-62.8154 -264.542 0)
(-58.9807 -256.244 0)
(-55.2406 -248.274 0)
(-51.5961 -240.61 0)
(-48.0497 -233.217 0)
(-44.5984 -226.065 0)
(-41.2262 -219.169 0)
(-37.9354 -212.567 0)
(-34.7337 -206.242 0)
(-31.6275 -200.18 0)
(-28.6205 -194.364 0)
(-25.7146 -188.782 0)
(-22.9091 -183.415 0)
(-20.2143 -178.235 0)
(-17.628 -173.192 0)
(-15.0896 -168.278 0)
(-12.5666 -163.547 0)
(-10.0771 -159.018 0)
(-7.64071 -154.667 0)
(-5.28967 -150.471 0)
(-3.053 -146.386 0)
(-0.914308 -142.382 0)
(1.28699 -138.426 0)
(3.4779 -134.721 0)
(5.64728 -131.12 0)
(7.7678 -127.597 0)
(9.81801 -124.134 0)
(11.7953 -120.718 0)
(13.7054 -117.346 0)
(15.5537 -114.019 0)
(17.3428 -110.742 0)
(19.0738 -107.509 0)
(20.7495 -104.316 0)
(22.3719 -101.162 0)
(23.9418 -98.044 0)
(25.4596 -94.9613 0)
(26.926 -91.9135 0)
(28.3426 -88.9008 0)
(29.7006 -85.9238 0)
(31.1037 -82.9827 0)
(32.0508 -80.0585 0)
(2495.09 -239.825 0)
(2788.61 -621.937 0)
(2413.77 -981.254 0)
(2036.13 -1273.76 0)
(1756.56 -1488.04 0)
(1514.81 -1626.44 0)
(1288.3 -1705.86 0)
(1082.73 -1743.81 0)
(902.366 -1749.96 0)
(747.124 -1731.74 0)
(615.049 -1695.93 0)
(503.345 -1648.25 0)
(409.091 -1593.37 0)
(329.778 -1534.82 0)
(262.986 -1474.96 0)
(206.423 -1415.21 0)
(158.501 -1356.63 0)
(117.87 -1299.85 0)
(83.4017 -1245.22 0)
(54.2008 -1192.89 0)
(29.4907 -1142.98 0)
(7.92551 -1094.05 0)
(-9.88859 -1048.38 0)
(-24.9017 -1005.34 0)
(-37.5757 -964.404 0)
(-48.2532 -925.456 0)
(-57.2215 -888.403 0)
(-64.714 -853.145 0)
(-70.9216 -819.586 0)
(-75.9884 -787.622 0)
(-80.0207 -757.131 0)
(-83.237 -727.872 0)
(-85.7186 -699.925 0)
(-87.4881 -673.473 0)
(-88.6325 -648.283 0)
(-89.215 -624.272 0)
(-89.3038 -601.366 0)
(-88.9584 -579.499 0)
(-88.2321 -558.608 0)
(-87.1712 -538.638 0)
(-85.8155 -519.538 0)
(-84.1996 -501.26 0)
(-82.354 -483.762 0)
(-80.306 -467.003 0)
(-78.0808 -450.945 0)
(-75.7021 -435.553 0)
(-73.1921 -420.793 0)
(-70.5716 -406.632 0)
(-67.8599 -393.043 0)
(-65.0749 -379.996 0)
(-62.2325 -367.466 0)
(-59.347 -355.431 0)
(-56.431 -343.868 0)
(-53.4958 -332.758 0)
(-50.5516 -322.081 0)
(-47.6081 -311.82 0)
(-44.6738 -301.957 0)
(-41.7572 -292.477 0)
(-38.8668 -283.364 0)
(-36.0105 -274.601 0)
(-33.1956 -266.173 0)
(-30.4287 -258.064 0)
(-27.7171 -250.256 0)
(-25.0759 -242.719 0)
(-22.5066 -235.405 0)
(-19.9709 -228.303 0)
(-17.4641 -221.496 0)
(-14.9919 -214.962 0)
(-12.5636 -208.688 0)
(-10.1852 -202.66 0)
(-7.86111 -196.864 0)
(-5.59034 -191.291 0)
(-3.38866 -185.927 0)
(-1.27749 -180.73 0)
(0.812117 -175.652 0)
(2.90548 -170.789 0)
(4.98318 -166.147 0)
(7.04202 -161.67 0)
(9.06745 -157.348 0)
(11.0436 -153.165 0)
(12.9616 -149.099 0)
(14.8178 -145.13 0)
(16.6162 -141.248 0)
(18.3648 -137.453 0)
(20.0683 -133.746 0)
(21.7262 -130.119 0)
(23.3395 -126.565 0)
(24.9103 -123.073 0)
(26.4407 -119.639 0)
(27.9318 -116.256 0)
(29.3842 -112.92 0)
(30.799 -109.627 0)
(32.1772 -106.374 0)
(33.5195 -103.16 0)
(34.8264 -99.9815 0)
(36.0977 -96.8385 0)
(37.3342 -93.7302 0)
(38.528 -90.6564 0)
(39.7685 -87.6172 0)
(40.5764 -84.5979 0)
(2043.5 -188.76 0)
(2288.31 -498.631 0)
(2062.14 -758.147 0)
(1851.23 -951.397 0)
(1700.97 -1098.53 0)
(1556.21 -1210.01 0)
(1403.14 -1290.65 0)
(1251.12 -1344.93 0)
(1107.16 -1377.19 0)
(973.857 -1391.43 0)
(852.548 -1391.21 0)
(743.772 -1379.55 0)
(647.178 -1358.99 0)
(561.862 -1331.71 0)
(486.75 -1299.61 0)
(420.752 -1264.17 0)
(362.821 -1226.58 0)
(311.975 -1187.79 0)
(267.337 -1148.53 0)
(228.128 -1109.36 0)
(193.706 -1070.69 0)
(163.585 -1032.84 0)
(137.245 -995.969 0)
(114.115 -960.142 0)
(93.7892 -925.435 0)
(75.9298 -891.903 0)
(60.2402 -859.574 0)
(46.4657 -828.453 0)
(34.3896 -798.531 0)
(23.8314 -769.788 0)
(14.6338 -742.202 0)
(6.58175 -715.499 0)
(-0.369498 -689.741 0)
(-6.24399 -665.371 0)
(-11.2398 -642.019 0)
(-15.4299 -619.64 0)
(-18.907 -598.188 0)
(-21.7507 -577.62 0)
(-24.031 -557.892 0)
(-25.8092 -538.963 0)
(-27.139 -520.795 0)
(-28.0668 -503.351 0)
(-28.6331 -486.596 0)