/*--------------------------------*- C++ -*----------------------------------*\
| =========                 |                                                 |
| \\      /  F ield         | OpenFOAM: The Open Source CFD Toolbox           |
|  \\    /   O peration     | Version:  2412                                  |
|   \\  /    A nd           | Website:  www.openfoam.com                      |
|    \\/     M anipulation  |                                                 |
\*---------------------------------------------------------------------------*/
FoamFile
{
    version     2.0;
    format      ascii;
    arch        "LSB;label=32;scalar=64";
    class       volScalarField;
    location    "1.5";
    object      p;
}
// * * * * * * * * * * * * * * * * * * * * * * * * * * * * * * * * * * * * * //

dimensions      [1 -1 -2 0 0 0 0];

internalField   nonuniform List<scalar> 
200
(
1.15105
0.918532
1.06224
0.960357
1.03345
0.992512
1.0147
1.00365
1.00835
1.00669
1.15014
0.909107
1.06619
0.976314
1.0261
0.992921
1.01406
1.00227
1.00836
1.00613
1.15043
0.909994
1.06629
0.974977
1.02703
0.993001
1.01416
1.00263
1.00832
1.0063
1.15069
0.913729
1.06464
0.968706
1.02984
0.992833
1.01431
1.00309
1.0082
1.00647
1.15097
0.918989
1.06147
0.958951
1.03365
0.992792
1.01443
1.00379
1.00811
1.00672
1.15066
0.912393
1.06605
0.970576
1.02944
0.992929
1.0142
1.00327
1.00811
1.00656
1.14955
0.905647
1.06646
0.981921
1.02313
0.992815
1.01392
1.00164
1.00835
1.00593
1.15089
0.916782
1.06421
0.96419
1.03301
0.992967
1.01451
1.00377
1.00813
1.00677
1.15244
0.925839
1.05574
0.944477
1.03844
0.991676
1.01472
1.00428
1.00792
1.00691
1.14907
0.90485
1.06713
0.983193
1.02339
0.993062
1.01386
1.00176
1.00831
1.00598
1.00731
1.00711
1.0071
1.00715
1.0072
1.00726
1.00732
1.00738
1.00744
1.00751
1.00709
1.00703
1.00708
1.00715
1.00722
1.00728
1.00734
1.00741
1.00747
1.00754
1.00711
1.00711
1.00713
1.00718
1.00724
1.0073
1.00736
1.00742
1.00747
1.00754
1.00702
1.0071
1.00713
1.00718
1.00724
1.00731
1.00737
1.00743
1.00749
1.00756
1.00702
1.00712
1.00716
1.00721
1.00726
1.00732
1.00738
1.00745
1.00751
1.00757
1.00695
1.00709
1.00714
1.0072
1.00726
1.00733
1.00739
1.00745
1.00752
1.00759
1.00695
1.00708
1.00714
1.00721
1.00727
1.00734
1.0074
1.00747
1.00753
1.0076
1.007
1.00711
1.00716
1.00721
1.00728
1.00734
1.00741
1.00747
1.00754
1.00761
1.00696
1.00711
1.00717
1.00722
1.00728
1.00735
1.00741
1.00748
1.00754
1.00761
1.00692
1.00708
1.00714
1.00721
1.00728
1.00735
1.00741
1.00748
1.00755
1.00762
)
;

boundaryField
{
    inlet
    {
        type            fixedValue;
        value           uniform 1;
    }
    sym
    {
        type            slip;
    }
    wedge
    {
        type            slip;
    }
    top
    {
        type            slip;
    }
    back
    {
        type            empty;
    }
    front
    {
        type            empty;
    }
    outlet
    {
        type            zeroGradient;
    }
}


// ************************************************************************* //
