/*--------------------------------*- C++ -*----------------------------------*\
| =========                 |                                                 |
| \\      /  F ield         | OpenFOAM: The Open Source CFD Toolbox           |
|  \\    /   O peration     | Version:  2412                                  |
|   \\  /    A nd           | Website:  www.openfoam.com                      |
|    \\/     M anipulation  |                                                 |
\*---------------------------------------------------------------------------*/
FoamFile
{
    version     2.0;
    format      ascii;
    arch        "LSB;label=32;scalar=64";
    class       surfaceScalarField;
    location    "1.5";
    object      phi;
}
// * * * * * * * * * * * * * * * * * * * * * * * * * * * * * * * * * * * * * //

dimensions      [1 0 -1 0 0 0 0];

oriented        oriented;

internalField   nonuniform List<scalar> 
370
(
0.000195428
7.99132e-06
0.000104958
8.25543e-05
0.000108837
-8.8101e-06
0.000250094
-0.000137189
0.000227987
1.96004e-05
0.000229018
-6.16801e-07
0.000220171
8.44834e-06
0.00020402
1.61298e-05
0.000193916
9.98478e-06
1.37665e-05
0.000180092
0.000212167
7.19052e-07
0.00028911
1.05112e-05
0.000281111
1.93556e-07
0.000155469
-1.36181e-05
0.00017078
4.74412e-06
0.00016772
2.77648e-06
0.000170133
5.68261e-06
0.000181246
5.4738e-06
0.000181742
9.26432e-06
9.19917e-06
0.000186429
0.000207507
-3.57739e-06
0.000269401
-4.70253e-05
0.000263446
6.49902e-06
0.000164795
8.34306e-05
0.000178798
-9.1411e-06
0.000179523
2.37477e-06
0.000181911
2.92844e-06
0.000189054
-1.28308e-06
0.000190504
7.60645e-06
7.17349e-06
0.000192598
0.000202109
-2.37175e-06
0.000190348
-3.6488e-05
0.000188244
6.55802e-06
0.000207506
6.48364e-05
0.000203278
-5.90296e-06
0.000204166
1.76766e-06
0.000202862
3.87414e-06
0.000201487
2.70866e-07
0.000201352
7.58404e-06
6.61788e-06
0.000201898
0.000195912
4.97874e-06
9.18796e-05
5.83017e-05
0.000101896
-8.71586e-06
0.000264952
-9.27672e-05
0.000238196
1.81157e-05
0.00023399
6.34866e-06
0.000228804
8.6846e-06
0.000215975
1.30558e-05
0.000213711
9.74259e-06
1.10735e-05
0.000209165
0.000202642
6.87334e-06
0.000222688
4.01509e-05
0.000214694
-1.79432e-06
0.000200587
-7.97591e-05
0.000206662
1.16579e-05
0.000208462
4.79527e-06
0.000209852
6.96189e-06
0.000207786
1.53103e-05
0.000210053
7.32622e-06
1.21057e-05
0.000208986
0.000223167
-9.58221e-06
0.000374335
-0.000102352
0.000364806
1.13942e-05
0.000105486
0.000176246
0.000138737
-2.04851e-05
0.000143181
6.42423e-07
0.000150683
-1.04623e-06
0.000178921
-1.22795e-05
0.00018368
2.22715e-06
1.98506e-07
0.000195742
0.000196721
-2.95065e-06
0.000134481
-4.62692e-05
0.000129291
1.23302e-05
0.000237175
6.97621e-05
0.000232022
-1.7942e-05
0.000230409
2.32351e-06
0.000227805
1.09033e-06
0.000217366
-1.93089e-06
0.000216196
3.23969e-06
2.12322e-06
0.000214134
0.000170802
1.97441e-05
-4.14494e-05
0.000158511
-1.95395e-05
-1.53244e-05
0.000331514
-0.000274997
0.000271297
3.91395e-05
0.000273268
9.42697e-07
0.000265124
8.61817e-06
0.000237475
2.55449e-05
0.000234647
5.93602e-06
1.20616e-05
0.000224558
0.000230329
0.000398056
0.000386558
0.000105221
0.000145256
0.000146101
0.000154179
0.000180221
0.000185788
0.000197957
0.000182574
-2.47659e-06
0.000186671
-4.1288e-06
0.00018894
-2.49344e-06
0.000189596
-8.00629e-07
0.000189148
4.13304e-07
0.000188156
1.09858e-06
0.000187017
1.37941e-06
0.000185737
1.41508e-06
0.000184232
1.56044e-06
1.27833e-07
0.000189811
-5.87736e-06
0.000190837
-5.0912e-06
0.000190857
-2.62451e-06
0.000190165
-3.71694e-07
0.000189556
9.30393e-07
0.000188991
1.65908e-06
0.000188749
1.84457e-06
0.00018868
1.65619e-06
0.000188818
1.52233e-06
-2.97734e-07
0.000195675
-9.03521e-06
0.000196094
-5.42866e-06
0.000196008
-2.60989e-06
0.000195682
-3.59933e-07
0.000195203
1.26078e-06
0.000194803
2.01638e-06
0.000194628
2.15099e-06
0.000194637
1.86915e-06
0.000194719
1.58214e-06
-2.64348e-07
0.000202279
-9.50774e-06
0.000200942
-3.97527e-06
0.000199316
-1.03119e-06
0.00019772
9.19941e-07
0.000196775
1.99379e-06
0.000196329
2.38465e-06
0.000196244
2.27767e-06
0.000196515
1.82675e-06
0.00019693
1.34636e-06
-5.79104e-07
0.000204295
-4.7419e-06
0.00020203
-1.59167e-06
0.000200805
1.58162e-07
0.000200026
1.41976e-06
0.000199658
2.08603e-06
0.000199712
2.22691e-06
0.000199993
1.98469e-06
0.000200531
1.49675e-06
0.000201129
9.56056e-07
-6.71835e-07
0.000206083
-1.94729e-06
0.000204892
-2.6073e-07
0.000203894
1.15392e-06
0.000203245
1.86158e-06
0.000202808
2.17488e-06
0.000202789
2.10027e-06
0.000202979
1.7525e-06
0.000203377
1.23603e-06
0.000203893
6.89115e-07
-7.19642e-07
0.000200298
-6.69779e-06
0.000202453
-2.25884e-06
0.000203795
-1.64181e-07
0.000204513
9.86139e-07
0.000204818
1.4896e-06
0.000205254
1.48103e-06
0.000205753
1.1948e-06
0.000206299
7.69642e-07
0.000206931
3.24761e-07
-7.00859e-07
0.000210437
-3.21073e-06
0.000208953
-6.45792e-07
0.000208349
4.69891e-07
0.000208211
1.01215e-06
0.000208109
1.19182e-06
0.000208275
1.09189e-06
0.000208553
8.40542e-07
0.000208834
5.22154e-07
0.000209208
2.08105e-07
-5.31399e-07
0.000215854
5.28181e-06
0.0002123
3.04508e-06
0.000210634
2.18182e-06
0.000210081
1.47735e-06
0.000209847
1.0312e-06
0.000209972
7.19228e-07
0.000210258
4.66661e-07
0.000210542
2.45763e-07
0.000210913
5.61672e-08
-3.00081e-07
0.000202991
0.000206171
0.000208414
0.000209813
0.00021046
0.00021092
0.000211292
0.000211532
0.000211787
)
;

boundaryField
{
    inlet
    {
        type            calculated;
        value           nonuniform List<scalar> 10(-0.000212574 -0.000207577 -0.000206908 -0.000209304 -0.000212775 -0.000209154 -0.000207128 -0.000211372 -0.000212789 -0.000209532);
    }
    sym
    {
        type            calculated;
        value           uniform 0;
    }
    wedge
    {
        type            calculated;
        value           nonuniform List<scalar> 10(-9.9365e-42 1.20911e-20 1.20837e-20 1.2071e-20 -4.2841e-39 1.2074e-20 0 2.42112e-20 0 1.21205e-20);
    }
    top
    {
        type            calculated;
        value           uniform 0;
    }
    back
    {
        type            empty;
    }
    front
    {
        type            empty;
    }
    outlet
    {
        type            calculated;
        value           nonuniform List<scalar> 10(0.000184092 0.000189262 0.000194729 0.00019731 0.000201309 0.00020405 0.00020704 0.000209192 0.000210869 0.000211688);
    }
}


// ************************************************************************* //
