/*--------------------------------*- C++ -*----------------------------------*\
| =========                 |                                                 |
| \\      /  F ield         | OpenFOAM: The Open Source CFD Toolbox           |
|  \\    /   O peration     | Version:  2412                                  |
|   \\  /    A nd           | Website:  www.openfoam.com                      |
|    \\/     M anipulation  |                                                 |
\*---------------------------------------------------------------------------*/
FoamFile
{
    version     2.0;
    format      ascii;
    arch        "LSB;label=32;scalar=64";
    class       surfaceScalarField;
    location    "1.5";
    object      phi;
}
// * * * * * * * * * * * * * * * * * * * * * * * * * * * * * * * * * * * * * //

dimensions      [1 0 -1 0 0 0 0];

oriented        oriented;

internalField   nonuniform List<scalar> 
370
(
0.529202
6.26181e-08
0.529201
3.77509e-07
0.5292
1.2248e-06
0.529197
3.26226e-06
0.52919
7.98958e-06
0.529172
1.88398e-05
0.52913
4.37638e-05
0.529031
0.000101621
0.528793
0.000239567
0.000588946
0.528215
0.529202
3.20274e-08
0.529202
2.0066e-07
0.529203
6.74567e-07
0.529204
1.82904e-06
0.529208
4.51287e-06
0.529216
1.06481e-05
0.529236
2.45932e-05
0.529282
5.63043e-05
0.529393
0.000128472
0.000295887
0.529677
0.529202
1.01134e-08
0.529202
6.3278e-08
0.529203
2.12274e-07
0.529204
5.73904e-07
0.529207
1.41032e-06
0.529214
3.30997e-06
0.529232
7.59215e-06
0.529271
1.72365e-05
0.529362
3.88214e-05
8.7764e-05
0.529574
0.529202
3.18258e-09
0.529202
1.99221e-08
0.529202
6.68341e-08
0.529202
1.80547e-07
0.529203
4.42937e-07
0.529206
1.03688e-06
0.529211
2.37017e-06
0.529223
5.35616e-06
0.52925
1.20025e-05
2.69085e-05
0.529311
0.529202
1.00223e-09
0.529202
6.26991e-09
0.529202
2.10223e-08
0.529202
5.6776e-08
0.529202
1.3928e-07
0.529203
3.26056e-07
0.529205
7.45405e-07
0.529208
1.68442e-06
0.529217
3.77618e-06
8.46234e-06
0.529235
0.529202
3.24157e-10
0.529202
2.02772e-09
0.529202
6.79842e-09
0.529202
1.8362e-08
0.529202
4.50517e-08
0.529202
1.05491e-07
0.529203
2.41242e-07
0.529204
5.4531e-07
0.529207
1.22314e-06
2.74067e-06
0.529212
0.529202
1.04712e-10
0.529202
6.55053e-10
0.529202
2.19642e-09
0.529202
5.93292e-09
0.529202
1.45581e-08
0.529202
3.40928e-08
0.529202
7.79763e-08
0.529203
1.76289e-07
0.529203
3.95483e-07
8.85947e-07
0.529205
0.529202
3.26499e-11
0.529202
2.04346e-10
0.529202
6.85461e-10
0.529202
1.85178e-09
0.529202
4.54357e-09
0.529202
1.06382e-08
0.529202
2.43241e-08
0.529202
5.4973e-08
0.529202
1.23263e-07
2.75868e-07
0.529203
0.529202
8.92677e-12
0.529202
5.59221e-11
0.529202
1.8773e-10
0.529202
5.07251e-10
0.529202
1.24433e-09
0.529202
2.91195e-09
0.529202
6.65344e-09
0.529202
1.50234e-08
0.529202
3.36592e-08
7.52483e-08
0.529202
0.529202
0.529202
0.529202
0.529202
0.529202
0.529202
0.529202
0.529202
0.529202
0.529202
0.642784
-0.11525
0.756019
-0.110491
0.855646
-0.101953
0.947471
-0.0942805
1.02402
-0.073188
1.06941
-0.0439075
1.06692
0.000324286
0.982033
0.0825425
0.887969
0.0936483
0.0655077
0.529709
-0.11506
0.527094
-0.108809
0.529198
-0.103508
0.53214
-0.0959485
0.548435
-0.0910045
0.57473
-0.0714598
0.619102
-0.04281
0.690677
0.0123494
0.722126
0.0627194
0.0941957
0.518997
-0.104464
0.512757
-0.102463
0.509548
-0.100439
0.510742
-0.0973381
0.514467
-0.094383
0.53216
-0.0889982
0.568796
-0.0795397
0.649522
-0.068434
0.757631
-0.0455112
0.0564229
0.5158
-0.0909294
0.503365
-0.0900388
0.492152
-0.0892344
0.482631
-0.0878271
0.474695
-0.0863919
0.470019
-0.0842977
0.47032
-0.0798662
0.473763
-0.0719702
0.485911
-0.0578399
-0.0344265
0.514499
-0.0761864
0.500305
-0.0758447
0.486571
-0.0755022
0.473627
-0.0748994
0.46151
-0.0742401
0.450482
-0.0732628
0.442377
-0.0717647
0.438608
-0.0682354
0.443079
-0.0623675
-0.0542894
0.5141
-0.0610735
0.499211
-0.0609529
0.484511
-0.0608049
0.470168
-0.0605618
0.45619
-0.0602479
0.442726
-0.059803
0.4301
-0.0591375
0.419765
-0.057912
0.412806
-0.0554253
-0.0520486
0.513973
-0.0458402
0.498822
-0.0458011
0.483755
-0.0457419
0.468835
-0.0456421
0.454087
-0.0454947
0.439573
-0.0452904
0.425408
-0.0449734
0.411961
-0.0444699
0.399998
-0.0434672
-0.0419866
0.513932
-0.0305693
0.498689
-0.0305578
0.483481
-0.0305349
0.46833
-0.0304916
0.453263
-0.0304258
0.438302
-0.0303304
0.423506
-0.0301784
0.408983
-0.0299483
0.395048
-0.0295334
-0.0288757
0.513919
-0.015286
0.498644
-0.0152825
0.483384
-0.0152748
0.46815
-0.0152588
0.452959
-0.0152337
0.43782
-0.0151919
0.42277
-0.0151295
0.407854
-0.0150332
0.393197
-0.0148766
-0.0146128
0.513916
0.498634
0.483359
0.4681
0.452866
0.437674
0.422544
0.407511
0.392634
)
;

boundaryField
{
    inlet
    {
        type            calculated;
        value           nonuniform List<scalar> 10(-0.529202 -0.529202 -0.529202 -0.529202 -0.529202 -0.529202 -0.529202 -0.529202 -0.529202 -0.529202);
    }
    sym
    {
        type            calculated;
        value           uniform 0;
    }
    wedge
    {
        type            calculated;
        value           nonuniform List<scalar> 10(-1.67325e-37 5.63819e-17 0 4.1347e-17 4.64246e-17 0 0 5.88736e-17 -5.67473e-17 5.33873e-17);
    }
    top
    {
        type            calculated;
        value           uniform 0;
    }
    back
    {
        type            empty;
    }
    front
    {
        type            empty;
    }
    outlet
    {
        type            calculated;
        value           nonuniform List<scalar> 10(0.822986 0.693841 0.795491 0.576073 0.462667 0.410477 0.389906 0.381925 0.378929 0.378018);
    }
}


// ************************************************************************* //
