/*--------------------------------*- C++ -*----------------------------------*\
| =========                 |                                                 |
| \\      /  F ield         | OpenFOAM: The Open Source CFD Toolbox           |
|  \\    /   O peration     | Version:  2412                                  |
|   \\  /    A nd           | Website:  www.openfoam.com                      |
|    \\/     M anipulation  |                                                 |
\*---------------------------------------------------------------------------*/
FoamFile
{
    version     2.0;
    format      ascii;
    arch        "LSB;label=32;scalar=64";
    class       volVectorField;
    location    "1.5";
    object      U;
}
// * * * * * * * * * * * * * * * * * * * * * * * * * * * * * * * * * * * * * //

dimensions      [0 1 -1 0 0 0 0];

internalField   nonuniform List<vector> 
200
(
(2.99999 6.12413e-07 0)
(2.99996 3.78037e-06 0)
(2.99989 1.25398e-05 0)
(2.99974 3.37915e-05 0)
(2.99941 8.32151e-05 0)
(2.99865 0.000196472 0)
(2.99693 0.000454947 0)
(2.993 0.00104533 0)
(2.98384 0.00240542 0)
(2.96319 0.00558836 0)
(3 8.00287e-07 0)
(2.99999 4.93956e-06 0)
(2.99997 1.63802e-05 0)
(2.99992 4.41167e-05 0)
(2.99982 0.000108554 0)
(2.99959 0.000256013 0)
(2.99907 0.000591914 0)
(2.99792 0.0013575 0)
(2.99528 0.00311154 0)
(2.99103 0.007192 0)
(3 2.48817e-07 0)
(3 1.53494e-06 0)
(2.99999 5.08321e-06 0)
(2.99997 1.36573e-05 0)
(2.99994 3.3481e-05 0)
(2.99987 7.85687e-05 0)
(2.99971 0.000180444 0)
(2.99936 0.000410579 0)
(2.99856 0.00092743 0)
(2.99723 0.00210567 0)
(3 7.96008e-08 0)
(3 4.90783e-07 0)
(3 1.62326e-06 0)
(2.99999 4.35177e-06 0)
(2.99998 1.06328e-05 0)
(2.99996 2.48368e-05 0)
(2.99991 5.67053e-05 0)
(2.9998 0.000128086 0)
(2.99955 0.000286738 0)
(2.99911 0.000642833 0)
(3 2.46622e-08 0)
(3 1.52055e-07 0)
(3 5.02921e-07 0)
(3 1.3483e-06 0)
(2.99999 3.29448e-06 0)
(2.99999 7.69571e-06 0)
(2.99997 1.7572e-05 0)
(2.99994 3.968e-05 0)
(2.99986 8.89116e-05 0)
(2.99971 0.000199266 0)
(3 7.95542e-09 0)
(3 4.90509e-08 0)
(3 1.62248e-07 0)
(3 4.35041e-07 0)
(3 1.06322e-06 0)
(3 2.48432e-06 0)
(2.99999 5.67446e-06 0)
(2.99998 1.28187e-05 0)
(2.99995 2.87332e-05 0)
(2.9999 6.43776e-05 0)
(3 2.58081e-09 0)
(3 1.59136e-08 0)
(3 5.26436e-08 0)
(3 1.41173e-07 0)
(3 3.45077e-07 0)
(3 8.06473e-07 0)
(3 1.84258e-06 0)
(2.99999 4.16343e-06 0)
(2.99999 9.33771e-06 0)
(2.99997 2.09221e-05 0)
(3 8.22935e-10 0)
(3 5.07435e-09 0)
(3 1.67864e-08 0)
(3 4.50145e-08 0)
(3 1.10026e-07 0)
(3 2.57119e-07 0)
(3 5.87382e-07 0)
(3 1.32711e-06 0)
(3 2.97541e-06 0)
(2.99999 6.66162e-06 0)
(3 2.43964e-10 0)
(3 1.50423e-09 0)
(3 4.97533e-09 0)
(3 1.33378e-08 0)
(3 3.25857e-08 0)
(3 7.61029e-08 0)
(3 1.73726e-07 0)
(3 3.9217e-07 0)
(3 8.78458e-07 0)
(3 1.96422e-06 0)
(3 5.08573e-11 0)
(3 3.13558e-10 0)
(3 1.03691e-09 0)
(3 2.77862e-09 0)
(3 6.78423e-09 0)
(3 1.58311e-08 0)
(3 3.61035e-08 0)
(3 8.14038e-08 0)
(3 1.82174e-07 0)
(3 4.06919e-07 0)
(2.89032 0.0261725 -1.12485e-21)
(2.81216 0.0745276 0)
(2.71883 0.139995 0)
(2.61521 0.238339 0)
(2.49292 0.352879 3.49727e-20)
(2.39214 0.498198 0)
(2.35743 0.612276 0)
(2.34974 0.682676 0)
(2.37131 0.700001 0)
(2.38844 0.699159 -2.45693e-20)
(2.97272 0.0268044 -1.3197e-20)
(2.94066 0.0804575 1.23714e-20)
(2.89188 0.159573 0)
(2.81941 0.292342 0)
(2.7203 0.45671 -1.30087e-20)
(2.57897 0.704035 0)
(2.40671 0.937665 0)
(2.21608 1.10023 0)
(2.14617 1.15544 0)
(2.17167 1.09396 0)
(2.99221 0.00614837 0)
(2.98382 0.0163645 -1.27852e-20)
(2.97049 0.031784 0)
(2.95016 0.0606085 0)
(2.92323 0.0998987 -3.0143e-20)
(2.87621 0.16827 1.4207e-20)
(2.79626 0.258918 0)
(2.65171 0.414224 1.64714e-20)
(2.41264 0.633556 0)
(2.27125 0.782537 2.06808e-20)
(2.99745 0.001939 0)
(2.9946 0.00521255 0)
(2.98992 0.0107835 0)
(2.98255 0.0214019 0)
(2.97226 0.0372868 1.45392e-20)
(2.95611 0.0620895 -1.58075e-20)
(2.92577 0.104414 0)
(2.86193 0.18486 -3.70187e-20)
(2.72375 0.334086 0)
(2.55739 0.640864 -3.20851e-20)
(2.99914 0.000635269 5.83244e-21)
(2.99812 0.00175767 6.00959e-21)
(2.99639 0.00377677 0)
(2.99365 0.007565 6.40259e-21)
(2.98967 0.0135457 6.62251e-21)
(2.9837 0.0228819 0)
(2.97339 0.0380569 0)
(2.95256 0.0667176 1.70866e-20)
(2.90818 0.126587 0)
(2.86186 0.260681 0)
(2.99971 0.00021531 -5.84561e-21)
(2.99934 0.000612326 -6.03036e-21)
(2.99869 0.00137219 0)
(2.99763 0.00282233 -6.45594e-21)
(2.99605 0.005202 -6.70384e-21)
(2.99366 0.00900275 0)
(2.98983 0.0149992 0)
(2.9826 0.0255639 0)
(2.96766 0.0463063 0)
(2.95365 0.0897245 0)
(2.9999 7.30321e-05 5.84962e-21)
(2.99978 0.000212407 0)
(2.99953 0.000497892 0)
(2.99912 0.00105975 0)
(2.99849 0.00201799 6.62468e-21)
(2.99752 0.00358382 0)
(2.99598 0.00608418 0)
(2.99327 0.0102367 0)
(2.98787 0.0179963 0)
(2.98316 0.0336468 7.96137e-21)
(2.99997 2.40983e-05 -2.93013e-21)
(2.99993 7.13674e-05 3.01771e-21)
(2.99984 0.000174824 0)
(2.99968 0.000388342 3.21107e-21)
(2.99943 0.000764994 -3.33023e-21)
(2.99903 0.00139969 3.43149e-21)
(2.99839 0.00243001 3.55404e-21)
(2.99729 0.00412812 0)
(2.99519 0.00714947 3.83145e-21)
(2.99347 0.0130538 -4.18293e-21)
(2.99999 7.34163e-06 -4.40166e-21)
(2.99997 2.20936e-05 -4.53443e-21)
(2.99994 5.62952e-05 0)
(2.99988 0.000130492 -4.82629e-21)
(2.99978 0.00026505 -1.66393e-21)
(2.9996 0.000500424 -5.16037e-21)
(2.9993 0.000888881 -3.56677e-21)
(2.9988 0.00153472 0)
(2.99786 0.00265097 -3.85496e-21)
(2.99715 0.00479202 -6.01928e-21)
(2.99999 1.57296e-06 1.46963e-21)
(2.99999 4.81902e-06 1.514e-21)
(2.99997 1.25297e-05 0)
(2.99994 2.98153e-05 1.61143e-21)
(2.99988 6.18581e-05 -1.66512e-21)
(2.99978 0.000120142 1.72268e-21)
(2.99959 0.000217664 0)
(2.99928 0.000382021 0)
(2.9987 0.000662379 0)
(2.99829 0.00119571 2.00427e-21)
)
;

boundaryField
{
    inlet
    {
        type            fixedValue;
        value           uniform (3 0 0);
    }
    sym
    {
        type            slip;
    }
    wedge
    {
        type            slip;
    }
    top
    {
        type            slip;
    }
    back
    {
        type            empty;
    }
    front
    {
        type            empty;
    }
    outlet
    {
        type            inletOutlet;
        inletValue      uniform (3 0 0);
        value           nonuniform List<vector> 10((2.38844 0.699159 -2.45693e-20) (2.17167 1.09396 0) (2.27125 0.782537 2.06808e-20) (2.55739 0.640864 -3.20851e-20) (2.86186 0.260681 0) (2.95365 0.0897245 0) (2.98316 0.0336468 7.96137e-21) (2.99347 0.0130538 -4.18293e-21) (2.99715 0.00479202 -6.01928e-21) (2.99829 0.00119571 2.00427e-21));
    }
}


// ************************************************************************* //
