/*--------------------------------*- C++ -*----------------------------------*\
| =========                 |                                                 |
| \\      /  F ield         | OpenFOAM: The Open Source CFD Toolbox           |
|  \\    /   O peration     | Version:  2412                                  |
|   \\  /    A nd           | Website:  www.openfoam.com                      |
|    \\/     M anipulation  |                                                 |
\*---------------------------------------------------------------------------*/
FoamFile
{
    version     2.0;
    format      ascii;
    arch        "LSB;label=32;scalar=64";
    class       volVectorField;
    location    "1.5";
    object      U;
}
// * * * * * * * * * * * * * * * * * * * * * * * * * * * * * * * * * * * * * //

dimensions      [0 1 -1 0 0 0 0];

internalField   nonuniform List<vector> 
200
(
(-15.5445 0.0299666 0)
(11.4763 0.432421 0)
(-7.20633 -0.0599644 0)
(5.30275 -0.750384 0)
(-2.40178 0.0184115 0)
(2.4492 -0.0142126 0)
(-0.627359 0.0301283 0)
(1.10642 0.0758532 0)
(0.161691 0.0481464 0)
(0.521374 0.0640123 0)
(-14.785 0.0237866 0)
(10.5367 0.387371 0)
(-5.09529 0.0041587 0)
(4.23398 -0.54576 0)
(-2.21365 0.116418 0)
(2.2187 0.0105347 0)
(-0.813947 0.050275 0)
(1.1184 0.0772654 0)
(0.0583832 0.0641833 0)
(0.545014 0.0755672 0)
(-14.8948 -0.0141235 0)
(10.6377 -0.208164 0)
(-5.30584 -0.0063822 0)
(4.33194 0.319073 0)
(-2.22239 -0.0366504 0)
(2.24182 0.0203375 0)
(-0.760656 0.0235095 0)
(1.10694 0.000495014 0)
(0.103299 0.0446187 0)
(0.544887 0.0417098 0)
(-15.1732 -0.0159312 0)
(10.9994 -0.351826 0)
(-6.17331 0.0691746 0)
(4.76063 0.62403 0)
(-2.28613 -0.0538814 0)
(2.33275 0.00222579 0)
(-0.68542 0.0126994 0)
(1.10528 -0.0167556 0)
(0.158455 0.0403956 0)
(0.549156 0.037956 0)
(-15.514 -0.000105909 0)
(11.463 0.0161745 0)
(-7.27309 -0.0358102 0)
(5.32446 -0.0363875 0)
(-2.32677 0.0226149 0)
(2.41567 0.0200294 0)
(-0.571372 0.0352462 0)
(1.08925 0.0235422 0)
(0.230242 0.0438234 0)
(0.549569 0.0460306 0)
(-15.1471 0.0452465 0)
(10.9404 0.569587 0)
(-5.91012 -0.00965604 0)
(4.63146 -0.881848 0)
(-2.22851 0.132313 0)
(2.30972 0.0561612 0)
(-0.640965 0.0596557 0)
(1.08958 0.127751 0)
(0.199401 0.0643349 0)
(0.553333 0.0839613 0)
(-14.4194 -0.0032896 0)
(10.1435 -0.19402 0)
(-4.19261 -0.0143537 0)
(3.82513 0.179628 0)
(-2.20029 -0.0737372 0)
(2.13722 -0.0054128 0)
(-0.897409 0.00753406 0)
(1.13381 0.00764619 0)
(0.0434839 0.0295795 0)
(0.556919 0.0329338 0)
(-15.3951 -0.0622029 0)
(11.285 -0.903937 0)
(-6.81605 0.160775 0)
(5.04885 1.54952 0)
(-2.29475 -0.0568986 0)
(2.39672 0.0183386 0)
(-0.578378 -0.0143721 0)
(1.09175 -0.11091 0)
(0.236366 -0.00900502 0)
(0.554053 -0.0258211 0)
(-16.1301 0.0508951 0)
(12.1757 0.540632 0)
(-8.86055 -0.113497 0)
(6.17364 -1.02993 0)
(-2.49605 -0.062775 0)
(2.56167 -0.0071195 0)
(-0.440841 0.0310898 0)
(1.0837 0.0965802 0)
(0.330287 0.0396202 0)
(0.561361 0.0546669 0)
(-14.3452 0.0738797 0)
(10.0962 0.916715 0)
(-4.01478 0.0532218 0)
(3.7569 -1.38515 0)
(-2.15389 0.318678 0)
(2.12833 0.0285149 0)
(-0.873387 0.0484432 0)
(1.12422 0.142025 0)
(0.056176 0.0394668 0)
(0.556387 0.0614643 0)
(0.363688 0.105485 -5.51927e-22)
(0.442163 0.12605 0)
(0.466478 0.140824 0)
(0.482597 0.152942 0)
(0.497417 0.16328 1.1342e-17)
(0.51185 0.172263 0)
(0.526284 0.18035 0)
(0.541318 0.187955 0)
(0.555009 0.195377 0)
(0.58795 0.203659 -6.76248e-18)
(0.391256 0.123313 -5.00483e-18)
(0.45007 0.13877 5.14997e-18)
(0.469296 0.149506 0)
(0.483511 0.158377 0)
(0.497987 0.165443 1.0929e-22)
(0.513446 0.170679 0)
(0.530247 0.174695 0)
(0.54862 0.178351 0)
(0.566949 0.182406 0)
(0.6046 0.188141 0)
(0.421442 0.0850015 0)
(0.460293 0.101261 -5.14775e-18)
(0.479823 0.114064 0)
(0.496318 0.125417 0)
(0.512665 0.134808 -1.13383e-17)
(0.529244 0.142425 5.86255e-18)
(0.546901 0.148944 0)
(0.566087 0.154922 6.27891e-18)
(0.585276 0.160841 0)
(0.622156 0.166828 6.76059e-18)
(0.458006 0.0829318 0)
(0.473729 0.102642 0)
(0.48855 0.115886 0)
(0.502452 0.126436 0)
(0.516827 0.13392 5.66733e-18)
(0.532998 0.139144 -5.86213e-18)
(0.551234 0.143043 0)
(0.571396 0.146137 -1.25637e-17)
(0.591669 0.148848 0)
(0.63053 0.151286 -6.76097e-18)
(0.483269 0.0716871 2.50002e-18)
(0.477817 0.0842839 2.57343e-18)
(0.490459 0.0930102 0)
(0.506816 0.100128 2.73839e-18)
(0.523495 0.105738 2.83253e-18)
(0.541576 0.1101 0)
(0.561448 0.11367 0)
(0.583005 0.116826 6.28297e-18)
(0.604596 0.119901 0)
(0.643414 0.123207 0)
(0.486288 0.0751006 -2.50057e-18)
(0.483489 0.0803525 -2.57364e-18)
(0.497689 0.0873949 0)
(0.514598 0.0930135 -2.73685e-18)
(0.531478 0.0973189 -2.83098e-18)
(0.549754 0.100525 0)
(0.569865 0.103033 0)
(0.591587 0.105161 0)
(0.613291 0.107091 0)
(0.652308 0.108967 0)
(0.439359 0.0477346 2.5016e-18)
(0.472833 0.0573171 0)
(0.495806 0.0637695 0)
(0.516258 0.0682523 0)
(0.535726 0.0712146 2.82979e-18)
(0.555823 0.0731608 0)
(0.577307 0.0746045 0)
(0.600073 0.0758644 0)
(0.622674 0.0770976 0)
(0.661983 0.0784919 3.38037e-18)
(0.503733 0.0200151 -1.24991e-18)
(0.493836 0.0364579 1.28678e-18)
(0.507858 0.0451534 0)
(0.526254 0.051167 1.36753e-18)
(0.544567 0.0549068 -1.41413e-18)
(0.564139 0.0572269 1.46412e-18)
(0.585368 0.0588636 1.51614e-18)
(0.607852 0.0602012 0)
(0.630095 0.0614193 1.62924e-18)
(0.668988 0.0626134 -1.69027e-18)
(0.532011 0.036317 -1.87428e-18)
(0.504206 0.0326561 -1.92989e-18)
(0.513995 0.0322487 0)
(0.531283 0.0320168 -2.05085e-18)
(0.549138 0.0319029 -7.0683e-19)
(0.568674 0.0318279 -2.19574e-18)
(0.590104 0.0318048 -1.51599e-18)
(0.612862 0.031865 0)
(0.635433 0.0320328 -1.62939e-18)
(0.674448 0.032351 -2.53559e-18)
(0.450829 0.0279723 6.25393e-19)
(0.480794 0.0192635 6.43634e-19)
(0.505924 0.0161485 0)
(0.528737 0.0143476 6.83649e-19)
(0.549744 0.0136262 -7.06752e-19)
(0.57084 0.0135446 7.31848e-19)
(0.592913 0.0137846 0)
(0.615832 0.014176 0)
(0.638301 0.0146169 0)
(0.677132 0.0150362 8.4525e-19)
)
;

boundaryField
{
    inlet
    {
        type            fixedValue;
        value           uniform (3 0 0);
    }
    sym
    {
        type            slip;
    }
    wedge
    {
        type            slip;
    }
    top
    {
        type            slip;
    }
    back
    {
        type            empty;
    }
    front
    {
        type            empty;
    }
    outlet
    {
        type            inletOutlet;
        inletValue      uniform (3 0 0);
        value           nonuniform List<vector> 10((0.58795 0.203659 -6.76248e-18) (0.6046 0.188141 0) (0.622156 0.166828 6.76059e-18) (0.63053 0.151286 -6.76097e-18) (0.643414 0.123207 0) (0.652308 0.108967 0) (0.661983 0.0784919 3.38037e-18) (0.668988 0.0626134 -1.69027e-18) (0.674448 0.032351 -2.53559e-18) (0.677132 0.0150362 8.4525e-19));
    }
}


// ************************************************************************* //
