/*--------------------------------*- C++ -*----------------------------------*\
| =========                 |                                                 |
| \\      /  F ield         | OpenFOAM: The Open Source CFD Toolbox           |
|  \\    /   O peration     | Version:  2412                                  |
|   \\  /    A nd           | Website:  www.openfoam.com                      |
|    \\/     M anipulation  |                                                 |
\*---------------------------------------------------------------------------*/
FoamFile
{
    version     2.0;
    format      ascii;
    arch        "LSB;label=32;scalar=64";
    class       volScalarField;
    location    "9.5";
    object      p;
}
// * * * * * * * * * * * * * * * * * * * * * * * * * * * * * * * * * * * * * //

dimensions      [1 -1 -2 0 0 0 0];

internalField   nonuniform List<scalar> 
200
(
1.18217
0.872584
1.07937
0.933654
1.04505
0.983914
1.01005
1.00402
1.0031
1.00364
1.17998
0.847518
1.06335
0.987161
1.00677
0.998992
1.00019
1.00059
1.00102
1.00152
1.18237
0.849451
1.06394
0.990721
1.01308
0.993883
1.00283
0.999371
1.00151
1.00182
1.18314
0.872502
1.04431
0.948929
1.02845
0.980215
1.00512
0.994812
0.99961
1.00011
1.1809
0.887503
1.04908
0.946058
1.03171
0.983089
1.00783
0.997549
1.00071
1.00057
1.21431
0.925769
1.02752
0.979605
0.994027
0.989784
0.994286
0.995341
0.997579
0.998905
1.2115
0.88283
1.07332
0.964342
1.00701
0.988962
0.994546
0.993942
0.995164
0.996515
1.21892
0.850928
1.06132
0.940656
1.0222
0.968197
1.01009
0.978341
1.00479
0.990487
1.21307
0.818375
1.07522
0.951506
1.0053
0.988612
0.991769
0.991376
0.993405
0.99543
1.21528
0.826923
1.09667
0.987083
0.994797
0.998128
0.998677
0.997935
0.998509
0.9996
1.00395
1.00327
1.0029
1.00254
1.0022
1.00191
1.00174
1.00173
1.00181
1.0019
1.00195
1.00221
1.00219
1.00193
1.00179
1.00171
1.00178
1.00195
1.00213
1.00227
1.00247
1.0027
1.0026
1.00251
1.00246
1.00242
1.00249
1.00261
1.00274
1.00287
1.00143
1.00203
1.00224
1.00233
1.00249
1.00272
1.00301
1.00327
1.0035
1.00367
1.00134
1.00191
1.00242
1.00285
1.00323
1.00359
1.00394
1.00422
1.00443
1.00458
1.00065
1.00123
1.00212
1.00291
1.0036
1.00419
1.00467
1.00502
1.00525
1.00545
0.998965
1.00015
1.00215
1.00318
1.00413
1.00487
1.00543
1.00582
1.00609
1.00625
1.00453
0.999121
1.00305
1.00361
1.00468
1.0055
1.0061
1.00649
1.00669
1.00688
0.998721
1.00024
1.00235
1.00383
1.0051
1.00607
1.00675
1.00714
1.00725
1.00736
1.00104
1.00204
1.00337
1.00462
1.00569
1.00654
1.00713
1.00748
1.00758
1.00763
)
;

boundaryField
{
    inlet
    {
        type            fixedValue;
        value           uniform 1;
    }
    sym
    {
        type            slip;
    }
    wedge
    {
        type            slip;
    }
    top
    {
        type            slip;
    }
    back
    {
        type            empty;
    }
    front
    {
        type            empty;
    }
    outlet
    {
        type            zeroGradient;
    }
}


// ************************************************************************* //
