/*--------------------------------*- C++ -*----------------------------------*\
| =========                 |                                                 |
| \\      /  F ield         | OpenFOAM: The Open Source CFD Toolbox           |
|  \\    /   O peration     | Version:  2412                                  |
|   \\  /    A nd           | Website:  www.openfoam.com                      |
|    \\/     M anipulation  |                                                 |
\*---------------------------------------------------------------------------*/
FoamFile
{
    version     2.0;
    format      ascii;
    arch        "LSB;label=32;scalar=64";
    class       surfaceScalarField;
    location    "9.5";
    object      phi;
}
// * * * * * * * * * * * * * * * * * * * * * * * * * * * * * * * * * * * * * //

dimensions      [1 0 -1 0 0 0 0];

oriented        oriented;

internalField   nonuniform List<scalar> 
370
(
8.12751e-06
0.000133604
-0.000229987
0.000242313
-0.00019567
-3.04749e-05
0.000309409
-0.000504451
0.000324934
-1.36281e-05
0.000477873
-0.000151034
0.000505598
-2.53988e-05
0.00050783
6.64199e-07
0.000494496
1.64062e-05
2.99244e-05
0.000467478
0.000306562
-4.7961e-05
0.000703314
-0.000154485
0.000837159
-0.000163925
0.000480366
-0.000146865
0.000619597
-0.0001521
0.000485502
-1.62456e-05
0.000477832
-1.70812e-05
0.000402774
7.7737e-05
0.000321707
0.00010069
0.000111619
0.000243139
0.00032311
-0.000249016
0.000717279
-0.00054422
0.000649908
-9.72181e-05
0.00024987
0.000251167
0.000297088
-0.000199034
0.000182785
9.8959e-05
0.000149828
1.62626e-05
9.78031e-05
0.00013175
5.34184e-05
0.00014693
0.000152064
1.49423e-05
0.00024513
-0.000345701
0.000146464
-0.000443947
-9.10627e-05
0.000141488
1.83934e-05
0.000139557
-0.000297624
0.000118988
-0.000299176
9.953e-05
-0.000401625
0.000117223
-0.000379962
0.000110829
-0.000348894
0.000116084
0.00010545
-0.000301479
9.77698e-05
-0.000326795
-0.000140788
-0.000208026
-0.000217851
0.000220566
-8.07429e-05
1.95817e-06
-0.000347467
0.000383677
-0.000334857
8.78814e-05
-0.000424961
0.000205308
-0.000430334
0.00011651
-0.000422635
0.000107872
7.38719e-05
-0.000391012
-0.00069524
0.000171226
-0.00123564
0.000332277
-0.000997624
-1.73851e-05
-0.00119871
0.000202698
-0.000874588
5.93218e-05
-0.000884926
9.81474e-05
-0.000729079
4.89579e-05
-0.000672552
5.96498e-05
-0.000562607
-2.6315e-06
2.71224e-06
-0.000491975
-0.000250243
0.000331178
-0.000412805
0.000500729
-0.000563559
0.000133182
-0.000682263
0.000320305
-0.000583742
-3.89572e-05
-0.000604334
0.000116696
-0.000554315
-2.1911e-06
-0.000506578
1.04763e-05
-0.000417184
-9.34687e-05
-5.11624e-05
-0.000364628
8.11111e-05
0.000315394
-0.000101989
0.000689868
-0.000253399
0.000282493
-5.84384e-05
0.00012656
-0.000161161
6.30086e-05
4.55671e-05
-9.37305e-05
4.2842e-06
3.73006e-05
0.000140781
-0.000126896
9.20698e-05
-5.00779e-05
-0.000126321
0.000165998
0.000269655
0.000167684
0.000553378
0.000435169
0.000484811
0.000345286
0.000590397
1.06384e-05
0.000538548
0.000129981
0.0004689
-2.32042e-05
0.000498326
7.88938e-06
0.000445978
-7.94072e-05
0.000456897
-7.12522e-05
-9.61129e-05
0.000416853
0.000249712
0.000690496
0.0010257
0.00103594
0.00116397
0.00115048
0.0012093
0.0011593
0.00108911
0.000961275
0.00043036
4.25799e-05
0.000384216
5.15271e-05
0.000365658
2.49346e-05
0.000352759
1.94993e-05
0.000340743
1.84185e-05
0.000325262
2.11596e-05
0.000304052
2.62207e-05
0.000280511
2.77854e-05
0.000257824
2.61924e-05
2.01714e-05
8.6355e-05
0.000204959
-6.49767e-07
0.000144042
-2.85291e-05
5.90832e-05
-2.09501e-05
1.82111e-05
1.85639e-06
1.69164e-06
3.30877e-05
-5.00994e-06
6.06433e-05
3.1737e-06
7.95251e-05
1.25826e-05
8.88048e-05
1.99257e-05
2.23257e-05
-5.96914e-05
0.000283384
-7.52107e-05
0.000164165
-7.1584e-05
6.05326e-05
-4.77803e-05
-6.61078e-07
-2.2339e-05
-1.92827e-05
-2.94176e-07
-2.30074e-05
1.94759e-05
-1.33492e-05
3.40475e-05
5.48399e-07
4.19996e-05
1.41257e-05
2.33483e-05
-0.000242124
0.000226299
-0.000185568
0.000110633
-0.000129983
8.02453e-06
-8.7e-05
-4.08559e-05
-4.90903e-05
-5.47687e-05
-2.06112e-05
-4.93488e-05
2.16615e-06
-3.43617e-05
1.89047e-05
-1.46884e-05
2.98498e-05
4.41795e-06
2.10523e-05
-0.00030675
0.00014252
-0.000202792
7.60233e-06
-0.000112523
-8.11117e-05
-4.90686e-05
-0.000103243
-5.29084e-06
-9.76552e-05
2.48205e-05
-7.87319e-05
4.69974e-05
-5.59908e-05
5.98148e-05
-2.71266e-05
6.25692e-05
1.87452e-06
2.32775e-05
-0.000299522
-5.11152e-05
-0.000189912
-0.000102179
-0.000116079
-0.000154783
-5.83491e-05
-0.000161018
-1.35363e-05
-0.000142727
2.2038e-05
-0.000114769
5.12012e-05
-8.57164e-05
6.94896e-05
-4.60166e-05
7.31439e-05
-2.38442e-06
2.21044e-05
-0.000186847
-0.000231916
-0.000112254
-0.000179096
-6.30752e-05
-0.000206096
-3.19534e-05
-0.000193869
-6.82109e-06
-0.000169471
1.83188e-05
-0.000141486
4.5956e-05
-0.000115005
6.94881e-05
-7.11967e-05
7.92462e-05
-1.36679e-05
1.80606e-05
7.31459e-05
-0.000147053
0.000103161
-0.000213033
6.43902e-05
-0.000172182
3.85745e-05
-0.00017135
2.48871e-05
-0.000158754
2.35115e-05
-0.00014281
3.38016e-05
-0.00012771
4.89016e-05
-8.87502e-05
5.21046e-05
-1.91116e-05
1.34859e-05
0.000397333
-0.000135781
0.000303519
-0.000125042
0.000231292
-0.000106104
0.000162172
-0.000107045
0.000107864
-0.000108219
6.64841e-05
-0.000104714
3.65104e-05
-0.000100486
1.88904e-05
-7.38355e-05
1.09411e-05
-1.38372e-05
1.10205e-05
0.000783334
0.000644573
0.000530173
0.000416975
0.000304392
0.000196012
9.22901e-05
1.56856e-05
-1.01201e-06
)
;

boundaryField
{
    inlet
    {
        type            calculated;
        value           nonuniform List<scalar> 10(-0.000140893 -0.000124786 -0.000126252 -0.000150138 -0.000118804 0.000194608 8.61451e-05 -8.1997e-05 -0.000107755 -0.000103458);
    }
    sym
    {
        type            calculated;
        value           uniform 0;
    }
    wedge
    {
        type            calculated;
        value           nonuniform List<scalar> 10(4.82818e-20 -2.40751e-20 -2.40435e-20 2.40323e-20 2.40231e-20 -2.40106e-20 2.3997e-20 2.39939e-20 -2.39939e-20 1.19991e-20);
    }
    top
    {
        type            calculated;
        value           uniform 0;
    }
    back
    {
        type            empty;
    }
    front
    {
        type            empty;
    }
    outlet
    {
        type            calculated;
        value           nonuniform List<scalar> 10(0.000240617 8.92125e-05 4.28455e-05 3.31946e-05 6.05223e-05 7.36372e-05 8.18531e-05 5.46291e-05 1.09354e-05 7.32308e-06);
    }
}


// ************************************************************************* //
