/*--------------------------------*- C++ -*----------------------------------*\
| =========                 |                                                 |
| \\      /  F ield         | OpenFOAM: The Open Source CFD Toolbox           |
|  \\    /   O peration     | Version:  2412                                  |
|   \\  /    A nd           | Website:  www.openfoam.com                      |
|    \\/     M anipulation  |                                                 |
\*---------------------------------------------------------------------------*/
FoamFile
{
    version     2.0;
    format      ascii;
    arch        "LSB;label=32;scalar=64";
    class       volVectorField;
    location    "9.5";
    object      U;
}
// * * * * * * * * * * * * * * * * * * * * * * * * * * * * * * * * * * * * * //

dimensions      [0 1 -1 0 0 0 0];

internalField   nonuniform List<vector> 
200
(
(-21.6014 0.525392 0)
(15.4651 1.77667 0)
(-11.4627 -1.07342 0)
(7.09745 -3.65412 0)
(-2.98179 -0.545734 0)
(3.03203 -1.22823 0)
(0.401981 -0.670094 0)
(1.24211 -0.497295 0)
(1.25406 -0.383956 0)
(1.11829 -0.258734 0)
(-16.5708 0.394541 0)
(11.0162 0.788835 0)
(-1.61976 0.627989 0)
(2.66874 -1.01068 0)
(0.731735 0.207393 0)
(1.37732 -0.151454 0)
(1.13837 0.260881 0)
(0.99693 0.492585 0)
(0.826941 0.533048 0)
(0.664485 0.550223 0)
(-16.5958 -0.726144 0)
(11.2736 -3.10159 0)
(-2.19718 -2.15129 0)
(2.76317 -0.758547 0)
(-0.704966 -1.62628 0)
(1.33003 -0.100008 0)
(-0.0678751 -0.387611 0)
(0.485798 0.494055 0)
(0.0884697 0.72181 0)
(0.105867 0.832074 0)
(-19.0944 -1.11602 0)
(14.2362 -3.33727 0)
(-9.11294 0.834537 0)
(6.20576 2.85717 0)
(-4.34866 -0.235908 0)
(1.85552 0.987417 0)
(-2.29358 0.552835 0)
(-0.230886 0.833564 0)
(-1.09894 0.819847 0)
(-0.662062 0.787156 0)
(-18.6184 -1.84579 0)
(13.2225 -2.57805 0)
(-9.62809 1.00944 0)
(6.05756 -0.923214 0)
(-4.52624 1.80336 0)
(1.71714 0.363032 0)
(-2.27705 0.970488 0)
(-0.36073 0.616288 0)
(-1.21998 0.638242 0)
(-0.871348 0.51666 0)
(-13.0886 -0.264307 0)
(4.07633 0.747245 0)
(-5.46949 0.657338 0)
(-1.15291 1.14213 0)
(-2.9944 1.54284 0)
(-1.65482 0.805984 0)
(-2.00406 1.00508 0)
(-1.51678 0.620007 0)
(-1.44411 0.502263 0)
(-1.1623 0.284718 0)
(-17.853 1.44002 0)
(9.9204 2.47744 0)
(-7.06449 -0.594206 0)
(2.07559 0.870494 0)
(-3.28668 -0.638782 0)
(-0.442672 0.479427 0)
(-1.70904 -0.486333 0)
(-1.11693 0.200081 0)
(-1.09425 -0.561366 0)
(-0.832297 -0.240515 0)
(-23.1817 1.05511 0)
(16.7994 4.1279 0)
(-12.0324 1.46797 0)
(7.97331 2.48803 0)
(-6.26877 0.391518 0)
(4.21628 0.446937 0)
(-3.02323 0.570352 0)
(2.2877 -0.185335 0)
(-1.0253 -0.230074 0)
(1.05905 -0.484926 0)
(-21.3731 0.79927 0)
(14.9987 3.82359 0)
(-5.83477 1.64671 0)
(5.14061 -0.918637 0)
(-0.352869 0.0743062 0)
(1.69953 -1.20311 0)
(0.894279 -0.384046 0)
(1.08041 -0.962623 0)
(1.04566 -0.551896 0)
(1.00884 -0.799468 0)
(-19.8231 0.372295 0)
(13.1266 2.78856 0)
(-2.42134 2.14125 0)
(3.67147 1.1788 0)
(2.72727 1.24997 0)
(2.57116 0.898833 0)
(2.56613 0.540528 0)
(2.54 0.207529 0)
(2.40698 -0.0371349 0)
(2.22331 -0.146628 0)
(0.982879 -0.0283982 -4.90804e-21)
(0.969872 0.0760902 0)
(0.928837 0.136332 0)
(0.911004 0.204125 0)
(0.913566 0.264365 1.12385e-17)
(0.911882 0.314967 0)
(0.894433 0.342424 0)
(0.860139 0.350475 0)
(0.818939 0.343966 0)
(0.776574 0.323498 -6.75975e-18)
(0.331271 0.654308 -4.95038e-18)
(0.0891518 0.524717 5.16474e-18)
(-0.0911116 0.256197 0)
(-0.0643277 0.162726 0)
(-0.0404749 0.107477 7.38175e-22)
(0.0485532 0.101847 0)
(0.138408 0.131288 0)
(0.210477 0.151162 0)
(0.260124 0.1579 0)
(0.287921 0.145984 0)
(-0.0904358 0.692513 0)
(-0.184531 0.350809 -5.14583e-18)
(-0.19669 0.0398749 0)
(-0.155655 -0.0984348 0)
(-0.0897926 -0.12797 -1.13834e-17)
(-0.0313692 -0.116387 5.89571e-18)
(0.0293431 -0.0562069 0)
(0.0814734 0.0145744 6.32985e-18)
(0.118615 0.0694005 0)
(0.138435 0.10276 6.82059e-18)
(-0.653314 0.648509 0)
(-0.525538 0.352344 0)
(-0.399391 0.122226 0)
(-0.269774 -0.0176812 0)
(-0.174185 -0.0705554 5.67759e-18)
(-0.0901677 -0.0669062 -5.88236e-18)
(-0.0228046 -0.0299864 0)
(0.0350615 0.0144833 -1.26736e-17)
(0.0751012 0.0562067 0)
(0.107316 0.0924279 -6.82156e-18)
(-0.83138 0.387645 2.45262e-18)
(-0.613024 0.069576 2.5472e-18)
(-0.380384 -0.236607 0)
(-0.192862 -0.29155 2.7417e-18)
(-0.0640688 -0.267675 2.84211e-18)
(0.0350352 -0.20489 0)
(0.104416 -0.132859 0)
(0.161935 -0.0477685 6.3167e-18)
(0.18934 0.0320097 0)
(0.194897 0.0950291 0)
(-0.94832 0.0848477 -2.44725e-18)
(-0.53224 -0.238759 -2.54665e-18)
(-0.377185 -0.399426 0)
(-0.212752 -0.409519 -2.7388e-18)
(-0.0939692 -0.351114 -2.84107e-18)
(0.0192675 -0.259581 0)
(0.104212 -0.166405 0)
(0.184891 -0.0534849 0)
(0.21999 0.0498855 0)
(0.236581 0.113207 0)
(-0.693356 -0.687173 2.47112e-18)
(-0.268974 -0.478084 0)
(-0.232762 -0.589739 0)
(-0.109186 -0.555335 0)
(-0.0557448 -0.481341 2.85157e-18)
(0.0171637 -0.387807 0)
(0.0845889 -0.292977 0)
(0.174818 -0.15356 0)
(0.231119 0.00375238 0)
(0.262968 0.0874881 3.41327e-18)
(-0.35713 -0.522677 -1.23029e-18)
(0.512313 -0.561442 1.27805e-18)
(0.124304 -0.542833 0)
(0.142938 -0.53743 1.37593e-18)
(0.0729116 -0.491036 -1.42464e-18)
(0.0582459 -0.42582 1.47668e-18)
(0.0693177 -0.364618 1.52706e-18)
(0.121823 -0.235623 0)
(0.156641 -0.0450233 1.64851e-18)
(0.175424 0.0601344 -1.71105e-18)
(0.900256 -0.469565 -1.83015e-18)
(0.854717 -0.566053 -1.88731e-18)
(0.664361 -0.472786 0)
(0.498915 -0.448936 -2.05033e-18)
(0.34532 -0.414458 -7.0923e-19)
(0.226418 -0.370842 -2.20904e-18)
(0.137262 -0.338828 -1.52574e-18)
(0.0677504 -0.243832 0)
(0.0358206 -0.0441624 -1.65154e-18)
(0.0349741 0.0352826 -2.57692e-18)
(1.90531 -0.0701788 5.8845e-19)
(1.68449 0.00155711 6.20505e-19)
(1.46034 -0.00196742 0)
(1.21753 -0.0647318 6.75987e-19)
(0.95074 -0.133043 -7.03532e-19)
(0.678853 -0.181616 7.32317e-19)
(0.402919 -0.215778 0)
(0.116389 -0.168254 0)
(-0.0295308 -0.0310812 0)
(0.0233849 0.0325865 8.59097e-19)
)
;

boundaryField
{
    inlet
    {
        type            fixedValue;
        value           uniform (3 0 0);
    }
    sym
    {
        type            slip;
    }
    wedge
    {
        type            slip;
    }
    top
    {
        type            slip;
    }
    back
    {
        type            empty;
    }
    front
    {
        type            empty;
    }
    outlet
    {
        type            inletOutlet;
        inletValue      uniform (3 0 0);
        value           nonuniform List<vector> 10((0.776574 0.323498 -6.75975e-18) (0.287921 0.145984 0) (0.138435 0.10276 6.82059e-18) (0.107316 0.0924279 -6.82156e-18) (0.194897 0.0950291 0) (0.236581 0.113207 0) (0.262968 0.0874881 3.41327e-18) (0.175424 0.0601344 -1.71105e-18) (0.0349741 0.0352826 -2.57692e-18) (0.0233849 0.0325865 8.59097e-19));
    }
}


// ************************************************************************* //
