/*--------------------------------*- C++ -*----------------------------------*\
| =========                 |                                                 |
| \\      /  F ield         | OpenFOAM: The Open Source CFD Toolbox           |
|  \\    /   O peration     | Version:  2412                                  |
|   \\  /    A nd           | Website:  www.openfoam.com                      |
|    \\/     M anipulation  |                                                 |
\*---------------------------------------------------------------------------*/
FoamFile
{
    version     2.0;
    format      ascii;
    arch        "LSB;label=32;scalar=64";
    class       volScalarField;
    location    "0.0035";
    object      ddt0(rho,K);
}
// * * * * * * * * * * * * * * * * * * * * * * * * * * * * * * * * * * * * * //

dimensions      [1 -1 -3 0 0 0 0];

internalField   nonuniform List<scalar> 
180000
(
1.56074e-05
1.4749e-05
6.37218e-06
-5.52115e-06
3.0186e-06
-3.94707e-05
1.11827e-05
1.0742e-05
-3.68151e-06
-2.27555e-05
-2.25929e-05
3.26212e-05
2.86782e-05
-6.41383e-05
1.03032e-06
-2.60302e-05
-3.16649e-06
-1.62552e-05
-1.52632e-05
3.62759e-05
1.04532e-05
8.62096e-06
1.55976e-05
2.02382e-05
1.41301e-05
3.71858e-06
-1.35393e-05
-3.25785e-05
9.2733e-06
-1.60758e-05
-1.53726e-05
2.22697e-05
4.09575e-05
-2.80301e-05
1.08366e-05
6.75528e-05
-2.50309e-05
-8.07122e-06
3.59e-05
-3.10664e-06
1.90422e-05
2.09125e-05
5.02568e-06
6.6266e-05
4.01688e-05
-1.59658e-05
-8.78737e-06
-1.82434e-05
-3.65395e-05
-3.89137e-06
-2.3558e-06
3.39169e-05
-9.66178e-06
-3.41307e-05
-1.88349e-05
5.08127e-05
5.73277e-05
-1.70543e-05
3.88986e-05
1.05822e-05
-3.52033e-05
-2.44062e-05
-1.48762e-05
1.73928e-05
-2.34732e-05
-2.22491e-05
-2.22593e-06
5.27114e-05
6.96042e-05
1.73554e-05
2.10024e-06
2.12923e-05
2.9724e-05
2.79326e-05
-4.01875e-05
-3.63804e-06
-1.95661e-05
-2.49962e-05
1.2719e-05
-6.09307e-06
-2.96542e-05
2.44785e-05
4.03916e-05
2.55216e-05
2.99198e-05
-1.8637e-06
-6.14636e-06
1.1107e-05
3.82999e-05
1.72159e-06
-2.81488e-05
6.35018e-07
3.35958e-06
-2.09155e-05
4.71085e-05
3.47556e-06
-3.10187e-05
-2.5013e-05
-2.44753e-05
-1.86106e-05
3.82417e-06
-8.28156e-06
-6.03599e-06
-4.15257e-05
5.01e-05
1.59063e-05
2.6346e-05
2.08168e-05
-4.48789e-05
-3.81194e-05
-3.31316e-05
-2.27052e-05
3.17065e-05
-5.7373e-05
-7.18815e-06
1.80104e-05
1.97912e-05
9.64909e-07
2.24792e-05
2.90431e-07
-8.60997e-06
-3.63544e-05
-6.18081e-06
-1.8327e-05
-3.55539e-05
6.28405e-06
2.28196e-05
1.44166e-05
-4.32732e-06
-1.20595e-05
-2.45718e-05
-1.09803e-05
1.82294e-05
1.23328e-05
-5.08589e-05
2.87505e-05
6.40754e-06
1.0608e-05
-1.3628e-05
1.20444e-05
-7.69016e-06
-2.46969e-05
3.28977e-05
1.078e-05
4.46334e-05
-1.10273e-07
-2.26758e-05
1.73671e-05
-2.11036e-05
-1.21352e-06
5.68542e-05
4.33888e-05
-7.32143e-06
-6.71208e-05
1.75327e-05
7.47282e-06
1.23333e-05
-7.56465e-06
1.68976e-05
4.16534e-05
-4.30681e-06
-4.5039e-06
4.0373e-05
-1.5872e-05
5.01661e-05
5.20561e-05
-9.65213e-06
3.13242e-05
2.30323e-05
-7.48689e-05
-3.21551e-05
4.48765e-05
-2.28011e-05
-7.24985e-05
6.62385e-06
-2.46788e-05
-5.40129e-05
-4.33334e-06
1.68549e-05
6.09985e-06
-3.46979e-05
3.34709e-05
-1.77619e-05
-2.04145e-05
-2.91426e-05
-3.28137e-05
6.38876e-06
4.37322e-05
3.88655e-05
3.97089e-05
-1.36036e-05
-1.0212e-05
-3.39465e-05
-3.97798e-05
1.8932e-05
-3.15175e-05
-5.38658e-05
-5.27631e-06
1.09221e-05
-3.58953e-05
4.08907e-05
4.91774e-05
2.64895e-05
-6.45042e-05
-2.9938e-05
-1.34082e-05
9.62492e-06
7.74394e-06
-1.58104e-05
1.829e-05
7.01778e-06
-2.32886e-06
-6.77865e-06
-1.77589e-05
3.87111e-05
6.43339e-05
2.21456e-05
2.86224e-05
2.0404e-05
-2.00877e-05
-4.07657e-05
-4.08816e-05
-3.72511e-05
-4.25143e-06
1.51062e-05
-3.03839e-06
1.56605e-05
-3.53096e-05
2.76905e-05
3.38422e-05
3.71051e-05
-7.87098e-06
4.05403e-05
-2.59768e-05
-2.51664e-05
-1.35316e-05
4.39268e-06
-1.36249e-05
6.0904e-05
2.07958e-05
5.13504e-05
5.38938e-05
1.1051e-05
-7.53328e-06
1.14606e-05
1.10924e-06
-5.54455e-05
5.85098e-05
-7.81198e-06
-3.6377e-05
-2.79696e-05
2.03686e-07
-2.90259e-05
1.03802e-05
2.33764e-05
-2.79342e-05
-8.70566e-06
4.60469e-05
7.12495e-05
0.00015387
0.000197572
0.000288939
0.000472064
0.00071561
0.00105494
0.00177809
0.00276637
0.00430656
0.0067911
0.010787
0.016824
0.0266128
0.0418854
0.0659994
0.103745
0.164103
0.257414
0.405984
0.640465
1.01355
1.59759
2.54345
4.04841
6.44496
10.2062
16.3283
26.1236
41.5038
65.1231
103.392
156.016
223.491
322.869
401.569
258.951
-199.468
-2134.9
-7370.29
-20056.7
-39774.3
-3.79763e-06
3.82944e-05
1.43681e-05
-2.47284e-06
1.16575e-05
-1.2268e-06
-1.11675e-05
-8.8392e-06
3.499e-05
2.80769e-05
1.17383e-05
-7.19274e-06
9.58634e-06
-2.39088e-05
-3.73868e-06
-3.75713e-05
-2.04332e-05
1.95437e-05
-3.16994e-05
-2.6456e-05
-3.72875e-06
5.03492e-06
2.3278e-05
-1.35871e-05
5.56334e-05
5.56252e-06
-7.39665e-07
8.32489e-06
1.40802e-05
2.07317e-05
2.38154e-05
6.82424e-05
4.91314e-05
-2.43867e-05
-2.48954e-05
-2.89198e-05
2.44896e-05
2.15933e-06
-2.12537e-05
1.77334e-05
-1.12406e-05
-5.70186e-05
-7.1525e-05
1.26305e-06
-1.2227e-06
-3.98134e-05
-1.43314e-05
3.01448e-06
4.45328e-06
8.02575e-07
2.07885e-05
2.10481e-05
-2.21279e-06
-5.34671e-06
3.72493e-05
-1.0953e-05
-2.68926e-06
-3.74946e-05
-2.12606e-05
-4.98603e-05
3.47343e-05
5.48205e-05
3.99834e-05
-9.89132e-06
-3.93682e-05
2.43826e-05
4.86063e-05
-1.99218e-06
-8.4556e-06
6.276e-05
-9.7731e-07
-2.21009e-05
-1.83055e-05
-1.14335e-05
2.3721e-05
-3.57927e-05
-1.68271e-05
2.89904e-05
-2.9426e-05
1.44833e-06
4.08875e-05
-2.27084e-06
-4.30735e-05
-5.42343e-05
6.88515e-06
2.01919e-06
-9.43464e-06
4.41621e-06
3.301e-05
5.69266e-05
5.81877e-05
4.95153e-05
5.31754e-05
1.02165e-05
3.27885e-05
-6.31481e-05
4.36666e-06
-9.10239e-06
-1.80736e-05
-1.65893e-05
4.79846e-05
9.12046e-06
-5.05189e-05
-2.33143e-05
1.21131e-05
1.36012e-05
4.34848e-06
4.50309e-06
1.14903e-05
1.0113e-05
2.20008e-05
-2.4539e-05
-1.54863e-06
-1.22085e-05
5.3709e-06
1.22991e-05
4.94326e-05
1.98708e-05
-8.1329e-06
3.45476e-05
1.29691e-05
3.77938e-05
-2.98928e-05
1.97219e-05
2.21249e-05
-1.21407e-05
3.59136e-06
-4.28596e-05
-3.16507e-05
2.32751e-05
-3.02177e-05
2.80661e-05
1.32831e-05
1.61324e-05
1.74511e-05
-8.2938e-05
-4.10365e-05
2.12208e-05
-3.91095e-06
1.47618e-05
2.92862e-05
5.55602e-05
1.54827e-05
1.86691e-06
-3.46353e-05
-2.76476e-06
7.84377e-06
-2.51792e-05
-1.28713e-05
-1.01119e-05
1.6244e-06
-5.23898e-06
-9.4304e-07
4.2269e-05
-3.00556e-05
-6.53234e-05
-3.34039e-05
3.53902e-05
3.9118e-06
-5.56729e-07
2.10068e-05
-4.53313e-05
3.19861e-05
2.68285e-05
2.58209e-05
2.54427e-06
3.11899e-05
2.32995e-05
8.04917e-05
5.82961e-05
-2.64513e-05
-8.08732e-06
1.23458e-05
8.66164e-06
-9.51339e-07
-3.15587e-06
-3.79382e-06
5.36246e-06
-2.25278e-05
1.3345e-05
-9.05221e-06
-7.46258e-06
-5.18241e-05
-3.06853e-07
1.7775e-05
-9.52547e-06
1.52743e-05
-3.43579e-05
9.7151e-06
-4.074e-05
-2.49254e-05
-3.60003e-05
-4.96969e-05
1.53054e-05
-2.23389e-05
-4.34634e-05
-7.40813e-06
-3.39848e-05
-3.13507e-05
-2.96357e-05
-4.08161e-05
3.78334e-05
2.34264e-05
-2.87345e-05
-7.74525e-05
-2.48737e-07
2.92515e-05
-1.30889e-06
1.4202e-06
2.11231e-05
-1.72641e-05
-1.25728e-05
-6.16226e-06
6.45703e-05
1.26783e-05
-4.73772e-05
4.02878e-05
5.3848e-05
4.16072e-06
-1.99487e-05
1.17129e-05
4.21751e-05
-1.19053e-05
3.35707e-05
-3.88292e-06
-8.03741e-05
-2.78952e-06
2.52963e-05
6.7236e-06
3.7301e-05
3.17152e-05
4.13807e-05
6.53998e-05
-4.94421e-06
1.54779e-05
3.80467e-05
6.07086e-06
2.53184e-05
4.1596e-05
1.17065e-05
8.35819e-06
-8.89996e-06
-4.08952e-06
-3.36748e-05
-3.55861e-05
-1.52666e-05
-5.90253e-05
-1.62622e-05
-3.82042e-05
-2.63219e-05
-7.68329e-05
-7.17154e-05
-1.29796e-05
-3.11822e-05
1.19775e-05
8.86377e-05
3.092e-05
5.703e-05
0.000104451
5.65083e-05
0.000197618
0.000314788
0.000424287
0.000683997
0.00108278
0.00173305
0.00265238
0.0041782
0.00658637
0.0104101
0.0163385
0.0258078
0.0406386
0.0641649
0.100599
0.159003
0.249934
0.393535
0.619306
0.981773
1.54687
2.45207
3.89841
6.2192
9.85031
15.6966
25.1474
40.3746
63.2825
100.476
157.89
231.547
338.277
494.501
534.617
404.713
-291.046
-2876.29
-9939.37
-20719.8
-2.60638e-05
8.31716e-06
-6.41615e-05
2.94492e-05
3.00094e-05
1.35522e-05
-1.07794e-05
1.35862e-05
-1.82506e-05
-3.19932e-05
5.09287e-06
-7.58494e-06
7.92158e-05
2.28602e-05
-1.11637e-07
-8.04597e-06
-3.90498e-05
2.37227e-06
1.49368e-06
3.14637e-05
4.00512e-05
4.19367e-05
8.60157e-06
-4.46866e-05
3.69309e-05
9.92992e-06
3.34372e-05
6.86654e-06
4.36506e-05
1.81953e-05
2.14543e-05
-8.53794e-07
-3.55324e-05
-2.47604e-05
-7.79028e-05
-1.68187e-05
3.60108e-05
1.33989e-05
-3.4569e-05
1.81326e-05
2.21201e-05
-1.71355e-05
-2.08948e-06
-2.87719e-06
-8.43964e-08
-2.58033e-05
8.6848e-06
7.79996e-05
2.85049e-06
5.56902e-05
-4.97827e-06
5.27952e-06
1.22532e-06
-5.01036e-05
-5.75628e-07
2.01861e-05
2.60797e-05
-6.4365e-05
-5.57501e-05
-3.26558e-05
-2.99467e-05
1.24476e-05
7.69291e-05
1.72767e-05
-7.94284e-05
-1.84921e-05
-3.58382e-05
-3.72716e-05
-7.7305e-05
-3.84222e-05
2.69974e-05
-8.63773e-06
3.21057e-05
6.86667e-06
-4.35293e-05
-4.54017e-05
-2.97667e-05
-4.3283e-05
2.32358e-05
-4.70364e-05
-1.05618e-05
-5.82887e-06
-2.85882e-07
-2.8708e-06
2.97081e-05
1.76679e-05
2.0585e-05
4.35018e-05
-2.02834e-05
4.77257e-05
6.44353e-05
3.90509e-05
1.25185e-05
5.38206e-05
3.0829e-05
1.02177e-05
2.65659e-05
1.12385e-05
3.39677e-05
2.63467e-05
-1.41222e-05
-1.03365e-05
2.02784e-05
-6.44512e-05
1.04013e-05
-2.7476e-06
-1.28598e-05
3.3743e-05
3.00507e-05
-2.02513e-05
8.2251e-07
4.78182e-05
4.8037e-05
2.85082e-05
1.61943e-05
-1.55524e-05
4.18068e-06
2.42668e-06
-9.07517e-06
8.0443e-06
1.96382e-05
4.85109e-05
-1.96007e-05
-4.76463e-06
2.23105e-05
-2.67264e-05
-6.83985e-05
-2.96169e-05
-2.74536e-05
-3.13622e-05
-4.70078e-06
-3.37825e-05
-3.41559e-05
2.53817e-05
1.82884e-05
2.44369e-05
-4.58393e-07
2.06104e-05
1.02853e-05
-8.24373e-06
-8.32487e-06
-5.16204e-07
3.04973e-06
-6.73119e-06
-1.06372e-05
4.51848e-06
-2.11645e-05
1.18816e-05
5.61236e-06
1.7868e-05
1.77151e-05
1.05377e-06
4.53307e-06
-5.16445e-05
-1.83956e-05
1.11289e-05
-3.56001e-06
3.05922e-05
5.92834e-05
2.22711e-05
-3.23265e-06
-4.6645e-05
5.01055e-05
-1.54413e-05
-6.61487e-05
-3.72294e-05
2.89458e-05
4.91506e-05
3.80081e-06
1.85961e-05
3.14386e-05
2.39697e-05
-2.7532e-05
4.75357e-06
5.13011e-06
-2.45518e-06
-1.0725e-06
7.92136e-06
-2.30895e-05
2.24835e-05
3.56254e-06
-2.05029e-05
-2.13902e-05
-2.81773e-06
-1.86321e-05
-3.3689e-05
-1.32411e-06
-1.68836e-06
8.3485e-06
-1.29619e-05
-1.70826e-05
3.07375e-06
-1.14155e-05
-6.86825e-05
-2.03363e-05
-4.04465e-05
-3.39546e-05
-9.57746e-06
-2.27373e-06
-3.37168e-05
3.06492e-06
-2.35089e-05
-1.38852e-06
-4.79421e-05
-5.20414e-06
-8.10631e-06
2.71826e-05
4.92212e-06
-2.40729e-05
5.89633e-05
2.77689e-05
-2.13744e-05
1.04442e-05
-1.13755e-05
-2.05271e-05
-1.35153e-05
7.22179e-06
2.10403e-07
-1.47149e-05
8.65452e-07
3.78834e-05
4.55161e-05
-2.44935e-05
-1.25721e-05
1.25204e-05
-1.98553e-06
-1.12146e-05
-1.34737e-05
-2.36616e-05
5.48803e-05
-6.2329e-06
3.62558e-05
-1.29432e-05
-2.43433e-05
6.07874e-07
3.85879e-05
1.29973e-05
1.42057e-05
2.91967e-05
4.48436e-05
-1.78171e-05
2.52018e-05
2.72307e-05
-3.89097e-05
-2.62928e-05
1.26507e-05
-2.56537e-05
4.1359e-05
-4.19379e-07
3.24168e-05
4.02039e-06
-3.17511e-05
-5.15447e-06
5.19356e-06
1.30092e-05
2.43909e-05
3.90134e-05
9.18217e-05
8.98423e-05
9.99754e-05
0.000193467
0.000236645
0.000432549
0.000659583
0.000989649
0.00152484
0.00248277
0.00395139
0.00618252
0.00973456
0.0153392
0.0241964
0.0381343
0.0601858
0.0943432
0.148836
0.234191
0.368369
0.577942
0.915598
1.44261
2.27642
3.60146
5.7475
9.10385
14.4167
23.1379
37.4675
58.3808
92.4388
149.222
222.798
328.575
519.287
663.22
732.738
667.741
-278.437
-4280
-9056.8
3.04924e-07
-6.50962e-06
4.90059e-06
9.25099e-07
-4.18608e-05
-5.00679e-05
7.03437e-06
-1.30552e-05
-1.34054e-05
2.18573e-05
4.3382e-06
-1.91302e-05
-1.18966e-05
-5.51764e-06
3.37996e-06
4.36275e-05
4.48253e-05
3.99186e-06
-5.83801e-05
6.73515e-06
2.79952e-05
5.60236e-05
7.26658e-05
-1.69361e-05
-3.77957e-06
-1.73845e-05
-9.8709e-06
-1.28609e-05
4.12591e-05
1.28953e-06
-2.16125e-05
7.74277e-05
3.76342e-05
-1.5362e-05
7.90837e-06
2.90747e-05
-2.53219e-05
-1.48858e-05
-3.43871e-05
-3.18287e-05
-2.7757e-05
-1.21148e-05
4.17438e-05
-4.0767e-05
1.05184e-05
-6.70179e-06
-2.04807e-05
-5.08953e-05
1.7988e-05
1.3889e-05
-1.7781e-07
-2.33736e-05
9.13511e-05
-4.04734e-05
2.5654e-05
4.65741e-05
-1.3837e-05
1.26929e-05
-3.1608e-05
-3.46169e-05
2.17097e-06
-6.39912e-06
-5.1061e-05
2.38594e-05
-2.59667e-06
-1.22971e-05
-1.82747e-05
-2.88817e-05
1.98601e-05
-5.16904e-06
1.20532e-05
1.28e-05
1.28384e-05
-1.3939e-06
1.45659e-05
4.64401e-05
-3.84037e-05
-5.41926e-05
-2.70477e-05
-1.09449e-06
2.64e-06
-8.77932e-05
1.83741e-06
3.55504e-06
-1.40387e-05
-2.44893e-05
1.59822e-05
8.03444e-06
1.48984e-05
-2.15065e-05
1.42109e-05
4.38754e-06
-1.00864e-05
1.47091e-05
-3.82141e-05
1.90921e-05
1.70882e-06
-1.31823e-05
4.28613e-05
-2.44543e-05
-1.30633e-05
4.00529e-05
2.58374e-05
2.772e-05
4.27458e-05
2.64215e-05
9.90635e-06
3.66963e-05
-5.85709e-06
-2.91215e-05
-2.4878e-05
-1.44886e-05
-5.60699e-05
-4.63515e-05
7.12169e-06
5.30062e-05
1.77351e-05
-6.76163e-05
1.49758e-05
-4.15441e-06
-5.21988e-05
-4.83018e-05
-1.74459e-05
-4.93529e-05
2.27586e-05
-8.0599e-06
-5.56177e-05
-4.80182e-05
-7.83091e-06
-5.01467e-05
-3.43006e-05
1.62328e-05
-4.15298e-05
-2.72303e-05
4.55498e-06
-4.17878e-05
-1.01188e-05
-2.61267e-06
2.03603e-05
3.60968e-05
2.32875e-05
2.0738e-06
4.44927e-05
-2.00789e-05
8.99059e-06
8.29966e-06
-1.00939e-05
4.89479e-05
5.34101e-05
1.00203e-05
1.9192e-05
3.71463e-05
3.78038e-05
4.26383e-05
-4.4313e-05
-2.64681e-05
-4.51962e-05
-2.41616e-06
-1.34104e-05
3.51371e-05
1.799e-05
-2.98904e-05
-6.45793e-06
4.81007e-05
4.81134e-06
-2.07684e-06
2.47699e-05
2.48282e-05
-1.38906e-05
-1.98167e-05
4.31466e-05
-1.68189e-05
-1.28296e-05
-1.42977e-05
-5.24688e-05
-1.28616e-05
-1.55924e-05
2.61246e-05
2.35003e-05
7.59188e-05
1.78376e-05
4.69158e-05
-3.27487e-06
-2.00926e-05
-1.96786e-05
-4.83775e-07
-1.97441e-05
-4.02165e-05
9.37314e-06
3.55061e-05
5.378e-06
-3.00214e-05
-2.96724e-05
-1.97668e-06
2.43822e-05
1.91406e-05
4.63434e-05
1.35837e-05
2.30632e-05
-2.58299e-05
-4.02782e-05
1.35753e-05
-2.80445e-05
-2.36242e-05
8.03932e-06
1.5811e-05
-6.62113e-06
1.44138e-05
-2.73431e-06
1.98026e-05
3.11854e-05
1.14576e-05
-3.49221e-05
-1.42772e-05
-3.71344e-05
-3.86233e-05
-4.11175e-05
-1.79165e-05
-1.30005e-05
8.70686e-07
1.46522e-05
-3.91092e-05
-1.51772e-05
4.23557e-05
1.0932e-05
-6.96397e-06
7.00154e-06
-1.74984e-05
2.36135e-05
3.28121e-05
2.78856e-05
6.6936e-05
-2.9365e-06
-1.46127e-05
-2.68064e-05
-1.37569e-06
-2.57566e-05
-1.71104e-05
1.03035e-05
2.31048e-05
-5.4528e-05
-3.4195e-05
-3.15153e-05
-5.35396e-05
3.74289e-05
-5.32e-05
1.00285e-05
-1.2953e-05
4.46689e-06
1.04737e-05
6.75717e-05
2.6607e-06
-1.34327e-05
4.48346e-05
1.88461e-05
8.35277e-05
1.00429e-05
3.0119e-05
2.2421e-05
7.29146e-05
0.00010742
0.000202065
0.000396324
0.000623429
0.000917899
0.00146928
0.00224304
0.00356474
0.00566158
0.00894503
0.0140495
0.0220175
0.0346992
0.0547708
0.085683
0.134765
0.211876
0.333155
0.521149
0.823519
1.29711
2.0402
3.20823
5.10691
8.08281
12.7284
20.3563
33.161
51.7592
81.2572
132.941
203.168
299.383
489.16
690.947
862.305
1097.82
1112.81
-923.201
-2090.3
-3.9892e-06
1.02426e-05
-8.40823e-06
-2.95935e-05
-3.84347e-06
3.96565e-06
-1.5454e-05
7.48712e-06
9.09889e-05
-8.63244e-06
-2.01542e-05
-2.23838e-05
2.91876e-06
1.56483e-05
1.56295e-06
2.9521e-06
2.91341e-05
-5.78782e-05
-3.34465e-05
-3.15325e-05
3.1666e-05
-2.64843e-05
1.0621e-05
-9.54109e-06
-4.5135e-05
2.56964e-05
1.37167e-06
-3.26609e-05
-1.10555e-05
3.74862e-05
2.48347e-05
-6.23561e-05
-7.97681e-06
-5.33046e-06
-3.80317e-05
-3.74281e-05
-3.44595e-05
-1.86474e-05
-1.64546e-05
-1.60722e-05
9.33374e-06
1.69139e-05
-6.50894e-06
2.73436e-05
4.05657e-05
-6.21071e-06
4.39646e-06
7.93208e-06
-8.31062e-06
2.11298e-05
2.745e-05
3.87996e-05
2.03131e-05
4.34384e-05
-7.24911e-06
-4.44367e-05
8.62173e-05
8.30719e-06
-3.13194e-05
4.10723e-07
3.4069e-05
-1.99777e-05
5.32021e-05
4.16849e-05
-1.29986e-05
-1.35201e-05
-1.08135e-05
-1.6619e-05
-3.32212e-06
4.83978e-05
3.86707e-06
-2.06269e-06
-2.6297e-05
-5.55837e-05
2.03849e-05
3.51664e-05
1.29649e-05
7.37927e-07
4.49663e-05
5.84576e-05
3.34376e-05
-4.90896e-05
-1.11003e-05
2.38458e-05
-1.00804e-05
-2.40854e-06
3.79286e-05
-5.15628e-05
-4.25549e-05
-1.73258e-05
-3.90811e-06
5.66663e-06
-2.82038e-05
-4.63359e-05
2.69179e-05
1.33994e-05
2.02202e-05
3.38459e-05
7.03797e-06
3.10108e-05
-3.45281e-05
-7.7146e-06
-2.64375e-05
-2.34858e-05
3.36278e-05
9.08153e-06
4.35137e-05
4.86429e-05
-1.55428e-05
-2.88403e-05
1.72088e-05
-1.49423e-05
-1.1599e-05
-4.79507e-06
-7.9014e-05
-2.41566e-05
6.07561e-05
-2.17051e-05
-4.02519e-05
-2.83785e-05
3.30072e-05
2.0901e-05
2.63351e-05
-3.57376e-05
1.03092e-05
-1.01665e-05
-1.17133e-05
-3.12867e-05
-1.1604e-05
-2.1782e-05
-9.89324e-06
-3.08444e-05
-3.84553e-05
-2.27455e-05
-8.44375e-06
2.20102e-05
-1.94782e-05
-1.49263e-05
-5.52339e-05
3.3249e-05
-1.86987e-05
-4.11415e-05
2.84582e-05
3.48356e-05
4.85305e-05
-6.70786e-06
-2.27744e-05
-9.98278e-06
-1.44243e-05
3.01144e-05
3.59701e-05
-2.75308e-05
-3.51619e-05
2.67441e-05
2.3136e-05
2.26971e-05
-3.56121e-05
4.07325e-05
2.82592e-05
-5.57402e-06
-7.20881e-05
4.78751e-05
2.82685e-05
-2.43797e-05
-2.03207e-05
-7.1975e-05
-2.92582e-05
-4.00445e-05
-8.47071e-05
-4.28923e-05
6.00603e-05
1.85213e-05
-1.97069e-05
-3.63624e-05
-6.32305e-05
-4.78342e-05
-4.50003e-05
-5.10474e-05
-3.20473e-05
-1.66246e-05
-2.95751e-05
5.51083e-06
1.0648e-06
-1.67894e-05
-3.25643e-05
-7.25579e-05
8.76574e-06
1.03864e-05
-6.33268e-05
-4.89814e-05
1.68015e-05
1.1277e-05
1.48415e-05
-8.91316e-06
1.91924e-05
3.1558e-05
-2.40869e-05
5.42563e-06
5.9127e-05
-4.44579e-05
-2.98613e-05
-1.29625e-05
2.61557e-05
-1.42735e-05
-3.86735e-05
-6.23796e-06
-1.25117e-05
-8.97986e-06
3.65487e-05
-3.39554e-05
-4.63982e-05
-9.9323e-06
-3.09725e-05
1.7255e-05
7.07196e-06
1.93153e-05
2.98795e-05
9.28111e-06
-1.26911e-05
8.10285e-06
3.88189e-05
2.76014e-05
1.00261e-05
-4.01337e-06
5.86119e-05
1.54225e-05
-1.37354e-07
3.4685e-05
2.22922e-05
2.49159e-05
7.13657e-05
3.1826e-05
-2.55614e-05
-3.67618e-05
-5.438e-05
-3.31914e-05
-5.29053e-05
-6.31288e-05
-3.1163e-05
1.82291e-05
-2.23221e-05
3.45419e-06
1.54955e-05
-2.51916e-05
-4.55769e-06
-6.10574e-05
-1.36124e-05
1.10747e-05
5.04249e-05
2.4791e-05
5.55483e-06
8.77884e-06
-5.55319e-05
3.73823e-05
5.70652e-05
-4.72699e-06
5.39806e-05
4.03975e-05
5.4619e-05
8.27249e-05
6.77635e-05
0.00018607
0.000309441
0.000484078
0.000735516
0.00125331
0.00205199
0.00314675
0.00496388
0.00788945
0.0124305
0.0194771
0.0305357
0.048224
0.0754454
0.118482
0.185914
0.292135
0.455572
0.717678
1.12908
1.77102
2.76957
4.39223
6.9414
10.8739
17.2898
28.2265
44.1342
68.7099
113.184
176.189
259.302
429.482
643.454
850.769
1191.57
1663.39
776.096
1504.83
-4.35189e-06
3.58612e-05
-1.5022e-05
-2.87696e-05
8.91464e-06
2.79026e-05
3.48867e-05
1.84709e-05
7.78155e-06
-2.03866e-05
-9.64973e-06
6.19663e-06
-8.84104e-06
-1.46708e-05
-2.55056e-05
7.52212e-06
3.09415e-05
-6.04137e-05
2.15875e-06
5.37388e-05
9.61165e-07
-2.07347e-05
-2.28653e-05
-1.96385e-05
2.91014e-05
7.66162e-06
1.88238e-05
1.25194e-05
-1.05565e-05
-1.79079e-05
1.34722e-05
-4.00736e-05
1.83084e-05
-2.42446e-05
-4.21111e-05
-5.60136e-06
2.17172e-05
2.31961e-05
1.01614e-06
-9.956e-07
4.58909e-05
3.49922e-06
-2.1049e-05
-1.13193e-05
1.96924e-05
-1.65441e-06
-3.78342e-05
3.52186e-06
5.66546e-05
-2.78419e-05
9.68876e-06
-2.60387e-06
-1.53131e-05
3.30985e-05
1.37048e-05
3.64194e-05
-3.07699e-05
1.88061e-06
6.44112e-05
1.4901e-05
3.23872e-05
6.31928e-06
3.45079e-05
4.7254e-06
-4.02238e-05
-4.28448e-05
-2.77449e-05
6.26807e-06
8.98609e-06
-3.28939e-05
-5.82517e-07
5.14152e-05
-1.09883e-05
1.90608e-05
-2.35358e-06
1.20784e-05
-2.46e-05
1.77843e-05
-5.64288e-06
1.61681e-05
3.22622e-05
-4.1199e-05
5.39132e-07
3.06611e-05
-5.11194e-05
-4.9279e-05
-3.33574e-05
2.63004e-06
4.44693e-06
-5.18319e-06
-1.45753e-05
-4.5793e-05
3.05547e-06
6.07281e-06
6.24449e-06
6.19755e-05
1.08546e-05
-2.09846e-05
1.24665e-05
2.23939e-05
-3.47519e-05
-1.04202e-05
-2.33932e-05
-3.27582e-05
-2.95091e-05
1.90666e-05
-6.94922e-06
3.12576e-05
3.8009e-06
-1.10675e-05
-2.90464e-05
-8.8729e-05
2.99056e-05
2.34843e-05
-1.17423e-05
-2.04123e-05
7.2577e-06
9.06557e-06
-1.02221e-05
4.34062e-06
-1.1863e-05
1.20496e-05
-1.025e-05
-1.69282e-05
-5.36676e-06
-5.57421e-05
-1.42543e-05
8.30464e-06
-3.10505e-05
5.4387e-05
3.83415e-06
-1.3805e-06
2.93608e-05
6.14909e-05
7.26004e-06
1.34826e-05
1.54613e-05
-3.60561e-05
-2.59753e-05
1.09763e-05
6.26036e-06
5.14604e-05
2.6084e-05
-1.56029e-05
1.24182e-05
-3.96411e-06
-1.72477e-06
4.03717e-05
1.4104e-05
3.18291e-05
-2.68749e-05
-1.40373e-05
-3.32126e-06
7.68836e-07
-3.63352e-06
-2.39108e-05
-6.09211e-05
-8.18491e-06
1.82307e-06
1.26261e-05
-5.88052e-05
-4.63869e-05
-1.92244e-05
7.95953e-08
-2.50983e-05
-2.50339e-05
1.51824e-06
-3.23174e-05
2.01719e-05
-6.22706e-05
-2.61757e-05
-1.96318e-05
-8.24137e-06
-1.95931e-06
-9.9978e-06
9.82688e-06
5.45165e-05
-1.04963e-06
1.77796e-05
-3.68752e-05
-5.19044e-05
6.70349e-05
4.01772e-05
6.84264e-06
-2.12246e-05
-1.69367e-06
1.74781e-05
1.60193e-05
-2.56845e-05
2.8913e-06
1.49546e-05
6.73901e-06
-6.49603e-06
-9.21032e-06
2.60457e-06
-4.02188e-06
-3.19536e-06
-1.57594e-05
-5.14429e-05
-5.18744e-05
1.513e-05
1.73912e-05
-2.94985e-05
3.90489e-05
7.91347e-06
3.15078e-06
-7.73798e-06
-3.66873e-06
4.01878e-05
-1.69192e-05
-9.51341e-05
-4.22951e-06
4.77227e-05
3.84208e-05
9.54321e-06
-1.35895e-05
5.22104e-06
-5.49924e-05
-3.94217e-05
3.78247e-05
2.28988e-05
-1.15355e-05
4.2945e-06
4.419e-05
1.27583e-05
-4.05614e-05
-3.48473e-05
3.27456e-05
-1.36465e-05
4.28308e-05
-1.78528e-05
-2.28369e-05
-2.96711e-06
-4.39463e-05
2.39696e-05
-2.41143e-05
3.47631e-05
5.29776e-05
3.12325e-05
1.69601e-05
4.79346e-05
3.08527e-05
-9.37951e-07
3.01482e-05
5.64934e-05
2.26007e-05
1.00221e-05
-4.43206e-05
1.6455e-05
1.55632e-05
-1.94844e-05
3.24285e-05
-2.7309e-05
-3.24626e-05
4.05459e-06
-4.97195e-05
1.35607e-05
2.11369e-05
1.39394e-05
7.83668e-05
4.83307e-05
0.000185436
0.000296639
0.000404996
0.000715703
0.00112979
0.00172469
0.00271183
0.00429567
0.00681661
0.0106493
0.0167267
0.0262111
0.0413162
0.0647105
0.101381
0.158764
0.249248
0.387746
0.608917
0.95651
1.49667
2.32949
3.67981
5.80298
9.05054
14.3054
23.3407
36.5069
56.4168
93.1036
146.731
215.816
359.416
558.291
763.346
1113.61
1746.38
1483.18
3050.86
-1.57877e-06
-1.09367e-07
-3.18961e-05
1.4299e-05
1.51757e-06
4.67063e-05
1.38678e-05
3.21282e-05
3.31654e-05
-3.11647e-05
-8.98459e-06
1.43587e-05
2.91808e-05
5.97736e-05
-6.3315e-05
-1.28637e-05
-1.59761e-05
-3.12709e-05
5.74904e-06
-3.22511e-06
-1.85705e-05
3.33529e-05
2.78401e-05
-9.85106e-06
-2.83309e-05
4.18984e-05
1.84627e-05
-1.51417e-05
-3.15369e-05
-3.76074e-06
5.37318e-07
2.19582e-05
2.56776e-05
-7.00097e-06
1.80541e-05
-1.57053e-05
-1.07756e-05
1.96407e-05
8.92093e-06
4.47915e-05
3.01835e-05
-5.43328e-06
-1.94469e-05
-1.09564e-05
-3.56314e-06
-2.82336e-05
2.74528e-05
5.72203e-06
-2.00915e-05
-4.44363e-05
-1.54496e-05
1.52305e-06
5.19266e-05
1.94226e-05
-1.95922e-05
4.11644e-06
-1.52811e-05
3.06025e-06
1.99751e-05
-1.9556e-05
6.22628e-05
-1.24483e-05
-8.60821e-06
4.25109e-05
2.32518e-05
-3.4732e-05
-1.6987e-05
-2.01241e-05
-2.5361e-05
-2.61882e-05
6.23511e-06
-7.82658e-06
3.81281e-05
2.19337e-05
1.96401e-05
-9.91756e-06
-1.02382e-05
-1.72315e-05
5.95849e-05
-2.568e-05
-6.10817e-05
1.63004e-05
2.76229e-05
2.57859e-05
-1.9521e-05
4.80746e-06
2.05036e-05
2.93639e-05
2.5127e-05
4.08949e-06
1.56263e-05
2.16085e-05
6.50494e-05
2.94976e-05
3.42967e-05
5.58054e-05
-5.68068e-05
2.40017e-05
-2.21818e-06
-1.77712e-05
-5.2163e-05
-1.52752e-05
2.40564e-05
1.14427e-05
-9.85395e-06
-7.80275e-05
-4.99967e-05
-1.74088e-05
-7.78876e-07
-1.81879e-05
1.35513e-05
-1.48318e-05
-6.21215e-05
-4.15746e-05
-2.01493e-05
-8.45025e-06
-2.86878e-05
-1.6932e-05
2.10451e-05
-3.25577e-06
-5.57393e-05
-7.13783e-06
1.24768e-05
-1.53096e-05
-2.27142e-05
7.18347e-05
4.46301e-05
3.01987e-05
-8.34983e-06
6.04659e-05
2.18945e-05
1.08816e-05
-1.09708e-05
-3.87614e-05
1.53488e-05
1.44539e-06
3.86105e-05
3.44215e-05
1.91623e-05
-1.54947e-05
-3.94134e-06
2.28664e-05
1.10483e-05
3.8561e-05
2.66518e-05
6.3087e-06
-3.90504e-06
1.99753e-05
2.72159e-05
4.11235e-06
-1.49329e-05
4.76173e-05
-2.63108e-05
-2.1502e-07
2.72003e-05
-2.4298e-05
5.04766e-05
-3.10487e-05
-0.000125393
-3.28317e-05
-1.05641e-05
1.32661e-05
-2.58588e-05
-2.76732e-05
-9.14115e-06
-1.91205e-05
-1.8821e-05
-2.55722e-05
1.66536e-05
1.90657e-05
-6.00915e-05
-2.8444e-05
-8.79574e-06
-3.79741e-05
3.5599e-05
-1.79536e-05
-6.95468e-06
3.48813e-06
1.71228e-05
-5.69964e-05
-3.13122e-05
-2.64465e-05
-3.0124e-05
-1.66577e-05
2.38577e-06
2.39148e-05
1.60768e-05
-1.37828e-05
-1.87068e-05
1.73535e-05
-3.82861e-05
-3.38445e-05
4.19686e-05
-2.60788e-05
-3.10394e-06
1.90698e-05
-2.39864e-05
4.96356e-05
5.72826e-05
-1.34619e-05
-5.80972e-05
-6.05884e-06
1.10703e-05
1.93774e-05
6.89129e-06
-4.43975e-06
-1.27765e-05
-3.09755e-06
3.65695e-05
-7.67782e-07
-2.96906e-05
2.11982e-05
2.24582e-05
3.2493e-05
1.55931e-05
-4.84887e-05
3.92933e-07
1.87884e-05
2.14628e-05
-3.44212e-05
2.5064e-06
6.21839e-06
-3.07669e-05
-5.34145e-05
-6.43992e-05
-3.3007e-06
-3.94979e-05
-1.39535e-05
-5.27749e-05
-1.28955e-05
-7.43392e-05
6.01444e-05
8.18e-05
2.05741e-05
2.35544e-05
7.64716e-05
4.29552e-05
5.43635e-05
-1.76533e-05
1.24985e-05
5.43482e-06
-1.39387e-05
-6.02338e-06
4.49586e-05
-1.70412e-05
8.73637e-06
1.32948e-05
1.283e-06
-4.37491e-05
6.89059e-06
-6.22765e-07
-1.29984e-05
2.49781e-05
3.75047e-05
5.26616e-06
2.78139e-05
4.4462e-05
4.26385e-05
3.92399e-05
7.20023e-05
9.07782e-05
0.000139931
0.000272132
0.000422407
0.000575243
0.000894921
0.00147374
0.00237546
0.0036515
0.00574
0.00904825
0.014073
0.0220401
0.0347609
0.0542636
0.0847954
0.132626
0.207988
0.322968
0.505816
0.793212
1.23861
1.92031
3.02236
4.75536
7.38867
11.6167
18.9184
29.5725
45.4073
74.8826
118.897
174.65
291.253
462.82
645.844
961.623
1597.76
1641.46
3438.98
-6.32115e-06
-2.22377e-06
-6.77568e-06
-2.93715e-05
5.37781e-05
2.76033e-06
3.93724e-05
-8.94282e-06
-1.70713e-05
3.18753e-05
5.29793e-05
2.93695e-05
4.74171e-05
2.20725e-05
-7.85922e-06
-2.92489e-05
6.62934e-06
-2.25878e-05
1.36162e-05
2.823e-05
5.95573e-06
8.73815e-06
-9.70517e-06
2.21749e-05
1.11522e-05
-4.11446e-05
-6.87694e-06
2.09762e-05
1.38041e-05
6.537e-06
1.86648e-05
-9.22226e-06
-1.75669e-05
-1.20431e-05
2.68162e-06
-2.19987e-05
-9.17641e-06
-7.35669e-06
2.52593e-06
1.77416e-05
2.25311e-05
5.99603e-05
1.82272e-05
5.64792e-05
6.58093e-05
-5.39084e-06
-3.98124e-05
-1.71748e-05
1.65376e-05
-1.34207e-05
-1.03071e-05
-2.88866e-06
-6.635e-06
-1.57334e-05
-1.60577e-05
-3.55892e-05
-2.15929e-05
2.78482e-05
-2.26477e-05
-3.95e-06
-8.8092e-06
2.51991e-05
-6.14917e-06
-1.44088e-05
1.27579e-05
4.86311e-05
3.82142e-05
2.71193e-05
-2.81828e-05
1.00985e-05
1.49024e-05
3.91352e-05
1.00397e-06
2.5703e-06
-1.94791e-05
4.1998e-06
2.14296e-05
1.16539e-05
3.80595e-05
2.66673e-05
-1.45776e-05
-6.17514e-05
-7.39075e-05
-4.18578e-05
-5.74045e-06
6.01075e-06
1.40988e-05
2.79515e-05
1.94053e-05
1.36805e-05
-4.10757e-06
1.95229e-05
-1.91784e-05
-2.06018e-05
1.20072e-05
2.07779e-06
-5.203e-05
-6.79671e-05
-3.52772e-05
-1.35319e-05
-2.08067e-05
-6.73096e-06
4.39058e-05
-4.80738e-05
-3.50868e-05
-3.32724e-06
4.77685e-06
-6.57995e-05
-5.01544e-05
5.62298e-06
-1.63469e-05
2.52391e-05
2.42771e-05
-2.62059e-05
4.5038e-05
2.06994e-05
4.84668e-05
4.02056e-06
3.49116e-05
4.83946e-05
2.24178e-05
-5.60177e-06
-4.51517e-06
-4.31871e-05
3.51159e-05
3.1397e-05
4.13194e-05
2.27105e-05
1.9745e-05
-6.80736e-06
5.18803e-06
2.849e-05
2.85168e-05
4.79275e-05
-3.96723e-05
3.70008e-05
-1.59735e-06
-2.27793e-05
-3.34098e-05
-1.20457e-05
3.62836e-05
-3.87835e-05
-2.38384e-05
9.96069e-06
8.17906e-06
-1.14395e-06
2.25527e-05
1.78522e-05
5.817e-06
-2.85359e-05
1.88524e-05
5.14396e-05
-1.13556e-05
8.0354e-06
4.45226e-05
1.07848e-05
6.56392e-06
-2.55636e-05
-7.2828e-05
-1.01731e-05
3.0038e-05
-2.22475e-05
-4.89427e-05
-4.75811e-05
-1.65305e-05
-3.32027e-05
-2.02007e-05
-3.32682e-05
-2.90943e-05
-1.74456e-05
-5.28272e-05
-5.29417e-05
9.6267e-06
1.06774e-05
4.98669e-05
-2.98077e-05
-3.90019e-05
-1.00568e-05
4.26664e-06
-3.25786e-06
-1.46287e-05
6.66128e-05
1.69378e-05
-4.67438e-05
-1.00097e-05
-3.08058e-05
-8.44319e-05
-2.16901e-05
-3.41082e-06
-1.08319e-05
8.62263e-06
5.36608e-05
2.00308e-05
-2.91556e-06
7.00964e-05
-2.97188e-06
-2.77385e-05
-1.63833e-05
6.60681e-06
1.44756e-05
1.4857e-05
-1.53912e-05
-5.4145e-07
1.06514e-05
3.90388e-05
5.65328e-05
2.3812e-05
7.25261e-06
7.87655e-05
2.59222e-05
-9.53907e-06
6.14522e-05
7.12283e-05
4.61446e-06
1.48956e-05
3.37481e-05
1.33003e-05
3.48206e-05
1.93154e-05
1.27494e-05
4.2514e-05
1.60558e-05
-1.42288e-06
5.85808e-06
1.15997e-05
3.4255e-05
-3.47793e-05
-1.35552e-06
-2.38832e-05
-6.15387e-06
2.37583e-05
4.31389e-05
-5.62008e-05
-5.16364e-05
-2.56724e-05
1.18982e-05
1.42118e-05
-8.99962e-06
-2.25119e-06
-2.081e-05
-5.17547e-05
-5.76536e-05
-2.08667e-05
1.86138e-05
3.84468e-05
1.9321e-05
7.27571e-05
-8.83681e-07
1.25525e-05
2.38734e-05
3.16237e-05
-4.6147e-06
5.69837e-05
9.25141e-05
4.90229e-05
3.6743e-05
8.04431e-05
1.30392e-05
7.08363e-05
5.92447e-05
9.16415e-05
0.000134421
0.000186095
0.000319761
0.0004846
0.000794586
0.00127709
0.00197434
0.0029721
0.00475219
0.00749439
0.01167
0.0181805
0.0286014
0.0446136
0.0696399
0.108803
0.170385
0.264132
0.412915
0.646345
1.00747
1.55758
2.44418
3.83681
5.94359
9.30353
15.1135
23.5933
36.0416
59.309
94.528
138.628
231.061
372.203
525.765
791.934
1359.64
1529.22
3239.41
3.2986e-05
-9.73919e-06
2.97858e-06
-1.47252e-05
-4.45457e-05
1.21711e-05
1.05613e-05
-2.80559e-05
9.25612e-07
4.24539e-06
5.7273e-06
2.11004e-05
4.90017e-06
-2.5417e-05
-2.52277e-05
-4.28971e-05
-1.33708e-06
3.12429e-05
1.47819e-05
-1.94765e-05
-5.64916e-06
6.37437e-07
-4.28144e-05
-5.20949e-06
-3.80518e-05
-4.19429e-05
-3.42326e-06
-2.25763e-06
-6.10213e-06
-2.50604e-05
-2.77181e-05
1.27301e-05
-3.31081e-05
-3.97852e-05