/*--------------------------------*- C++ -*----------------------------------*\
| =========                 |                                                 |
| \\      /  F ield         | OpenFOAM: The Open Source CFD Toolbox           |
|  \\    /   O peration     | Version:  2412                                  |
|   \\  /    A nd           | Website:  www.openfoam.com                      |
|    \\/     M anipulation  |                                                 |
\*---------------------------------------------------------------------------*/
FoamFile
{
    version     2.0;
    format      ascii;
    arch        "LSB;label=32;scalar=64";
    class       volScalarField;
    location    "0.0035";
    object      ddt0(rho);
}
// * * * * * * * * * * * * * * * * * * * * * * * * * * * * * * * * * * * * * //

dimensions      [1 -3 -1 0 0 0 0];

internalField   nonuniform List<scalar> 
180000
(
8.87005e-11
-4.05133e-11
6.03312e-11
-1.20298e-10
7.62232e-12
-4.64106e-11
-5.64022e-11
7.96553e-11
-1.67371e-10
-1.05899e-10
1.52335e-11
8.25661e-11
-5.16803e-11
-1.53189e-10
-6.43107e-11
-7.41459e-11
-1.30926e-10
-1.29008e-10
-8.25717e-11
-5.88696e-12
5.11717e-11
1.08534e-10
3.58699e-11
9.17179e-11
2.30929e-11
3.84259e-11
-3.56996e-11
-1.92355e-10
6.25619e-11
4.479e-11
-1.33155e-10
4.18069e-11
9.51657e-11
6.669e-11
2.76884e-10
1.1121e-10
-1.00234e-10
1.0807e-10
3.04269e-11
1.76975e-10
1.00975e-10
-9.70763e-11
1.13895e-10
3.50506e-10
1.45175e-11
1.82543e-10
8.98603e-12
-7.0272e-11
3.59729e-11
-1.7181e-11
6.34011e-11
3.88611e-11
-3.80196e-11
-8.95342e-11
-6.2993e-11
9.33378e-11
3.19482e-10
-2.66337e-12
4.24111e-11
5.20564e-11
-1.21154e-10
3.23817e-11
-1.58741e-10
-6.56348e-11
-8.42415e-11
-1.36966e-10
-3.71829e-11
1.51439e-10
1.77958e-10
1.67916e-10
-2.98922e-11
1.98685e-11
2.34939e-10
-3.51577e-12
-8.63251e-11
9.71527e-11
1.00697e-11
-1.01736e-11
-9.61684e-11
1.1677e-10
-4.95109e-11
8.16829e-11
1.24562e-10
4.33182e-11
1.43796e-10
5.96905e-11
4.6398e-11
7.19368e-11
1.91677e-12
2.88889e-11
-3.6158e-12
-3.17515e-11
2.89822e-11
-3.26028e-11
1.84591e-10
5.58728e-11
-1.03654e-10
-1.45446e-10
-3.19539e-11
-1.83771e-10
-8.07253e-12
-8.00113e-11
-7.22769e-11
-3.24125e-11
5.32127e-11
2.62918e-10
-9.53667e-11
-3.38074e-11
-2.83631e-11
-1.2711e-10
-1.02649e-10
-4.97305e-11
-1.60258e-11
-2.35901e-10
-6.94628e-11
7.47325e-11
5.59189e-11
-1.68792e-11
5.67766e-11
-1.79101e-10
1.33877e-10
-8.96996e-11
-6.06042e-11
-4.47377e-11
-6.22094e-11
3.41157e-11
1.40224e-10
-5.07159e-11
3.14195e-12
-5.96309e-11
2.04122e-11
-3.4307e-11
1.5386e-10
-7.33472e-11
-9.66247e-11
5.78802e-11
-6.82488e-11
7.50771e-11
-1.05045e-10
-4.78071e-11
1.50369e-11
6.68889e-12
-5.28713e-11
1.37489e-10
1.16762e-10
-1.19291e-10
2.7605e-10
-9.63498e-11
6.19972e-11
-1.39816e-11
2.26584e-10
2.4018e-10
-1.58246e-10
-6.12459e-11
-7.07588e-11
5.2422e-11
2.62474e-11
-5.84859e-11
4.06216e-11
2.18243e-10
2.428e-12
-6.77352e-11
-7.55895e-11
2.02737e-11
-6.66258e-12
2.66938e-10
1.76982e-11
3.50732e-10
-4.11451e-11
-1.88345e-10
1.8185e-10
2.80828e-10
-1.35961e-10
-1.63972e-10
-2.13898e-12
-1.96899e-10
-1.40374e-10
-1.22787e-10
1.12632e-10
-1.14341e-10
-2.41921e-11
7.93994e-11
-1.42253e-10
1.39821e-11
-1.28493e-10
-2.28466e-10
3.88543e-11
1.72142e-10
1.72088e-10
1.28772e-10
-1.17621e-10
1.33476e-10
-1.59689e-10
2.80253e-11
1.13942e-10
-1.52511e-10
-2.15492e-10
3.59113e-11
-2.69896e-11
-7.74972e-11
9.61848e-11
1.34089e-10
6.51085e-12
-1.30925e-10
-1.01853e-10
-1.20893e-10
-1.3493e-11
2.96443e-11
9.89916e-11
1.8959e-10
-1.20543e-10
7.84215e-11
5.06579e-11
8.44121e-11
2.20351e-11
1.67906e-10
1.92484e-10
1.39967e-10
1.07809e-10
4.90833e-11
-1.34133e-10
-1.97059e-10
-1.65486e-10
-6.22404e-11
5.49337e-11
1.19103e-10
1.0659e-10
-1.40013e-10
9.83322e-11
2.23923e-10
1.13222e-10
2.3556e-10
8.4618e-11
-4.5003e-11
-1.21476e-10
-6.3812e-11
3.74009e-11
2.43738e-11
1.5426e-10
9.22133e-11
1.80364e-10
2.44342e-10
-2.51157e-11
1.02896e-10
6.61711e-11
-1.17371e-10
-5.60517e-11
1.49945e-10
7.59351e-11
-5.75981e-11
5.86402e-11
1.96164e-10
1.80899e-10
6.35662e-10
6.74702e-10
9.75213e-10
1.76517e-09
2.84276e-09
4.39377e-09
6.97127e-09
1.11544e-08
1.72746e-08
2.75372e-08
4.29759e-08
6.79842e-08
1.07457e-07
1.69638e-07
2.67815e-07
4.23053e-07
6.68524e-07
1.05572e-06
1.66884e-06
2.63708e-06
4.16773e-06
6.58618e-06
1.04133e-05
1.64555e-05
2.60164e-05
4.11428e-05
6.50959e-05
0.000103003
0.000163173
0.000258633
0.000410161
0.000650701
0.00103422
0.00164569
0.00261932
0.00416889
0.0066467
0.0105674
0.0167751
0.026717
0.0423341
0.0663506
0.104489
0.161711
0.245837
0.363275
0.535541
-3.27922e-11
4.86623e-11
-3.4135e-11
7.57548e-11
-7.09222e-11
3.4906e-11
-5.14676e-11
-3.71602e-11
-4.17057e-11
1.59628e-10
-6.07227e-11
-3.79002e-11
-3.75219e-12
-1.0119e-10
1.20837e-10
-1.65926e-10
8.60753e-11
-1.01516e-10
-9.24832e-11
2.27252e-11
9.30362e-12
-1.96435e-11
1.06623e-11
-5.86814e-11
2.21127e-10
1.33406e-10
3.56443e-11
8.772e-11
1.03552e-10
-1.73586e-11
2.15703e-10
3.78034e-10
-7.63354e-11
-6.53526e-11
-7.93612e-12
-9.05166e-11
1.5505e-10
-3.61235e-12
-2.19991e-11
1.35747e-10
-1.60805e-10
-2.32458e-10
-1.49913e-10
-1.30722e-11
1.34101e-11
6.78539e-11
-1.12576e-10
-3.20058e-11
-7.67975e-11
4.44924e-12
8.12974e-11
2.94358e-11
-5.46976e-12
-1.31494e-10
1.6447e-10
1.50581e-10
-9.00182e-11
-1.47464e-10
4.69571e-12
-1.679e-10
-2.61126e-11
2.55235e-10
9.79545e-11
-1.72472e-10
4.65664e-11
1.46655e-11
1.30608e-10
3.6829e-11
-4.91356e-11
1.79189e-10
-1.93179e-11
-7.71109e-11
-7.31543e-11
-3.9643e-11
1.11952e-10
-1.98324e-10
-9.51312e-11
1.98391e-10
-1.87673e-10
1.68794e-10
-3.42076e-12
-1.27107e-11
-5.75346e-11
-1.5704e-10
-5.76388e-11
-9.22026e-13
-6.20412e-11
5.27723e-11
2.2991e-10
4.25122e-11
1.60084e-10
2.00391e-10
1.76081e-10
1.25563e-10
1.11232e-10
-8.89719e-11
5.45668e-11
-3.24519e-11
-1.86293e-10
8.80838e-12
4.34353e-11
2.79083e-11
-1.96804e-10
-1.25515e-10
7.48085e-13
1.07903e-10
-1.63896e-10
1.30658e-11
-3.41022e-11
7.39226e-11
1.40073e-10
1.43098e-11
-1.29869e-11
-1.63092e-11
-8.49631e-11
9.69674e-11
2.41996e-10
-1.50202e-10
1.051e-10
7.07858e-11
7.4649e-11
9.95367e-11
-6.5493e-11
-2.63302e-11
-1.58535e-11
-4.97777e-11
2.08644e-11
-1.57916e-10
-3.25514e-11
-3.52487e-11
3.87417e-11
1.92086e-11
7.18291e-11
1.00822e-10
1.64456e-10
-1.841e-10
-2.31049e-10
3.20308e-12
-9.00014e-11
1.28248e-10
-2.14988e-11
2.45128e-10
7.93175e-11
6.83649e-11
9.83177e-12
5.3499e-11
3.11652e-11
-4.71181e-11
-8.53381e-11
-5.61419e-11
-7.76011e-11
-1.41719e-10
1.56694e-10
9.84265e-11
-9.36112e-11
-2.23068e-10
-1.49185e-10
1.34485e-10
2.77404e-13
1.77264e-10
-1.29953e-11
-1.16342e-10
4.19384e-11
1.70233e-10
1.51054e-10
9.57558e-11
2.67049e-12
1.39955e-10
2.47609e-10
2.03874e-10
-2.03988e-10
-1.57763e-11
1.49318e-10
-1.12727e-10
-1.58615e-12
-6.93129e-11
1.13673e-10
-6.64437e-11
8.49542e-12
1.46091e-11
-1.38904e-11
-1.38054e-10
-6.38051e-11
-1.03477e-10
1.25865e-10
5.91227e-11
-3.48403e-11
-1.46557e-11
-3.94535e-11
6.60857e-11
-1.95712e-10
-2.1642e-10
-1.38863e-10
2.14225e-11
5.38417e-12
-1.8409e-11
-7.6704e-11
-2.04892e-10
-7.00464e-11
-1.19542e-10
-1.3263e-10
9.91602e-11
8.84328e-12
-6.0263e-11
-1.4051e-10
-3.04642e-11
-9.24579e-12
4.73785e-11
6.66608e-11
-9.58874e-12
4.04587e-11
-4.42996e-11
2.17118e-12
3.40641e-10
-1.53414e-10
-1.02631e-10
2.31671e-10
1.14536e-10
5.6016e-11
-7.51505e-11
4.94758e-11
9.9953e-11
2.35297e-11
2.55445e-10
-8.47899e-11
-1.93926e-10
6.35772e-11
1.72464e-11
3.26446e-11
2.11841e-10
1.84708e-10
3.26317e-11
2.45014e-10
3.40653e-11
1.53621e-11
9.31314e-11
-3.90374e-11
1.22144e-10
6.85212e-11
1.27796e-10
1.23678e-10
-2.01463e-10
1.76498e-10
-6.67034e-11
-1.07586e-10
3.67157e-11
-1.21628e-10
2.24252e-11
3.626e-11
-1.67257e-10
-2.80969e-11
-6.17837e-11
2.01694e-10
1.91655e-10
7.63345e-10
1.29769e-09
1.69962e-09
2.87009e-09
4.28703e-09
6.6376e-09
1.06817e-08
1.6712e-08
2.63661e-08
4.14935e-08
6.53495e-08
1.03294e-07
1.62806e-07
2.56663e-07
4.0534e-07
6.398e-07
1.00986e-06
1.59428e-06
2.51722e-06
3.97465e-06
6.27319e-06
9.90629e-06
1.56375e-05
2.46873e-05
3.89766e-05
6.158e-05
9.72681e-05
0.000153744
0.000243162
0.000384844
0.000609049
0.000965073
0.00153141
0.002432
0.00385715
0.00612779
0.00973184
0.0153876
0.0243665
0.0386315
0.0604445
0.0945279
0.147215
0.225078
0.335435
0.503048
-2.46543e-11
-7.27112e-11
-1.29719e-10
-2.792e-11
9.9458e-11
3.60554e-12
1.14892e-10
4.83217e-11
-4.26486e-11
2.5722e-11
-1.11394e-10
1.67878e-11
2.70866e-10
-3.73919e-11
1.21037e-10
-6.42462e-11
-8.66928e-11
-3.72664e-11
7.38725e-11
-8.85095e-11
1.50724e-10
2.60472e-10
3.72214e-11
-1.67112e-10
1.98417e-10
1.20063e-10
3.33593e-11
8.96186e-11
-4.1066e-11
3.96956e-11
1.35361e-10
-5.80192e-11
-9.2906e-12
-2.08559e-10
-6.52551e-11
-5.3016e-11
3.91835e-11
2.94676e-12
-1.85889e-10
5.51774e-11
6.3167e-11
7.42944e-11
-6.91769e-11
5.36195e-11
3.25826e-11
-2.72975e-11
-4.52889e-11
6.2244e-11
1.29288e-10
9.58064e-11
1.12233e-10
1.15113e-10
-4.77022e-11
-8.64049e-11
5.21781e-11
-3.37267e-11
-2.10899e-11
-2.25094e-10
-1.66425e-10
-1.24008e-10
-8.92908e-11
7.34739e-11
3.20135e-10
-6.50977e-11
-1.02296e-10
-8.68139e-11
-1.18929e-10
-2.01279e-10
-9.79274e-11
-1.82989e-10
-3.69157e-11
3.39387e-11
4.10855e-11
6.89535e-11
-1.48634e-10
-1.44502e-10
-2.4394e-10
-7.11925e-11
-1.27454e-10
-9.49024e-11
7.95412e-11
7.53863e-12
-1.12521e-10
1.29503e-10
1.46282e-11
-7.58898e-12
2.04992e-10
1.62277e-10
4.82566e-12
1.25881e-11
3.42478e-10
6.2981e-11
1.69722e-10
1.09641e-10
3.3068e-11
6.85957e-11
1.9653e-11
1.08259e-10
1.51806e-10
1.19597e-10
1.51904e-11
-9.62739e-11
-3.6122e-11
-9.29325e-11
4.38259e-11
1.84578e-13
-1.09516e-11
2.12019e-10
4.81922e-12
9.70993e-11
5.10661e-11
7.38273e-11
1.78198e-10
1.67746e-10
1.08008e-10
-1.03035e-10
-2.20459e-11
-8.08104e-11
4.10143e-11
7.07253e-11
9.59818e-11
9.0843e-11
-4.7075e-11
1.4548e-10
-2.70719e-11
-2.09815e-10
-1.27483e-10
-1.07275e-10
-4.92903e-11
-1.25521e-11
-4.1277e-11
-1.69067e-10
-1.8742e-10
5.3533e-11
2.65603e-11
1.97308e-10
-3.95361e-11
1.36463e-10
1.09225e-10
-1.97676e-11
7.13793e-11
-1.63222e-11
3.88497e-11
-1.90446e-11
1.22693e-10
1.78345e-11
6.99061e-11
6.67801e-13
2.34853e-11
1.93477e-11
2.69653e-11
2.25279e-11
-7.65633e-12
-1.5454e-10
-2.80799e-11
8.69972e-11
-9.6359e-11
1.71404e-10
1.39582e-10
6.3678e-11
3.43892e-11
-1.38643e-10
1.8262e-10
-4.81173e-11
-1.86596e-10
6.23701e-11
2.23233e-11
2.84025e-11
1.36487e-11
-4.02407e-11
1.81033e-10
-7.98988e-13
3.82062e-11
3.33217e-11
-4.57649e-11
2.11373e-11
1.10098e-10
3.04257e-11
-4.46699e-11
-3.87299e-11
8.00104e-12
-1.11157e-10
-8.01271e-11
2.3279e-11
-5.96059e-11
-2.48679e-11
6.31222e-11
1.98028e-11
3.74892e-11
-4.63578e-11
-8.07155e-11
-2.66002e-11
-2.58058e-11
-1.24864e-10
-1.94675e-10
-1.65931e-10
-1.33311e-10
-6.06536e-11
-8.56508e-11
-9.22977e-11
-7.30108e-11
7.89221e-12
-1.11172e-10
-1.12344e-10
-4.13614e-11
2.58601e-11
1.05779e-10
-6.03969e-11
-7.19188e-11
1.96128e-10
2.50337e-11
1.11349e-10
3.40314e-11
-3.73667e-11
-7.59222e-11
2.86584e-11
2.90883e-11
-6.48512e-11
1.88045e-11
3.81416e-11
1.15899e-10
1.57185e-10
-1.1105e-11
6.69696e-11
-1.84855e-11
-5.45136e-11
5.54655e-11
-2.62081e-10
1.87021e-11
1.17132e-10
8.11995e-11
9.80503e-11
-1.24859e-10
-5.7245e-11
-6.2786e-11
2.33865e-11
1.16092e-10
1.61088e-11
1.15982e-10
5.06006e-11
-3.67308e-11
1.67151e-10
1.92537e-11
-1.57964e-10
9.04072e-11
-1.28666e-10
-8.1385e-11
1.98703e-10
6.68022e-11
2.14466e-10
7.47477e-11
7.78452e-11
2.85192e-10
2.8645e-10
9.20616e-10
9.09255e-10
1.49511e-09
2.72623e-09
4.10511e-09
6.27139e-09
1.00333e-08
1.54886e-08
2.4401e-08
3.85084e-08
6.06877e-08
9.50265e-08
1.50223e-07
2.37061e-07
3.73086e-07
5.8841e-07
9.27478e-07
1.46194e-06
2.30446e-06
3.63253e-06
5.72279e-06
9.0197e-06
1.42123e-05
2.23916e-05
3.52689e-05
5.55957e-05
8.76052e-05
0.000138064
0.000217673
0.000343539
0.00054206
0.000855768
0.00135372
0.00214395
0.00338569
0.00535759
0.00849614
0.0133912
0.021109
0.0334581
0.0522863
0.0814175
0.127046
0.19566
0.292751
0.447315
4.59682e-11
5.10627e-11
2.54459e-11
1.61925e-11
-1.92487e-10
-2.73119e-11
2.08041e-11
-9.11151e-11
-6.30585e-12
1.35478e-10
6.52659e-11
-3.35022e-11
-8.35886e-11
2.75494e-11
-2.81609e-11
9.61216e-11
1.51145e-10
-4.26916e-11
-2.92601e-10
5.9244e-11
5.8555e-11
2.6218e-10
1.65075e-10
-5.80222e-11
-6.82855e-12
3.2216e-11
-6.08133e-11
-5.4794e-11
7.0224e-11
-3.25897e-11
-8.97451e-11
2.95772e-10
1.44689e-10
8.19477e-12
6.51195e-11
-1.16235e-11
-7.75252e-11
-1.21164e-10
-4.26216e-11
-1.69149e-10
-2.48069e-10
3.52302e-11
4.78473e-12
-1.1116e-10
6.29153e-11
1.33491e-10
-2.47367e-10
-8.52161e-11
-9.84013e-12
-2.18924e-11
4.08763e-11
1.85403e-11
8.25523e-11
-1.04653e-10
7.46005e-11
5.89534e-11
8.41314e-11
1.90162e-11
-2.12847e-10
-8.5623e-12
2.68935e-11
-1.04062e-10
-8.9915e-11
1.5834e-11
-7.45645e-11
2.94656e-11
-3.55272e-11
-4.54959e-11
1.58261e-10
-1.52288e-10
1.23901e-10
9.0909e-11
5.85989e-11
-1.5843e-11
1.02471e-10
1.44965e-10
-1.49389e-10
-2.51662e-10
-2.06148e-10
-9.43565e-12
-4.70892e-11
-2.32652e-10
8.796e-11
-6.72693e-11
-1.92908e-10
-6.86121e-11
7.37331e-11
-4.07005e-11
4.71356e-11
-8.02267e-11
-2.41704e-11
-1.52911e-11
-1.24819e-10
-1.53931e-10
-4.35669e-11
-5.70183e-11
-6.51966e-11
-6.97326e-12
5.00073e-11
-7.74401e-11
2.08637e-11
1.89392e-10
1.01669e-10
6.01402e-11
2.21329e-10
1.14168e-10
7.45785e-11
1.48605e-10
9.29873e-11
5.95696e-11
6.87276e-11
-1.26845e-10
-1.11333e-10
-3.05246e-10
9.40177e-11
1.8357e-10
3.86388e-11
-6.81618e-11
-1.31643e-12
-1.02299e-10
-7.40577e-11
-1.81824e-10
-7.61866e-11
-1.65631e-10
4.46134e-11
-1.40258e-10
-3.5258e-10
-7.79367e-11
-1.9694e-10
-2.54841e-10
-6.65787e-11
5.49705e-11
-1.60913e-10
-1.18963e-10
2.20264e-11
-1.29766e-10
-7.80211e-11
8.09722e-11
9.9039e-11
2.33598e-10
-8.67357e-11
1.66763e-10
1.47386e-10
-4.38126e-11
1.10363e-10
1.8712e-10
-1.58826e-10
2.29099e-10
6.10608e-11
1.30185e-10
2.09152e-10
9.11641e-12
2.17785e-10
1.56473e-10
-4.81962e-11
-3.39057e-13
-1.90975e-10
-6.4334e-11
-3.78818e-11
7.06872e-11
1.18119e-10
-9.58853e-11
2.67941e-11
1.14264e-10
-2.78802e-11
-2.23651e-11
1.6638e-10
3.46252e-11
-7.10016e-11
1.17525e-10
-3.00931e-11
6.0191e-11
-3.00702e-11
8.7183e-12
-2.47033e-10
-1.21057e-10
-7.02799e-11
1.08078e-10
1.54566e-10
1.19565e-10
2.12223e-10
8.7987e-11
2.82033e-11
-5.38276e-12
-6.86797e-12
9.3803e-11
-1.82723e-10
-2.87338e-10
1.79822e-10
1.40391e-10
7.49126e-11
-2.28859e-10
1.06142e-10
-8.15257e-12
7.5321e-11
1.17658e-10
1.40635e-10
1.28482e-10
3.8785e-11
-2.56049e-11
-2.10664e-10
-1.29606e-12
-1.34925e-10
3.61238e-11
9.63234e-11
8.88783e-11
-1.17227e-10
5.19193e-11
4.16121e-11
2.08779e-10
5.35749e-11
1.00041e-10
-2.77524e-11
-3.06642e-11
-1.81416e-11
-1.29e-10
-2.17506e-10
-2.06287e-11
9.4906e-12
-1.61944e-11
2.06878e-10
-6.73059e-11
-7.77366e-11
1.51847e-10
-1.21741e-10
7.17983e-12
1.43597e-10
-6.17736e-11
2.43497e-12
5.15326e-11
1.91092e-10
2.18511e-10
3.56018e-11
1.11595e-10
-7.84067e-11
-1.60241e-11
-2.83513e-11
-1.51116e-10
1.15821e-10
-6.98021e-11
-2.11295e-10
-1.74825e-10
-1.26596e-10
-1.9818e-10
-3.48905e-11
2.85823e-11
-7.92411e-11
2.37126e-12
6.18725e-11
6.75183e-11
3.38798e-10
2.79889e-10
2.98519e-10
3.92801e-10
7.41934e-10
9.22279e-10
1.60015e-09
2.38502e-09
3.46255e-09
5.49636e-09
8.67669e-09
1.38126e-08
2.20664e-08
3.45587e-08
5.41856e-08
8.53949e-08
1.34094e-07
2.11093e-07
3.3218e-07
5.22943e-07
8.22525e-07
1.29401e-06
2.03533e-06
3.20242e-06
5.03457e-06
7.91672e-06
1.24468e-05
1.95657e-05
3.07391e-05
4.83276e-05
7.59566e-05
0.000119348
0.000187525
0.000295011
0.000464012
0.000729824
0.00115036
0.00181681
0.00285908
0.00450457
0.0071278
0.0112136
0.0175991
0.0278605
0.0435822
0.0676643
0.105611
0.163828
0.24614
0.380498
8.81457e-13
1.23158e-12
6.37208e-11
-9.05751e-11
-3.21996e-11
-1.88892e-11
-3.97046e-11
8.88025e-11
1.26172e-10
3.31706e-11
-8.97624e-12
-1.09357e-10
-1.84546e-11
3.60014e-11
2.34186e-11
1.75354e-10
-4.42486e-11
-3.67529e-11
-1.90179e-10
-3.67034e-11
4.08056e-11
-9.97898e-11
3.39229e-11
-7.40468e-11
-1.11403e-10
1.21954e-10
-4.96674e-11
-2.28309e-10
1.75418e-10
6.54817e-12
7.21245e-11
-6.56524e-11
-3.42981e-11
1.20015e-10
-1.52784e-10
-9.37284e-11
-1.30867e-10
-1.17833e-10
-1.18994e-10
-1.09151e-10
1.38289e-12
1.39656e-10
-3.15773e-11
1.40702e-10
2.19323e-10
1.06434e-11
-2.17323e-11
-1.92234e-11
-8.93838e-11
5.99363e-11
1.10197e-10
1.45291e-10
-3.87167e-11
2.21187e-10
2.28665e-11
-1.14774e-10
2.69829e-10
4.20527e-11
-1.76677e-10
-1.01354e-10
8.57853e-11
-1.57785e-10
1.04737e-10
1.47646e-10
3.97306e-11
-1.13036e-10
-1.31125e-10
-9.27502e-11
8.05322e-12
3.37383e-11
6.25161e-11
-8.05116e-12
-2.1395e-11
-2.88456e-11
2.36407e-11
1.2363e-10
4.35655e-11
-7.03338e-12
1.95081e-10
1.75844e-10
1.16293e-10
-5.84559e-11
-5.83105e-11
-1.07851e-10
-1.33968e-10
1.49729e-10
2.31386e-11
-1.03897e-10
-1.28948e-10
-1.46876e-10
-1.71227e-10
1.03013e-10
-1.65991e-10
-1.48867e-10
7.13189e-11
4.67697e-11
2.891e-10
2.08713e-11
-3.54382e-11
-3.92412e-12
-1.28724e-10
-3.71101e-11
-2.08798e-11
-5.1683e-11
8.86115e-11
1.77096e-10
1.56004e-10
8.28117e-11
1.22042e-11
-1.78899e-11
-2.69461e-11
-1.32581e-11
1.42074e-11
-9.48501e-11
-1.94507e-10
-9.42609e-11
2.77439e-11
2.20562e-10
-1.16038e-10
-2.15776e-10
1.44958e-10
1.66681e-10
3.01073e-11
3.03924e-11
-7.39258e-11
6.32411e-12
-2.10282e-10
-8.22119e-11
-1.88641e-10
6.03579e-11
-5.60446e-11
-1.2077e-10
-5.78932e-11
-1.14146e-10
1.6156e-11
5.3953e-11
-5.13708e-11
-3.46455e-10
1.58665e-11
1.69024e-11
-1.74443e-10
-8.1559e-11
1.16481e-10
2.50624e-10
1.21356e-10
-1.06902e-10
-4.71849e-11
2.6474e-12
-1.11333e-10
2.07705e-10
1.88303e-10
-4.03638e-11
-1.44282e-10
-4.26755e-12
2.31156e-13
1.66563e-10
-3.55945e-11
1.00777e-10
1.61626e-10
-1.42969e-10
-1.89551e-10
2.60408e-10
-3.0099e-11
-5.75371e-11
-6.88694e-11
-2.98532e-10
2.72067e-11
-1.05836e-10
-3.11501e-10
-1.90038e-10
1.12158e-10
8.76614e-11
-6.13593e-11
-1.49744e-10
-2.26077e-10
-5.19606e-11
-1.80935e-10
-2.03808e-10
-7.92789e-11
-1.02119e-10
2.83271e-11
-1.80619e-10
-3.41093e-12
-1.45138e-10
2.25654e-11
-2.75479e-10
-4.5861e-11
6.09559e-11
-2.39216e-10
-1.36003e-10
5.50155e-11
8.7285e-11
1.36201e-10
8.89194e-11
1.96473e-10
1.80806e-10
-8.74123e-11
1.05043e-10
1.85526e-10
-6.01226e-11
-1.08857e-10
-6.26979e-12
2.79054e-11
-8.8537e-11
-8.09098e-11
2.80357e-11
-5.05835e-11
3.17698e-11
2.65859e-11
-3.95174e-11
-1.51335e-10
-2.85796e-11
-4.56306e-11
8.79995e-11
9.94334e-11
1.0423e-12
9.46771e-11
-1.17717e-10
-1.21491e-11
5.68567e-11
5.3369e-11
2.33074e-10
6.18141e-11
1.37247e-10
8.69236e-11
1.09335e-10
-1.16466e-11
1.73984e-10
9.51177e-11
2.48827e-10
9.54101e-11
4.53003e-11
6.49503e-11
-1.76307e-10
-1.40319e-10
-8.61977e-11
-1.95416e-10
-1.99274e-10
-2.13671e-10
1.10607e-11
1.27248e-12
-4.65881e-12
1.38119e-10
-3.39979e-11
-1.09493e-10
-7.8571e-11
-1.16585e-10
4.76004e-11
1.9431e-10
3.03991e-11
3.72886e-10
2.69339e-11
7.06314e-11
3.67749e-10
4.67547e-10
9.062e-10
1.38607e-09
2.04412e-09
3.21121e-09
4.99556e-09
7.49827e-09
1.2095e-08
1.91637e-08
2.99269e-08
4.69531e-08
7.4108e-08
1.16483e-07
1.82849e-07
2.87059e-07
4.5118e-07
7.08396e-07
1.11215e-06
1.74553e-06
2.74082e-06
4.29987e-06
6.74635e-06
1.05833e-05
1.65995e-05
2.60138e-05
4.07944e-05
6.39582e-05
0.000100221
0.000156981
0.000246211
0.000386121
0.000605254
0.000950702
0.0014974
0.00234943
0.00368731
0.00582215
0.00914793
0.0143083
0.0226181
0.0354324
0.0549383
0.0857436
0.133843
0.202002
0.314899
2.40546e-11
4.49918e-11
-7.41977e-11
3.55681e-11
-7.85895e-11
2.79171e-11
1.39348e-10
1.81756e-10
-7.47021e-11
-9.57761e-11
-8.94075e-12
-8.74385e-12
-2.14053e-11
2.72595e-11
-9.18497e-11
1.22429e-10
-9.53101e-11
-2.86005e-10
1.5568e-10
1.93239e-10
4.49196e-11
1.47758e-10
-1.42923e-10
-1.03361e-10
-5.27927e-12
3.5554e-11
1.67061e-10
1.06256e-10
-6.81028e-11
4.79518e-12
1.46429e-10
-9.49849e-11
-2.6857e-11
6.19988e-11
-1.12146e-10
2.4647e-11
-1.06484e-11
3.44242e-11
5.86907e-11
-1.08715e-10
1.04494e-10
3.89927e-11
-1.06544e-10
-5.37469e-11
1.6224e-11
-3.01745e-12
-1.46187e-10
-1.67146e-13
8.21717e-11
-8.33244e-11
1.33487e-10
-1.31123e-11
-1.3419e-10
2.41503e-11
1.36381e-10
1.67827e-10
-1.43997e-10
-1.90078e-11
1.74328e-10
1.35794e-10
1.10882e-10
-4.37739e-11
1.9159e-11
-7.0232e-12
-1.29954e-10
-1.73285e-10
-7.15912e-11
9.11748e-12
4.58072e-11
-2.16211e-10
1.03185e-10
-1.89667e-11
1.07435e-10
3.41249e-11
-3.53396e-12
-1.06898e-11
-5.99948e-12
8.864e-11
3.94451e-11
6.5227e-11
3.02468e-11
-6.23713e-11
4.59456e-11
4.44069e-11
-2.6551e-10
-9.84499e-11
-1.62556e-10
-6.86261e-11
6.36664e-11
1.11552e-11
2.85926e-11
-2.03904e-10
-8.51422e-11
4.56974e-11
9.83509e-11
2.37832e-10
1.95678e-10
-4.89245e-11
1.09873e-12
4.48504e-11
2.29501e-11
-8.02553e-11
-1.74836e-10
-5.45278e-11
-9.38133e-11
-1.29952e-10
1.68593e-10
3.56727e-11
-2.94559e-11
7.278e-11
-2.54841e-11
-2.21346e-10
-2.07013e-11
7.27534e-12
-1.37018e-10
6.94217e-11
6.51975e-11
5.07575e-12
-2.42362e-11
2.57205e-11
1.10237e-10
1.24948e-11
-1.12132e-10
-7.42202e-12
2.94964e-11
-5.1596e-11
-8.63508e-11
-3.08837e-12
-7.87669e-11
1.03517e-10
3.47842e-11
-1.50994e-11
7.05919e-11
1.58258e-10
1.04521e-10
4.03238e-11
-1.46789e-11
-8.45231e-11
-1.1956e-10
1.7551e-11
2.18756e-11
1.95615e-10
1.63303e-10
-2.97753e-11
9.71489e-12
-3.69745e-12
-4.54219e-11
1.75307e-11
-3.37566e-11
1.86462e-10
-1.66541e-10
-3.6022e-12
-5.21774e-11
-2.01082e-10
1.61826e-10
-1.38335e-10
-3.17887e-10
4.26603e-12
1.42446e-10
-5.81254e-11
-1.55835e-10
-8.48449e-11
-4.50912e-11
7.36307e-11
-8.12164e-11
-1.13036e-10
-1.02319e-11
-1.38291e-10
-8.66375e-11
-2.73471e-10
-8.13145e-11
-1.09368e-10
2.14895e-11
-8.02593e-11
-7.78412e-11
1.93355e-10
1.33892e-10
-1.2759e-11
1.89261e-10
-6.48152e-11
-1.35428e-10
2.4937e-10
1.59663e-10
7.54087e-11
-1.74554e-10
-5.87345e-12
8.38052e-11
-9.3737e-11
1.89416e-11
-9.62996e-11
5.23735e-11
1.02502e-10
-6.46749e-11
1.03847e-10
-4.27575e-11
2.18323e-10
-3.31148e-11
-4.25678e-11
-1.52101e-10
-9.09691e-11
2.29129e-10
-8.41104e-11
-6.84765e-11
1.32901e-10
5.1516e-13
5.55432e-11
1.07342e-10
-5.74236e-11
2.66313e-10
-3.97445e-11
-2.11563e-10
-4.22832e-11
1.44837e-10
9.34837e-11
1.13376e-10
5.04337e-11
2.78751e-11
-1.38096e-10
-1.2714e-10
1.65316e-10
1.4074e-10
-9.34546e-11
-1.74342e-12
2.09209e-10
-1.20421e-12
-1.73594e-10
-3.7363e-11
-2.15195e-11
1.55904e-10
-1.21969e-11
1.43854e-11
-3.84401e-11
-2.18393e-10
9.35876e-11
-5.20402e-11
6.29657e-13
2.90363e-11
1.28969e-10
1.72346e-10
2.66082e-10
2.3476e-10
1.65555e-10
6.73651e-11
5.29937e-11
1.20355e-10
7.57756e-11
1.61715e-10
-5.42472e-11
1.13303e-10
-3.54169e-12
1.12069e-10
1.90085e-10
-1.11117e-10
3.33552e-10
4.20391e-10
5.69864e-10
1.09274e-09
1.65174e-09
2.82129e-09
4.16565e-09
6.55778e-09
1.02114e-08
1.64697e-08
2.53944e-08
4.01889e-08
6.30294e-08
9.85839e-08
1.54601e-07
2.42269e-07
3.79977e-07
5.95295e-07
9.3282e-07
1.46131e-06
2.28993e-06
3.58632e-06
5.61461e-06
8.78975e-06
1.37581e-05
2.15136e-05
3.36603e-05
5.26569e-05
8.23176e-05
0.000128593
0.000201154
0.000314659
0.000491825
0.00077019
0.00121003
0.00189365
0.00296218
0.00466713
0.00732467
0.0114266
0.0180366
0.0282883
0.0438404
0.0684211
0.10733
0.16267
0.255217
-1.38136e-11
-6.0183e-11
-6.70317e-11
5.10545e-11
2.77377e-11
3.09167e-11
1.4311e-10
-4.95872e-11
6.01323e-11
-1.89428e-10
-4.76391e-11
5.62702e-12
1.87616e-10
-8.64876e-12
-9.95715e-11
-1.28391e-10
-7.29649e-12
1.27695e-12
-5.75729e-11
-6.64347e-11
6.69815e-11
-3.32182e-11
1.64177e-10
6.87509e-12
5.46118e-11
2.41293e-10
3.19849e-11
-1.05259e-10
-7.57181e-11
4.72195e-12
1.84964e-11
6.14195e-11
8.71897e-14
-5.96649e-12
-2.02863e-11
-4.67644e-11
8.76414e-12
-4.51095e-11
-1.01229e-10
8.49208e-11
1.59153e-10
-4.89502e-11
-1.82971e-10
-3.09067e-11
-1.08527e-10
-1.19088e-11
1.49835e-10
7.64791e-11
-7.53851e-11
-1.20594e-10
-1.02938e-10
1.7154e-11
2.14651e-10
1.6456e-10
-7.79245e-11
-5.68556e-11
1.21043e-10
1.75365e-11
-9.76652e-11
2.64811e-11
1.19032e-10
-5.67739e-11
6.09965e-11
1.0281e-10
1.20977e-11
-2.1126e-11
-1.44838e-10
-1.37226e-10
-1.50639e-10
4.68852e-11
6.15358e-11
1.36344e-10
1.06331e-10
8.44247e-11
3.37873e-11
7.59317e-11
-1.90565e-10
7.69026e-11
9.69261e-11
-7.29945e-11
-1.97509e-10
-6.94198e-11
-4.51244e-11
1.10211e-10
-3.21154e-12
2.12663e-10
-3.80861e-11
1.16187e-10
9.48584e-11
-8.95414e-11
9.80344e-12
5.61509e-12
8.74238e-11
1.38139e-10
8.59697e-11
6.68385e-11
-1.03709e-10
1.01258e-10
9.87662e-11
-5.44334e-11
-1.33453e-10
-1.379e-10
-1.72425e-11
4.31888e-11
5.17988e-12
-3.37467e-10
-1.78144e-10
-1.45559e-10
-1.76784e-11
1.82754e-13
2.08833e-11
6.58886e-11
-1.73401e-10
-2.53639e-10
-1.14748e-10
-1.45097e-11
3.32718e-11
-4.15672e-12
-5.08914e-11
-9.01602e-12
-1.86268e-10
-4.17954e-12
1.42682e-10
3.21555e-12
5.61444e-11
5.40121e-11
2.67608e-10
9.04933e-11
1.54366e-10
1.41347e-10
1.64931e-10
4.05433e-11
-1.23526e-10
-1.1325e-10
9.62294e-11
-5.30638e-12
9.79782e-11
1.61498e-10
1.84273e-12
-7.12988e-11
-2.47071e-11
1.65837e-10
7.82899e-11
1.45074e-11
1.69366e-10
7.37308e-11
-2.46001e-11
4.71844e-11
8.64951e-11
9.07593e-11
-7.59568e-12
-5.03292e-12
-3.53306e-11
8.40038e-11
-7.95066e-11
1.86663e-10
1.82624e-10
-1.85958e-10
-3.50978e-10
-2.3658e-10
-1.22233e-11
5.70483e-11
-1.43103e-10
-9.07766e-11
-1.79977e-10
8.38649e-11
7.3894e-11
-1.00134e-12
-1.52861e-10
7.98134e-11
-6.48769e-11
-3.4777e-12
-1.40659e-10
-1.47527e-10
2.551e-10
-9.12596e-12
-1.21301e-10
6.28667e-11
1.74613e-12
-5.33498e-11
-1.20942e-10
-2.61169e-11
-2.488e-12
-2.84813e-10
9.53939e-11
5.40747e-11
1.01786e-10
-2.80308e-11
-7.57184e-11
1.16155e-10
-2.38389e-10
-3.43129e-11
2.0612e-10
-6.72029e-11
4.90072e-11
1.09317e-10
-1.02775e-10
2.73188e-10
1.70346e-10
-5.03459e-11
-2.48903e-11
-1.15537e-10
1.01076e-10
1.74137e-10
3.29101e-11
-2.77121e-11
-7.26928e-11
1.86877e-10
1.01644e-10
8.05325e-11
1.98406e-11
3.49554e-11
1.42999e-10
7.15148e-11
9.51806e-11
6.82521e-11
1.03807e-10
8.47398e-11
6.58073e-11
1.11809e-11
1.64117e-11
1.56293e-11
-4.11927e-11
-1.70047e-10
-1.7667e-10
-1.41808e-11
-1.48664e-10
-2.32596e-10
-1.10099e-10
-1.95041e-10
-2.19978e-10
1.72745e-10
2.82715e-10
1.39235e-10
2.78757e-10
2.70252e-10
1.54563e-10
2.55417e-10
-8.24553e-12
-5.7858e-12
2.71044e-11
-3.5389e-11
6.11061e-11
8.67994e-11
-2.44709e-11
1.31344e-10
2.10916e-10
-4.47917e-13
-6.62854e-11
4.94075e-11
-4.99796e-12
2.87775e-11
3.64426e-10
2.18658e-10
4.56539e-10
7.27981e-10
1.03752e-09
1.61169e-09
2.25325e-09
3.53875e-09
5.5605e-09
8.66761e-09
1.38319e-08
2.14282e-08
3.33758e-08
5.22873e-08
8.18616e-08
1.28268e-07
2.00264e-07
3.13721e-07
4.90902e-07
7.675e-07
1.20002e-06
1.87749e-06
2.93458e-06
4.58599e-06
7.16598e-06
1.11971e-05
1.74762e-05
2.72899e-05
4.26117e-05
6.64843e-05
0.000103632
0.000161754
0.000252493
0.000393741
0.000615051
0.000964211
0.00150569
0.00234882
0.00369333
0.00578957
0.00901211
0.0142043
0.0222924
0.0345375
0.0538926
0.0848358
0.129023
0.203408
-2.4919e-11
3.16764e-12
-5.45268e-11
-3.05337e-11
-5.62458e-11
-5.03052e-11
1.00169e-10
-6.60611e-11
8.77865e-11
4.64081e-13
4.79595e-11
1.16056e-12
1.7347e-10
1.63127e-10
-1.28213e-12
-1.30978e-10
-1.96318e-10
1.12581e-10
2.96709e-11
-5.55739e-13
-2.18772e-11
2.01141e-10
-7.31687e-11
9.95788e-11
2.98233e-11
-1.34641e-10
-1.33799e-11
3.00754e-11
3.87101e-11
6.40506e-11
-4.53551e-11
-3.00799e-11
-6.87397e-11
-4.60237e-11
-3.36144e-11
-6.77478e-11
-3.82327e-11
6.20328e-11
-1.64459e-11
-1.26558e-10
2.40018e-10
2.59106e-10
1.17266e-10
2.05645e-10
9.70754e-11
2.69353e-11
-2.56482e-10
5.41747e-11
5.77138e-11
-5.68867e-11
-9.52666e-11
-4.08651e-11
-1.09521e-10
2.78083e-11
-3.48029e-11
-1.83741e-10
-1.5038e-10
1.16208e-10
-2.87367e-11
-9.37641e-12
1.48704e-10
1.03502e-10
-8.51201e-11
2.02237e-11
7.201e-11
2.3822e-10
1.86015e-10
9.63264e-11
-1.78759e-11
-3.20204e-11
1.36311e-10
7.97407e-11
1.88128e-11
-2.0424e-10
-8.71903e-11
6.42243e-11
-5.24222e-11
6.88536e-11
2.41418e-10
1.04278e-10
3.81639e-11
-1.39216e-10
-3.13807e-10
-2.12488e-10
-2.62145e-11
-6.76732e-11
2.14591e-10
1.57501e-10
3.54717e-13
1.92973e-11
1.52629e-11
-4.23437e-11
2.29393e-11
-1.86243e-10
-5.36914e-11
-1.16666e-10
-1.25001e-10
-2.0601e-10
-2.91621e-10
-4.41513e-11
-3.10654e-10
1.08564e-10
1.69191e-11
-1.31449e-10
-2.46456e-10
-8.49333e-11
1.07227e-10
-2.58975e-10
-1.89599e-10
-1.6942e-11
-2.87297e-12
1.80377e-10
-3.73455e-11
-1.34827e-11
1.40315e-11
1.51961e-10
1.40193e-10
6.59307e-11
1.94026e-10
1.26154e-10
1.77385e-10
8.51349e-11
-9.01923e-11
1.12589e-10
1.13073e-11
1.48709e-10
2.66413e-10
7.78532e-11
1.0336e-10
-3.44033e-12
-2.67922e-11
7.64548e-11
3.32007e-10
7.42619e-11
-2.12323e-11
8.64772e-11
-6.37886e-12
-2.56305e-11
-2.11201e-10
6.46629e-11
-1.26478e-11
-1.21349e-10
2.32984e-11
-1.60044e-10
8.65847e-11
6.5999e-11
4.5334e-11
1.0647e-10
3.8463e-11
-3.90495e-11
1.45089e-10
2.39964e-10
1.05005e-10
1.56359e-10
8.10284e-11
1.16322e-10
1.41012e-10
-2.26686e-10
-1.84416e-10
-8.61929e-11
4.32817e-11
-8.96631e-11
-2.71432e-10
-1.66053e-10
-1.2094e-10
-1.48334e-10
-1.2501e-10
-3.75104e-13
-1.07294e-10
-5.86181e-11
-2.96811e-10
-1.5838e-10
3.84347e-11
-7.41688e-11
4.50529e-11
5.97585e-11
-1.35445e-10
-1.39133e-10
2.62464e-11
-7.03008e-11
6.73146e-11
1.83798e-10
1.22079e-10
-1.29633e-10
-3.04229e-11
-1.18161e-10
-9.73694e-11
4.15767e-11
-2.32244e-11
-1.60707e-11
1.16096e-10
1.33652e-10
-1.40958e-11
1.0468e-10
2.60444e-10
-6.70173e-11
-3.74951e-11
-1.21819e-10
1.38004e-11
5.19558e-11
1.38343e-11
-3.56055e-11
-3.75631e-11
5.31751e-11
1.86299e-10
1.05377e-10
3.41272e-11
9.65254e-11
1.96711e-10
1.43251e-10
5.51433e-11
4.67913e-10
1.82336e-10
1.54472e-10
2.01203e-10
6.43487e-11
1.50516e-10
5.2037e-11
1.47639e-10
-2.44843e-11
4.30313e-11
-6.09253e-11
5.6686e-11
5.79982e-11
-2.12718e-11
7.63749e-11
-2.78364e-11
-1.20934e-10
-1.0877e-10
6.51247e-11
2.69332e-10
-2.59058e-11
-2.73361e-10
-1.35305e-10
-1.412e-10
-1.03894e-10
-6.21116e-11
7.98339e-11
6.77863e-12
-1.39733e-10
-1.45423e-10
-2.48595e-10
-6.10015e-11
-1.80997e-12
1.21512e-10
4.43281e-11
9.93378e-11
1.43834e-10
3.7758e-11
1.11043e-10
1.49188e-10
3.0478e-10
2.2417e-10
6.17048e-10
4.33157e-10
6.3896e-10
9.78564e-10
1.30293e-09
1.97357e-09
2.97673e-09
4.56531e-09
7.23866e-09
1.12939e-08
1.75359e-08
2.73139e-08
4.28073e-08
6.70617e-08
1.04478e-07
1.62912e-07
2.5482e-07
3.98039e-07
6.21419e-07
9.70394e-07
1.5154e-06
2.36456e-06
3.68964e-06
5.75675e-06
8.9811e-06