/*--------------------------------*- C++ -*----------------------------------*\
| =========                 |                                                 |
| \\      /  F ield         | OpenFOAM: The Open Source CFD Toolbox           |
|  \\    /   O peration     | Version:  2412                                  |
|   \\  /    A nd           | Website:  www.openfoam.com                      |
|    \\/     M anipulation  |                                                 |
\*---------------------------------------------------------------------------*/
FoamFile
{
    version     2.0;
    format      ascii;
    arch        "LSB;label=32;scalar=64";
    class       volScalarField;
    location    "0.0035";
    object      ddt0(rho,e);
}
// * * * * * * * * * * * * * * * * * * * * * * * * * * * * * * * * * * * * * //

dimensions      [1 -1 -3 0 0 0 0];

internalField   nonuniform List<scalar> 
180000
(
-1.63869e-05
1.6752e-05
-9.27417e-07
3.55744e-05
-1.09168e-06
-1.05847e-05
3.81151e-06
-1.22742e-05
7.15302e-05
2.91006e-05
-9.97288e-06
-4.3904e-05
-2.34233e-05
2.65289e-05
4.3807e-06
-1.41556e-05
7.37603e-06
3.52489e-05
3.28998e-05
6.38173e-06
-1.22151e-05
-2.20804e-05
-1.15318e-05
-7.31796e-05
-5.11314e-05
-4.32883e-05
-3.23451e-06
5.40142e-05
-3.66521e-05
-2.29081e-05
4.90107e-05
2.18578e-05
2.15861e-05
-4.32804e-06
-4.08031e-05
7.45363e-06
8.01981e-05
1.25775e-05
2.0998e-05
-4.67819e-05
-2.5651e-05
3.0382e-05
-5.91444e-05
-9.90961e-05
3.10385e-06
-8.22469e-05
6.48441e-06
6.14629e-05
1.08493e-05
9.19667e-06
-7.17708e-05
-4.04994e-05
-6.25782e-07
7.78891e-05
7.04346e-05
4.53277e-06
-0.000121002
-2.54832e-05
-3.37688e-05
-2.97962e-05
4.83212e-05
4.64384e-06
5.75252e-05
6.0439e-05
6.3907e-05
9.11578e-05
4.48828e-05
-3.67233e-05
-8.78908e-05
-8.02233e-05
-1.07499e-05
3.3939e-05
-5.76319e-05
1.78555e-05
5.24357e-05
1.69484e-05
-1.64141e-05
-1.00284e-05
7.08499e-05
-3.01048e-06
4.18839e-05
-1.51589e-05
-3.33427e-05
-6.39651e-06
-6.53583e-05
-7.81312e-05
-5.12029e-05
-7.41429e-05
-6.47152e-05
-2.61438e-05
1.79547e-06
2.58191e-05
-7.10181e-06
-9.44396e-06
-7.07116e-05
-1.80721e-05
3.53167e-05
4.78648e-05
-4.02881e-07
7.66961e-06
-4.88411e-05
-2.45618e-05
1.38053e-05
6.74833e-06
-4.20981e-05
-0.000170604
-2.80938e-05
-1.38145e-05
-1.54046e-06
5.73298e-05
4.10151e-05
5.05379e-05
6.13848e-05
0.0001386
0.000117638
4.42427e-05
3.57811e-05
1.64922e-05
-1.95779e-05
5.99142e-05
-2.68142e-05
2.41672e-05
4.29471e-06
-1.61215e-05
1.00189e-05
-2.43259e-05
-4.54647e-05
1.62771e-05
-1.1661e-05
1.57573e-05
-7.40407e-06
-1.7159e-05
-5.92372e-05
4.75364e-05
8.39964e-05
8.30411e-06
1.9821e-05
-2.55351e-05
4.34283e-06
2.4196e-05
1.19569e-05
-7.21228e-06
5.90432e-05
1.63119e-05
1.42192e-05
6.05056e-05
-9.20011e-05
3.18383e-05
-1.65407e-05
-4.73636e-05
-0.00011677
-0.000109652
4.65592e-05
5.68281e-06
3.56648e-05
6.6539e-06
-7.22001e-06
2.74586e-06
-3.69457e-05
-7.36809e-05
8.15989e-07
3.67325e-05
5.79861e-05
2.70047e-05
2.23779e-05
-9.09928e-05
-3.78267e-05
-0.000136104
1.53414e-05
7.11384e-05
-0.000104334
-0.000146664
-2.73977e-06
3.28493e-05
-2.50961e-05
3.15303e-05
1.29177e-05
3.45152e-05
-3.66712e-05
6.73764e-05
3.13928e-06
1.21937e-07
6.03945e-05
2.44742e-05
0.000100886
0.000118793
6.93893e-05
-4.17477e-05
-6.11227e-05
-6.19164e-05
6.48257e-05
-4.12964e-05
4.40024e-05
-2.14688e-05
-8.37774e-05
4.19973e-05
0.000110215
1.86881e-05
3.40016e-05
4.72191e-05
-3.70945e-05
-8.04141e-05
-2.26944e-05
4.29008e-05
3.42738e-05
7.51496e-05
2.06561e-05
1.34478e-06
-2.73921e-05
-4.67642e-05
5.92366e-05
1.711e-05
1.99186e-05
1.10278e-05
1.55824e-05
-3.15354e-05
-6.18466e-05
-5.79018e-05
-1.34786e-05
-1.19771e-05
6.92555e-05
0.000101446
5.41992e-05
3.69053e-05
2.95902e-06
-2.23155e-05
1.35334e-06
5.91639e-05
-1.49788e-05
-9.51166e-05
-3.49772e-05
-5.81727e-05
-2.61032e-06
5.57402e-05
5.9002e-05
7.4161e-05
3.04873e-05
1.50924e-05
-3.72633e-05
-2.3452e-05
-0.0001093
-0.000147027
-4.30103e-05
-3.93066e-06
-5.11774e-06
5.45403e-05
2.17598e-05
-4.2147e-05
-1.56135e-05
5.32808e-05
2.69285e-05
2.24942e-05
6.11555e-05
-4.88295e-06
9.14479e-05
0.000195048
0.000196494
0.000241759
0.000377714
0.000548281
0.000840774
0.00141872
0.00214059
0.00355207
0.00552367
0.00869348
0.0137258
0.0217094
0.0342701
0.0541807
0.0858269
0.135546
0.214355
0.339175
0.536442
0.847698
1.34213
2.12298
3.35555
5.30824
8.41383
13.3215
21.0986
33.4697
53.1369
84.1449
133.582
213.564
341.494
542.059
869.129
1399.95
2228.22
3624.19
6039.68
9735.94
16301.4
27979.6
47806.6
74746.6
1.61809e-07
-2.75269e-05
3.83874e-05
-2.43528e-05
-1.36069e-05
-2.18695e-05
1.16763e-05
3.41477e-05
3.02319e-05
-3.25095e-05
2.22014e-05
3.6699e-05
1.80065e-05
5.39792e-05
-4.55276e-05
8.99884e-06
-7.27849e-05
-2.09013e-05
4.35571e-05
-1.72931e-05
-3.06094e-05
3.42739e-07
1.16768e-05
1.8998e-05
-6.85896e-05
-5.95706e-05
1.8634e-05
1.10569e-05
3.63416e-05
4.62682e-05
-0.000117427
-0.000185851
-2.67108e-05
3.48384e-05
1.10343e-05
1.69512e-05
-3.08143e-05
-4.41877e-06
-6.96272e-07
-8.71249e-05
-1.20556e-05
4.15027e-05
-4.48596e-06
-3.47279e-05
-5.0257e-07
-1.86404e-05
3.75916e-05
3.98347e-05
6.32165e-05
1.42046e-05
-1.87253e-05
-6.96572e-06
2.43156e-05
5.28141e-05
-3.03909e-05
-5.37202e-05
1.39089e-05
1.13771e-05
-3.42132e-05
1.83261e-05
-7.95858e-07
-8.44867e-05
-1.40193e-05
8.77455e-05
2.9452e-05
1.51976e-05
-4.09983e-05
3.57292e-05
6.28421e-05
-1.27173e-05
2.31387e-05
2.60015e-05
1.80807e-05
1.15113e-05
-3.36749e-05
3.5804e-05
1.47817e-05
-4.83667e-05
4.51735e-05
-6.67033e-05
1.53737e-05
2.49604e-05
1.94866e-05
3.24119e-05
3.82258e-05
3.90203e-05
3.10156e-05
1.47917e-05
-5.21811e-05
1.31708e-05
-7.00788e-05
-0.000100612
-9.58617e-05
-5.91789e-05
-2.53908e-05
8.1628e-06
-1.37453e-05
1.34379e-05
7.47854e-05
1.56589e-05
-3.1589e-06
-3.0847e-05
-1.87479e-06
-1.39358e-05
-2.46061e-05
-4.16506e-05
4.35105e-05
-1.22125e-05
1.07174e-05
-5.64574e-05
-7.7106e-05
2.80041e-05
6.47865e-05
7.34374e-05
0.000109844
-2.93977e-05
-7.95506e-05
7.51755e-05
-1.65528e-05
-6.00683e-05
-5.50066e-05
-4.27264e-05
-1.92813e-05
6.85877e-06
3.72894e-05
3.27521e-05
9.68923e-06
6.19695e-05
3.28238e-05
5.01799e-05
4.49571e-05
7.52956e-06
-3.26427e-05
-5.97963e-05
-9.40503e-05
5.7553e-05
0.000174084
3.31744e-05
3.65529e-05
-1.974e-05
2.35162e-05
-5.82554e-05
-5.35861e-05
-5.33218e-05
-4.62992e-05
-6.05975e-05
-4.26284e-05
-6.76221e-06
3.08172e-05
1.51334e-05
2.15425e-05
1.12574e-05
-7.20247e-05
-2.31537e-05
6.87685e-05
0.000132597
9.81595e-05
1.28657e-05
4.38392e-05
-4.48745e-05
1.23288e-06
6.01912e-05
-3.51541e-06
-6.8028e-05
-6.50582e-05
-2.37118e-05
1.74619e-05
-2.86056e-05
-0.000121736
-9.83207e-05
6.64379e-05
3.02895e-05
-1.91518e-05
5.77905e-05
3.16256e-06
1.28813e-06
-6.71e-05
-9.72198e-06
2.72448e-06
-3.59172e-06
-1.98311e-05
6.66713e-05
6.76583e-05
6.82106e-05
9.48122e-06
-2.31859e-05
2.27727e-05
8.76583e-06
2.57829e-06
-3.25019e-05
4.33158e-05
5.46265e-05
-7.45559e-06
-5.51442e-05
-3.42014e-05
-5.60518e-06
3.62466e-05
9.53552e-05
4.9007e-05
6.04225e-05
5.31238e-05
-6.76641e-05
-4.77834e-05
-4.03767e-06
2.20787e-05
1.5301e-06
9.60233e-06
-6.19788e-06
-3.64504e-05
2.95844e-05
3.89349e-05
4.21686e-05
1.9319e-05
-9.60224e-05
9.82898e-05
0.000109837
-6.72681e-05
-3.75372e-05
4.99495e-05
7.95277e-05
1.65838e-05
-2.33289e-05
-2.80772e-06
-7.84218e-05
1.29287e-05
7.86557e-05
1.85555e-05
7.94861e-06
-1.23167e-06
-6.06521e-05
-4.72301e-05
-1.39592e-05
-8.46871e-05
7.91902e-06
2.3058e-06
-2.42428e-06
3.48232e-05
8.8884e-06
1.19674e-05
3.06518e-06
-5.14958e-05
3.42831e-05
-8.61001e-05
-3.25185e-05
1.09919e-05
-1.8616e-05
2.78116e-05
-2.05709e-05
-3.17501e-06
8.59006e-05
3.86215e-05
7.7429e-05
5.87051e-05
0.000169794
0.000128737
7.94745e-05
0.000173986
0.000179013
0.00035271
0.000567654
0.000820855
0.00136523
0.00215206
0.00335352
0.00528252
0.00826061
0.0131036
0.0208053
0.0328024
0.0517861
0.0818252
0.129294
0.204046
0.322179
0.509278
0.80377
1.26979
2.00671
3.16909
4.99943
7.90639
12.5041
19.7516
31.2116
49.4374
78.1925
123.553
196.161
313.399
496.276
785.7
1263.61
2010.56
3184.44
5244.93
8480.15
13594.4
22648.8
38360.9
59435.1
4.72198e-06
2.79493e-05
3.11308e-05
6.49818e-06
-5.32235e-05
7.13848e-07
-8.22271e-06
-3.42928e-05
1.81685e-05
-3.72909e-06
5.73032e-05
-9.30279e-06
-9.3311e-05
-4.01829e-06
-5.2733e-05
5.11072e-05
7.6767e-05
1.71991e-05
6.96465e-06
0.000104992
5.40061e-06
-0.000112663
7.0873e-07
6.95399e-05
-5.63988e-05
-7.99129e-05
-2.13896e-05
-4.1554e-05
4.86815e-05
1.69999e-05
-7.08372e-05
-4.1679e-05
-2.45248e-05
7.00401e-05
5.85574e-05
2.62251e-05
-2.21915e-05
-1.82894e-05
2.34752e-05
-4.83048e-05
-4.91447e-05
-5.59191e-05
-4.89648e-06
-8.38857e-06
2.14139e-05
3.01785e-05
3.87224e-05
1.80502e-05
-1.40097e-05
-1.6094e-05
-4.40027e-05
4.44205e-07
6.04082e-05
4.0078e-05
-6.10408e-05
-4.11755e-05
-3.40837e-05
6.50026e-05
5.67659e-05
5.05837e-05
5.14518e-05
-6.20628e-05
-0.000148339
-2.76931e-05
-3.10496e-06
-3.36598e-06
1.13641e-05
4.06545e-05
5.84831e-05
8.77964e-05
3.05467e-05
-3.92484e-05
-2.41911e-05
-3.80716e-05
4.17844e-05
3.49918e-05
9.28555e-05
3.0052e-05
7.73605e-05
6.2772e-05
8.14632e-06
3.65072e-06
4.34755e-05
-6.2249e-05
-3.26365e-06
-8.61618e-06
-0.000101341
-4.50076e-05
2.36762e-05
5.22548e-05
-7.4675e-05
6.71745e-06
-4.43333e-05
-2.73695e-05
3.4137e-05
1.66351e-05
2.94069e-05
-9.60565e-06
-4.05686e-05
-5.48316e-05
-3.94668e-05
2.21097e-06
2.90917e-05
3.99055e-06
-4.40139e-06
6.22083e-05
1.83899e-05
-7.74165e-05
5.4676e-05
1.75348e-05
1.11311e-05
-2.23244e-05
-7.1196e-05
-7.78193e-05
-7.02533e-05
-8.51367e-06
-5.04008e-06
1.05969e-05
1.69728e-06
-2.77758e-05
-2.7e-05
-4.26704e-05
-3.47952e-05
-9.61001e-05
-4.63685e-05
3.98429e-05
3.24979e-05
1.44683e-05
7.53867e-06
-7.38411e-06
1.20689e-05
5.43106e-05
9.18929e-05
1.99784e-05
1.81488e-05
-5.45928e-05
1.32021e-05
-2.02575e-05
-3.37413e-05
2.3813e-05
3.07507e-05
5.63033e-05
-1.00633e-06
-4.16301e-05
-6.94775e-05
-3.07341e-05
-1.88547e-05
1.25907e-05
4.15895e-06
-2.8468e-06
-1.68954e-05
-1.65797e-05
3.0778e-05
7.07823e-05
3.61585e-05
-1.62906e-05
7.05746e-05
-1.19257e-05
-1.13836e-05
-2.57379e-05
-3.45429e-05
5.66355e-05
-3.05814e-05
1.35153e-05
4.99756e-05
-2.55144e-05
-1.68965e-05
1.39774e-06
1.18616e-05
-9.46977e-06
-5.06558e-05
1.67918e-05
1.44988e-05
1.19628e-05
1.95522e-05
-1.70714e-05
-3.11097e-05
4.25963e-06
3.80207e-05
3.77098e-05
1.17885e-05
5.57231e-05
4.49495e-05
3.25629e-05
7.41581e-05
-2.29752e-06
-3.98615e-05
-1.81154e-05
-3.91023e-05
-2.80497e-05
-2.02194e-05
-7.24493e-05
-3.34767e-05
-2.23718e-05
1.08462e-05
1.08808e-05
2.36413e-05
6.82728e-06
4.44409e-05
2.09291e-05
2.67804e-05
-1.84908e-05
1.89975e-05
3.07498e-05
3.71623e-05
1.14507e-05
-2.46384e-05
3.55604e-05
3.44765e-05
-4.18638e-05
-1.17192e-06
-2.95573e-05
-1.25238e-05
-4.68561e-06
3.32021e-05
1.33479e-05
-9.44418e-06
2.82914e-05
4.42222e-05
1.12027e-05
-4.10325e-05
-5.35443e-05
1.70094e-05
-2.12241e-05
-1.39107e-05
-4.39898e-06
-3.63712e-05
8.85801e-05
-2.50709e-05
-3.78497e-05
-3.78291e-05
-3.18913e-05
4.73134e-05
3.94674e-05
2.46668e-05
1.14579e-05
1.20682e-05
1.23332e-05
-5.52231e-05
-1.59309e-05
1.47765e-06
-0.000109599
-3.6726e-05
7.83623e-05
-1.28788e-05
9.43579e-05
8.12608e-05
-2.5706e-05
-1.95825e-05
-6.62973e-05
7.15111e-06
5.98136e-05
2.58334e-05
8.11988e-05
-4.80976e-05
0.000142792
0.000271827
0.000211111
0.00032522
0.000526858
0.000769942
0.001255
0.0019339
0.0030694
0.00481616
0.00779843
0.0121655
0.0190255
0.0301797
0.0474702
0.074808
0.117961
0.185866
0.29295
0.462278
0.728211
1.14708
1.80877
2.85229
4.48675
7.07215
11.1617
17.5837
27.643
43.6204
68.9348
108.441
171.022
272.988
430.414
672.833
1080.66
1723.58
2680.9
4364.2
7064.39
11077.4
17942.5
30496.5
46551.2
-3.96225e-06
-1.21844e-05
-1.86174e-05
-1.87224e-05
5.09906e-05
1.8728e-05
-1.07981e-05
3.03026e-05
6.42503e-06
-4.49002e-05
-3.84921e-05
8.25942e-06
4.53078e-05
1.11015e-05
3.10846e-05
-3.97437e-05
-7.57206e-05
-2.2549e-07
0.000109997
-5.66055e-06
-4.50579e-05
-0.000130122
-6.30392e-05
4.23614e-05
2.18773e-05
1.45471e-06
3.13416e-05
1.1662e-05
-9.63799e-06
7.96174e-06
3.707e-05
-0.000108759
-9.94373e-05
-3.6537e-05
-3.50721e-05
-7.7194e-06
-3.06756e-05
-1.18538e-05
-1.37022e-05
7.77728e-05
9.8068e-05
-3.07511e-05
1.79713e-05
2.74087e-05
9.2136e-06
-2.44241e-05
0.00013316
5.39633e-05
9.23499e-06
1.43252e-05
2.56464e-05
-1.36333e-06
-9.14121e-06
1.29629e-05
-5.3875e-05
-4.09682e-05
-6.912e-05
-1.27621e-05
9.67865e-05
3.98231e-05
-1.35309e-05
4.47308e-05
3.51731e-06
-3.19504e-05
-2.01159e-05
-4.24846e-05
-1.6855e-06
1.4198e-05
-4.12032e-05
3.92301e-05
-4.87278e-05
-2.81843e-05
-8.78997e-06
2.29478e-05
-3.52492e-05
-7.30362e-05
1.1643e-05
0.000104319
0.000102126
9.95252e-06
7.77837e-05
0.000109988
-1.75768e-06
-3.25179e-06
4.02115e-05
-3.37411e-05
-5.49023e-05
-4.20303e-05
-6.40264e-06
2.90319e-05
-1.01514e-05
-2.72835e-05
1.21411e-06
4.01096e-05
2.36182e-05
3.37487e-05
4.33344e-05
3.60413e-05
4.84151e-05
0.000107557
0.000106412
-3.30953e-05
-5.44815e-05
-2.02809e-05
-9.08609e-05
-6.30328e-05
-5.52009e-05
-7.08926e-05
-2.6875e-05
-2.42234e-05
-5.34579e-05
3.27503e-05
6.79959e-05
0.000114387
-4.95088e-05
-0.000116979
-5.9363e-05
-5.64779e-05
-3.11677e-05
3.02077e-05
-2.25509e-05
2.15295e-05
-1.74234e-05
1.00396e-05
-6.39604e-05
-1.24306e-05
9.27647e-05
2.24438e-06
6.30105e-05
8.34124e-05
1.9814e-05
-5.60094e-06
5.137e-05
4.01653e-05
1.55865e-05
5.22085e-05
5.46307e-05
2.0896e-05
-1.22817e-05
-6.06851e-05
4.43764e-05
-2.55568e-07
2.05887e-05
3.47529e-05
-3.72508e-06
4.84026e-06
9.8614e-05
-6.42584e-05
-1.77644e-05
-4.85412e-05
-8.66495e-05
-3.13497e-05
-0.000105392
-8.1631e-05
-4.70674e-05
-1.46939e-05
5.93757e-05
4.84245e-05
3.21271e-05
2.49139e-05
1.63397e-05
6.19648e-05
-4.80892e-06
-6.96032e-05
-1.65003e-05
-1.77183e-06
-9.17587e-05
-1.34834e-05
3.3878e-05
-4.24236e-05
4.26688e-05
-2.63963e-05
-1.49894e-05
3.18272e-05
0.000113975
0.000112009
2.75497e-05
-1.8044e-05
-5.11929e-05
-5.26952e-05
-0.000115746
-4.71329e-05
1.59473e-06
1.18596e-05
2.07361e-05
-3.37817e-05
7.71495e-05
0.000141977
-5.26241e-05
-6.96263e-05
8.98202e-06
0.000104872
-2.37168e-05
-6.13346e-06
-1.93048e-05
-6.18402e-05
-5.4365e-05
-7.98934e-05
-5.00868e-05
-1.55107e-05
7.70101e-05
2.86929e-05
5.93539e-05
-2.62996e-05
-3.14539e-05
2.69989e-07
4.90598e-05
7.13084e-06
-3.30386e-05
-0.000133145
-7.00419e-05
-6.31803e-05
-4.0957e-05
7.3137e-06
2.53201e-05
0.000124936
0.000175361
7.27492e-05
4.19889e-05
2.44132e-05
-2.26068e-05
6.54374e-05
2.15994e-05
-7.959e-05
3.05374e-05
6.94773e-06
-4.3429e-05
3.32887e-05
3.63368e-05
-1.52061e-06
-8.90759e-05
-9.39274e-05
-2.77865e-05
-1.569e-05
6.23841e-05
4.01545e-05
4.53328e-05
4.21498e-05
-6.62307e-05
-1.11636e-05
7.55656e-05
5.14649e-05
5.0989e-05
8.01851e-05
5.96839e-05
-1.31824e-06
5.20724e-05
2.73528e-05
3.2075e-05
1.74078e-05
-5.91681e-05
-4.62469e-05
9.82114e-06
1.18108e-05
-4.37737e-05
4.96387e-05
6.37556e-05
8.82832e-05
0.000275805
0.000492497
0.000755863
0.00111842
0.00173
0.00276136
0.00440861
0.00683208
0.0108142
0.0169887
0.0266822
0.0419253
0.0660321
0.103826
0.163337
0.256652
0.404072
0.635379
0.998163
1.56953
2.46995
3.87546
6.08641
9.5806
15.0596
23.567
37.0107
58.3714
91.5484
143.472
228.38
359.804
556.798
887.879
1422.5
2189.97
3507.64
5698.44
8860.35
13964.5
23739.8
35863.7
2.76267e-06
9.53149e-06
-3.81019e-05
1.51745e-05
1.24735e-05
-7.83504e-06
2.61935e-05
-4.67889e-05
-8.36118e-07
1.36704e-05
2.64029e-05
6.47625e-05
2.6649e-05
7.98787e-06
-1.47671e-05
-8.47707e-05
-8.89063e-06
-8.31047e-06
2.90547e-05
-1.70503e-05
-6.36032e-05
-5.40584e-06
-1.71009e-05
4.42733e-05
5.38304e-05
-3.28432e-06
4.57712e-05
8.3718e-05
-7.09946e-05
-3.38104e-05
-4.28099e-05
-2.76892e-05
-3.23309e-05
-6.39828e-05
3.56686e-05
3.35664e-05
4.86476e-05
3.8777e-05
8.17426e-05
6.48287e-05
5.19191e-05
8.08596e-06
2.17249e-05
-2.38859e-05
-6.63605e-05
-3.0291e-05
-2.14198e-05
-7.82293e-06
6.24153e-05
2.45692e-06
-3.1328e-05
-8.55378e-05
-1.15034e-05
-5.45864e-05
-2.01539e-06
3.48203e-05
-7.40632e-05
-1.92844e-05
0.000101061
5.98835e-05
-3.46108e-06
4.87277e-05
-7.82126e-06
-8.73027e-05
-3.0091e-05
-6.11502e-06
3.53156e-06
4.05414e-06
-2.92723e-05
1.41325e-06
5.78407e-06
1.65234e-05
1.93111e-05
1.04514e-05
1.28666e-05
-2.62408e-05
-1.11774e-05
9.41648e-06
-2.27113e-05
-5.70992e-05
-2.57389e-05
3.09809e-05
2.61326e-05
2.72206e-05
2.25267e-05
-7.8495e-05
-6.50079e-05
2.01575e-05
5.24464e-05
4.09063e-05
7.19089e-05
-5.06035e-05
4.41776e-05
6.19388e-05
6.62089e-06
-2.75875e-05
-0.000119362
-2.20513e-05
1.84327e-05
9.28906e-06
3.31223e-05
1.72523e-05
3.80466e-05
4.02068e-05
-2.00971e-05
-8.05667e-05
-5.58345e-05
-4.67979e-05
-2.87321e-05
-1.25792e-05
9.59237e-07
-2.91008e-05
-7.44696e-05
2.76186e-06
4.1488e-05
2.92417e-05
-1.51956e-05
-9.04932e-05
3.31539e-05
7.63322e-05
-5.32522e-05
-6.35251e-05
-4.56701e-05
-3.3368e-05
-1.0665e-05
-5.88902e-05
5.28986e-05
1.53243e-05
4.54128e-05
-2.89439e-05
-2.93297e-05
-2.05543e-05
2.09949e-05
2.93697e-05
1.55533e-05
-1.23022e-05
2.05576e-05
0.0001147
-5.34358e-06
1.43083e-05
9.44949e-05
6.24532e-05
-3.77144e-05
-9.37325e-05
-7.3964e-05
2.14459e-05
2.31329e-05
3.55786e-06
2.80854e-05
-8.51609e-05
-9.18e-05
3.68111e-05
8.39366e-05
3.34738e-05
-2.81951e-06
-5.33811e-05
-2.08024e-05
-5.94312e-06
-5.38121e-05
3.91793e-05
6.00091e-05
-0.000101036
-1.49681e-05
3.64418e-06
2.60228e-05
0.000116925
9.15403e-06
4.92981e-05
0.00018257
0.000136474
-6.29228e-05
-8.41555e-05
-6.45037e-06
1.87607e-05
9.37837e-05
1.02164e-05
5.09384e-05
5.74084e-05
4.14932e-05
1.68083e-05
-6.249e-05
3.10466e-05
2.57988e-05
9.56351e-05
7.94421e-06
6.68613e-05
1.29679e-05
-2.03609e-05
8.4865e-05
5.1573e-05
-9.83202e-06
1.21555e-05
3.0503e-05
-1.22958e-05
-8.35105e-05
-8.09721e-05
-3.05754e-06
-4.80103e-05
-5.70883e-05
3.17727e-05
2.83957e-05
-1.58136e-05
-5.27165e-05
-2.1523e-05
2.09476e-05
-1.95304e-05
5.53618e-06
-4.67774e-05
-4.49509e-05
8.42787e-06
3.77426e-05
1.89727e-05
-3.57654e-06
-2.51443e-05
-2.98277e-05
2.24478e-06
-2.0664e-05
5.66513e-05
4.23583e-05
-8.64121e-06
-1.41365e-05
-4.3554e-05
2.94785e-05
8.48714e-06
2.59562e-05
-2.51254e-05
1.17928e-05
-3.88326e-05
-2.719e-05
-7.53758e-05
-7.71535e-05
-4.39334e-05
-3.10145e-05
7.03528e-05
6.60012e-05
5.45019e-05
9.98056e-05
0.000114136
9.1429e-05
-3.04946e-06
-2.50259e-06
3.74743e-06
-4.00012e-05
1.45791e-05
7.2684e-05
6.24572e-05
6.21832e-05
-1.30245e-05
-8.38582e-05
-1.51121e-05
-0.000107031
6.71604e-05
0.000100026
3.85733e-05
6.26312e-05
1.1266e-05
6.5703e-05
9.50405e-05
0.000130619
0.000326917
0.000696875
0.000982433
0.00147625
0.00241576
0.00385916
0.00593596
0.00932592
0.0146795
0.02304
0.036008
0.0565079
0.0886992
0.139308
0.218405
0.342998
0.538202
0.843198
1.32212
2.07666
3.25087
5.08875
7.98901
12.5337
19.544
30.5582
48.0894
75.2549
117.285
186.067
293.146
450.425
713.189
1147.31
1756.78
2772.76
4515.76
7013.62
10821.2
18355.2
27518
3.46558e-06
-2.20235e-06
1.73761e-05
-1.30841e-05
2.51895e-05
-3.20025e-06
-4.35342e-05
-5.18405e-05
2.05692e-05
2.77098e-05
-1.4498e-05
-2.68514e-07
-2.17008e-06
-1.52464e-05
-1.41731e-05
-3.74083e-05
8.09513e-05
9.82177e-05
-3.97324e-05
-8.74811e-05
-3.23602e-05
-5.79537e-05
3.8442e-05
3.06656e-05
2.48178e-06
1.45428e-05
-3.47317e-05
-2.49727e-05
2.59176e-05
-3.60132e-08
-7.7844e-05
6.53586e-06
-3.13073e-06
-5.19857e-05
2.25492e-05
1.76672e-05
3.68178e-05
1.51868e-05
3.70919e-05
7.00462e-05
2.68353e-05
-1.21765e-05
5.10343e-05
8.5895e-06
-2.42961e-05
3.29778e-05
9.48329e-05
3.24132e-05
-1.23286e-05
2.56262e-05
-7.51948e-05
-3.78972e-05
1.11442e-05
-3.51778e-05
-6.17712e-05
-6.23751e-05
4.41377e-05
2.0742e-06
-3.48961e-05
-9.17284e-06
-3.41983e-05
-5.11651e-06
-6.20007e-05
-7.84451e-05
-1.98136e-05
5.79284e-05
2.78418e-05
2.32536e-06
4.35591e-06
8.86062e-05
1.93256e-05
1.72273e-05
-4.31204e-05
-1.20531e-05
1.23641e-05
3.34658e-05
-5.43073e-06
-6.81101e-05
-1.00063e-05
-3.67798e-05
-7.27227e-05
-6.31846e-05
-7.90667e-05
-3.97632e-05
9.90174e-05
6.13198e-05
7.34063e-05
7.95173e-05
2.54961e-05
3.53193e-05
2.24534e-05
0.000134815
8.37407e-05
2.14229e-05
-2.56442e-05
-9.81968e-05
-0.000105751
-4.81008e-05
-2.37659e-05
-3.50569e-05
-4.26393e-05
-1.23043e-05
4.77591e-05
3.84775e-05
3.77084e-05
7.00279e-05
-7.10175e-05
-2.66022e-05
9.36939e-07
-5.63607e-05
-1.44423e-05
2.25409e-05
3.12603e-06
-2.11258e-05
1.24778e-05
-6.42332e-05
-5.2393e-05
-4.41795e-06
-2.35786e-05
-4.88135e-05
-7.70124e-05
1.40159e-06
7.07329e-05
4.42145e-05
3.9201e-05
4.37792e-05
6.13398e-05
8.33969e-07
1.50925e-05
-3.67646e-05
-3.97192e-05
1.22729e-05
-1.14484e-05
-4.96552e-05
-4.42741e-05
-3.2516e-05
1.11621e-05
4.36485e-05
5.84128e-05
1.28016e-05
2.46518e-06
-7.00135e-05
-8.10505e-05
6.11401e-07
-2.53173e-06
-3.17036e-05
1.81515e-05
7.27555e-06
8.18232e-06
-8.44282e-05
1.16818e-05
-4.08481e-05
1.76411e-05
4.67076e-05
-0.000118326
2.37178e-05
0.000115406
8.90946e-06
-4.19286e-05
3.15478e-05
7.38828e-05
6.11818e-05
3.77126e-05
-3.44948e-05
1.40511e-05
2.18419e-05
-1.81031e-05
1.04749e-05
8.9316e-06
0.000116906
6.49633e-05
6.91631e-05
5.89976e-05
6.25849e-05
7.9066e-05
-3.7401e-05
-1.06347e-05
1.40377e-05
-5.63185e-05
3.51355e-05
9.77783e-05
-2.85383e-05
-4.39096e-05
-1.27399e-05
3.60406e-05
-1.50766e-06
-3.42194e-05
3.47859e-05
2.46084e-05
6.00769e-05
-1.58544e-07
-7.61019e-05
-3.27391e-05
-5.35086e-05
-2.20993e-05
-8.72668e-05
-3.25775e-05
-1.26991e-07
4.72126e-05
1.73614e-05
-8.33919e-05
4.66104e-05
1.878e-05
-6.38287e-05
-3.32665e-05
-3.48886e-05
-5.99559e-05
-2.26049e-05
-0.000111273
1.41691e-05
0.000103275
4.86324e-05
-7.01464e-06
9.21162e-06
1.26781e-05
8.19049e-06
2.23672e-05
6.64206e-05
7.3101e-05
-4.48997e-05
-6.30355e-05
4.99283e-05
3.77295e-05
-7.28091e-05
-1.91404e-06
0.000107785
4.61994e-05
4.44658e-05
-7.18232e-05
-5.8946e-05
-1.52338e-05
3.8196e-05
8.03445e-05
-2.94201e-05
2.92685e-05
4.56335e-05
4.58985e-05
9.19457e-06
-3.66395e-05
-0.000113496
-9.1161e-05
-4.56297e-05
-1.27549e-05
-5.03999e-06
-5.42082e-05
-2.71538e-05
-4.77632e-05
5.98448e-05
3.94361e-07
2.29444e-05
-5.67257e-05
-5.05954e-05
0.000105479
-1.02309e-05
4.06449e-05
0.000131262
8.38888e-05
0.000129569
0.000154769
0.000339628
0.000543892
0.00093928
0.00133214
0.0021518
0.0032087
0.00495159
0.00786224
0.0122996
0.01927
0.0301472
0.047277
0.0741
0.116127
0.181651
0.284307
0.44532
0.696218
1.08904
1.70728
2.66742
4.16387
6.52108
10.2135
15.8819
24.7434
38.8594
60.7112
94.2216
148.998
234.688
358.824
564.674
910.821
1391.01
2170.54
3539.02
5504.47
8362.73
14139.6
21070.8
-1.1106e-05
1.20054e-05
2.56805e-05
5.45031e-06
-3.99234e-05
-7.94791e-06
-6.10907e-05
-7.58481e-06
1.48779e-05
6.98358e-05
2.95562e-05
2.19826e-06
-7.74072e-05
4.84994e-06
3.13884e-05
3.29407e-05
-1.81292e-05
-7.40069e-07
2.9153e-05
3.0489e-05
-3.46508e-05
2.49234e-05
-8.38394e-06
1.83184e-05
-2.21141e-05
-0.000104857
5.36702e-06
7.83356e-05
5.70752e-05
-1.70092e-05
-4.07164e-05
-2.84757e-05
-1.21018e-05
-2.10039e-05
2.09571e-06
3.2362e-06
1.80176e-05
4.4494e-05
5.11234e-05
-4.34711e-05
-0.000103224
-1.94775e-06
9.10626e-05
4.05385e-05
6.90886e-05
3.35915e-05
-4.61873e-05
-4.83847e-05
2.45202e-05
4.63689e-05
4.03118e-05
-1.93154e-05
-9.45977e-05
-7.71214e-05
3.29757e-07
6.0133e-05
1.23212e-05
5.20849e-06
6.00331e-05
3.06494e-05
-8.38218e-07
4.68036e-05
-5.02931e-06
-8.07982e-05
-2.09515e-05
-1.04338e-05
2.38455e-05
3.33424e-05
5.30585e-05
-1.8043e-05
-3.34941e-05
-5.95349e-05
-4.7682e-05
-4.27238e-05
-1.91385e-05
-3.44403e-05
6.65758e-05
-3.97524e-05
-4.51227e-05
2.29517e-05
5.63559e-05
1.50497e-05
2.56183e-05
-2.09604e-05
-2.20967e-05
-0.000106065
-2.17707e-05
-2.63992e-05
-1.35086e-05
7.0399e-05
1.89449e-05
2.69723e-06
-4.82916e-06
-7.15238e-05
-3.42765e-05
-1.46106e-05
4.08623e-05
-7.29957e-05
-0.00010771
1.59626e-05
5.06689e-05
5.71385e-05
7.45992e-06
-3.5622e-05
-1.07228e-05
8.53067e-05
-6.8253e-06
1.60599e-05
8.52987e-06
-9.13676e-06
-3.09036e-05
-7.52193e-05
3.36031e-05
0.000103646
4.85661e-05
-1.39932e-05
3.49959e-06
-1.46511e-06
1.15484e-05
2.70434e-05
7.50497e-05
4.41582e-05
-2.85866e-05
4.95997e-05
2.32475e-05
2.2313e-05
-6.59364e-05
-3.22237e-05
-9.51824e-06
-2.91001e-05
-7.02577e-05
-4.34793e-05
4.55832e-05
5.01235e-05
2.24691e-06
2.13607e-06
-3.73499e-05
-5.43491e-05
-6.41531e-06
6.67083e-05
3.22901e-05
-2.95231e-05
2.03777e-06
2.18076e-05
-7.53703e-05
-3.28217e-05
1.2278e-05
-3.49384e-05
-6.88223e-05
-6.67013e-05
-4.55417e-05
-2.39949e-05
-2.9433e-06
-4.34746e-05
-3.64846e-05
-0.000115041
-0.000104435
5.24542e-05
0.000149793
0.000107008
4.38171e-06
2.73842e-05
4.92208e-05
3.63892e-05
7.57556e-05
-2.63287e-06
-5.34474e-05
-2.75989e-05
3.95056e-05
-1.35584e-05
3.22939e-05
4.14968e-05
8.8293e-05
6.14047e-05
-4.59062e-05
-4.36471e-06
7.31166e-05
2.03251e-05
6.28211e-05
6.82999e-05
0.000100297
4.45944e-05
2.12777e-05
0.000128049
-1.48273e-05
-5.46028e-05
-6.79324e-05
-1.44271e-05
1.06392e-05
-1.8234e-05
5.25156e-05
-3.38169e-05
-0.000114473
-9.83334e-06
-3.53221e-05
-5.12512e-05
7.09369e-06
-0.000108461
-4.24515e-05
2.92348e-05
5.7346e-06
7.00009e-05
-2.19696e-05
-7.95442e-05
-5.18649e-06
2.25341e-05
4.30445e-05
-2.38825e-06
3.94766e-05
7.1986e-05
9.63e-05
8.55693e-05
-1.39336e-05
-7.0891e-06
1.13365e-05
-2.01455e-05
-4.92971e-05
-6.25335e-05
6.21978e-06
3.46787e-06
7.48579e-06
-2.88e-05
-1.05194e-05
4.56318e-05
2.38595e-05
-2.1028e-05
1.77676e-05
5.16723e-05
2.03588e-05
0.000110106
0.000116651
-1.02111e-06
-5.79822e-05
-1.94883e-05
-6.03247e-05
-6.38106e-05
-2.76727e-05
-6.11512e-05
2.09003e-05
4.03256e-05
-4.78835e-06
2.15622e-05
-1.79109e-05
-1.78168e-05
1.34541e-05
-5.06387e-05
-9.95814e-05
-1.51871e-05
2.93351e-05
2.23192e-05
3.54608e-05
5.03283e-05
-5.54818e-05
2.17293e-05
5.73772e-06
-3.77016e-05
2.56859e-05
8.02254e-05
0.000187766
0.000291295
0.000488764
0.000763275
0.00111221
0.00170491
0.00267565
0.00412642
0.00644722
0.0100746
0.015939
0.0248287
0.0387009
0.0606774
0.0949438
0.148069
0.231458
0.361879
0.564798
0.881359
1.37936
2.15171
3.35133
5.23778
8.19205
12.7116
19.7483
30.9605
48.3103
74.7439
117.88
185.613
282.793
442.815
715.391
1090.97
1687.54
2752.23
4289.69
6447.64
10863.5
16112.6
3.5632e-06
-3.93072e-06
2.63647e-05
-3.50447e-05
9.92651e-06
2.59881e-06
-3.417e-05
2.16091e-05
-3.324e-05
2.3973e-05
2.80964e-05
1.15001e-05
-5.46754e-05
-2.92537e-05
1.85189e-05
7.42856e-05
0.000102745
-3.77546e-05
-4.62336e-05
-3.2041e-05
2.46997e-06
-7.33567e-05
3.19815e-05
2.1127e-06
9.8377e-06
6.65424e-05
-2.79495e-05
-5.61791e-05
-3.39304e-05
-6.22492e-05
-7.6774e-06
-1.2758e-05
1.86611e-05
3.71775e-05
5.11442e-05
3.4265e-05
1.17484e-05
2.08656e-06
7.47967e-05
0.000136498
-5.30556e-06
-1.81799e-05
-3.26227e-05
-8.26896e-05
-5.4587e-05
-6.45799e-06
9.55312e-05
-8.19355e-05
-9.21157e-05
-2.88112e-05
-3.82789e-06
-1.71442e-05
2.44326e-05
-2.55623e-06
4.46098e-05
0.000103179
8.88461e-05
2.98312e-06
4.89798e-05
5.78065e-05
-4.22055e-06
1.61366e-05
6.77979e-05
2.23968e-05
-1.95766e-05
-0.000104027
-0.000124095
-8.32429e-05
-2.49483e-05
1.95752e-05
-4.80979e-05
-1.43583e-05
-3.60252e-05
8.43602e-05
5.65981e-05
-1.54138e-05
4.69179e-06
-4.69161e-05
-0.000138204
-0.000104428
-4.24306e-05
4.82702e-05
0.000131618
0.00011866
3.53066e-05
2.72916e-05
-9.17007e-05
-4.97375e-05
1.68369e-05
-2.00899e-05
-2.78319e-05
7.57802e-06
-1.21445e-05
2.62238e-05
-2.46048e-05
-3.19656e-07
1.56794e-05
2.50932e-05
7.7764e-05
1.63366e-05
8.56169e-05
-9.04011e-05
-3.84344e-05
6.08065e-05
0.000108311
6.49251e-05
-2.3134e-05
9.372e-05
0.000100772
6.44494e-05
4.09228e-05
-7.03677e-05
6.82827e-05
5.3671e-05
-7.06915e-06
-4.35364e-05
-4.49951e-05
-1.35519e-05
-4.79467e-05
-6.27849e-05
-0.000128208
-9.74311e-05
7.85636e-06
-2.01731e-05
-1.1373e-05
-3.5906e-05
-5.01959e-05
-7.82918e-06
-3.34357e-05
1.82329e-05
4.59935e-06
-2.56596e-05
-0.000119727
-2.96665e-05
1.02975e-05
-2.53638e-05
-5.85855e-06
1.17642e-05
7.37726e-05
-3.12423e-05
-4.2315e-06
6.80917e-05
6.40437e-05
0.000145202
3.77301e-05
3.3044e-05
3.36546e-05
-5.62616e-06
9.85446e-06
3.21436e-05
-1.36026e-05
-6.79376e-05
-5.84481e-05
-6.37754e-05
-5.55997e-05
-0.000107985
-0.00011195
6.05606e-05
0.000101818
1.6526e-05
-5.91438e-05
2.59107e-05
0.00011302
7.06298e-05
5.97408e-05
8.44992e-05
6.67248e-05
-2.72348e-05
5.07108e-06
1.41547e-05
8.04988e-05
7.65548e-05
-2.95354e-06
2.99844e-05
1.3929e-05
-1.94175e-05
4.61706e-05
6.36799e-05
3.20452e-05
3.88682e-05
8.49289e-07
-7.98972e-05
-6.38119e-05
3.30924e-06
-6.70555e-06
3.89248e-05
6.07426e-05
3.40455e-05
4.02974e-05
-1.5551e-05
-8.27978e-05
-6.12989e-05
-1.22647e-05
-6.88321e-05
-0.000112269
1.07447e-06
-5.5256e-06
1.87223e-05
-9.1346e-06
-4.49457e-05
-1.04726e-05
3.62666e-05
4.89479e-05
-1.30788e-05
-7.5626e-05
-4.26062e-05
2.16762e-05
1.78546e-05
-2.94543e-05
-3.0486e-05
7.9474e-06
-0.000124797
-1.77874e-05
2.02377e-05
-1.38185e-05
2.4439e-06
-2.92572e-05
-5.83377e-05
-7.98284e-05
-6.6806e-06
-2.13481e-05
7.3335e-06
-4.39503e-05
-2.42422e-05
1.73552e-05
-2.35963e-05
1.42206e-05
4.67004e-05
8.36515e-05
-2.72168e-05
-0.000138017
2.80242e-05
0.000158196
9.10014e-05
5.09784e-05
4.95101e-05
-2.27225e-06
-7.09298e-05
-5.68045e-05
2.12198e-06
3.10705e-05
0.000109266
7.02265e-05
1.38824e-05
-4.27685e-05
-2.44044e-05
4.06736e-06
5.63143e-06
5.42889e-05
6.30238e-05
1.32065e-05
-3.83409e-05
4.69856e-06
-0.00012751
-4.71397e-05
-3.39282e-05
-2.1667e-05
4.17379e-05
9.62235e-05
0.000194051
0.000381197
0.000551573
0.000882615
0.001395
0.00221095
0.00340862
0.00520395
0.00823641
0.0129621
0.0201089
0.0313057
0.0489282
0.0762499
0.118919
0.185767
0.289964
0.45159
0.703521
1.09948
1.71274
2.6632
4.1558
6.49181
10.0571
15.5917
24.4082
38.0479
58.7371
92.4403
145.486
221.127
344.97
557.672
849.589
1306
2129.22
3323.25
4957.43
8327.22
12306.3
2.23282e-07
1.89901e-06
-4.10195e-05
4.54149e-05
-5.36837e-06
-4.25725e-05
-1.54764e-05
0.000100262
7.93026e-06
2.60736e-06
9.47022e-06
-6.93978e-05
-5.20571e-05
-4.53107e-05
1.61581e-05
0.000117432
2.02409e-05
-3.64455e-05
-2.13082e-05
3.38685e-06
-0.000110083
-7.12994e-06
8.75848e-05
5.16588e-05
0.000102534
3.08368e-05
5.11999e-05
1.73884e-05
3.42312e-06
-4.86123e-05
-3.84969e-05
-2.87898e-06
7.39545e-05
2.56452e-05
2.85328e-05
-7.14005e-05
-2.73094e-05
-1.26427e-05
-3.25739e-05
-5.68129e-05
-7.6187e-05
8.93354e-07
4.31463e-05
1.01355e-05