/*--------------------------------*- C++ -*----------------------------------*\
| =========                 |                                                 |
| \\      /  F ield         | OpenFOAM: The Open Source CFD Toolbox           |
|  \\    /   O peration     | Version:  2412                                  |
|   \\  /    A nd           | Website:  www.openfoam.com                      |
|    \\/     M anipulation  |                                                 |
\*---------------------------------------------------------------------------*/
FoamFile
{
    version     2.0;
    format      ascii;
    arch        "LSB;label=32;scalar=64";
    class       surfaceScalarField;
    location    "0.0035";
    object      ddtCorrDdt0(phi);
}
// * * * * * * * * * * * * * * * * * * * * * * * * * * * * * * * * * * * * * //

dimensions      [1 0 -2 0 0 0 0];

oriented        oriented;

internalField   nonuniform List<scalar> 
359100
(
-8.38609e-11
3.13421e-12
-1.07867e-10
5.64331e-12
9.20475e-11
3.28909e-12
-1.52379e-10
7.34093e-12
-9.79192e-11
6.09839e-12
-1.72914e-10
-1.16708e-11
-1.39713e-10
-1.76379e-11
-2.52151e-10
-1.39565e-11
3.84652e-11
-2.55477e-12
7.5146e-11
-1.27338e-11
1.67405e-11
-1.43004e-11
9.61003e-11
-8.25429e-13
-3.5789e-10
1.99442e-12
-4.14204e-10
-1.04462e-11
-2.75985e-10
-7.05507e-12
-2.83858e-10
3.30166e-12
-3.50169e-10
2.5601e-11
-1.29846e-10
3.7764e-11
-5.10365e-11
7.8627e-12
2.00683e-10
3.14441e-12
1.20338e-10
5.95945e-12
3.36735e-10
-3.05213e-12
4.21409e-10
-1.35701e-11
9.17179e-11
-1.67898e-11
-1.08006e-10
-1.48074e-12
-1.7976e-10
1.35512e-12
-4.11282e-10
-2.76409e-12
-4.75468e-11
7.3211e-13
-1.6614e-10
-1.32711e-11
-4.83291e-10
-5.18404e-13
-9.92365e-11
2.77319e-11
1.47952e-10
2.90674e-11
3.87337e-10
2.08644e-11
2.3336e-10
-1.82799e-12
3.14419e-10
-2.67052e-12
-8.98701e-11
5.37983e-12
4.21258e-11
1.40754e-11
1.41908e-10
1.56276e-11
5.20552e-10
1.47256e-11
8.36326e-11
1.46561e-11
2.66364e-10
7.01217e-12
2.95489e-10
-1.35476e-11
5.98754e-10
9.3644e-13
3.53858e-10
1.8126e-11
5.41477e-10
1.45442e-11
-1.57784e-10
-1.27319e-11
-3.31346e-10
-7.42326e-12
-6.65074e-11
1.01554e-11
1.11947e-10
4.05971e-12
2.23054e-10
1.61552e-12
1.01587e-10
-2.38881e-11
-7.04744e-11
-1.73905e-11
-3.82338e-10
-1.03945e-11
-1.20845e-10
1.64346e-12
4.74312e-10
7.0134e-12
9.82107e-10
1.30258e-11
4.23762e-10
5.68083e-12
2.95974e-11
2.28518e-12
1.87629e-10
1.54444e-11
-2.72293e-10
2.4052e-11
-1.21838e-10
2.98013e-11
-1.87399e-10
1.14268e-11
-4.02644e-10
-1.61841e-11
-2.33538e-10
-1.80355e-11
-2.41082e-10
-1.38271e-11
-1.79164e-10
8.81458e-13
2.85855e-10
-9.11827e-12
5.5484e-10
-1.59256e-11
3.67931e-10
-1.12783e-11
-9.72494e-11
-9.13346e-12
3.17339e-11
-4.27854e-12
3.619e-10
7.88029e-12
3.40517e-10
2.71848e-12
-1.86361e-10
1.37779e-13
-1.62639e-10
-5.12229e-13
2.08051e-10
7.98594e-12
-1.0732e-10
-2.4952e-12
-5.1299e-10
-8.8315e-12
6.82412e-11
2.14483e-13
-9.62217e-11
-6.32119e-12
1.37525e-10
-1.83588e-11
2.45868e-10
-8.77729e-12
3.44288e-10
9.91581e-13
1.64795e-10
-2.79466e-12
3.72832e-10
-2.45034e-11
-1.13059e-10
-3.89741e-11
1.55332e-10
-2.27928e-11
2.64834e-10
-1.76166e-11
-6.88322e-11
2.70984e-12
-8.76938e-11
1.59682e-11
-3.53436e-10
2.53795e-11
-3.96427e-11
2.83285e-11
-1.26299e-10
1.08643e-11
4.43718e-10
1.34035e-11
-5.25646e-11
6.60347e-12
-8.68055e-11
8.8131e-12
-1.50083e-10
-1.60977e-11
-1.53989e-10
-3.00778e-11
-4.01708e-10
-3.52516e-11
-2.63516e-10
-1.85512e-11
4.65309e-11
-2.38037e-11
-1.84621e-10
-1.70485e-11
-1.9605e-10
2.2717e-12
-2.4443e-11
3.9214e-12
7.01711e-10
-7.04235e-12
-8.16746e-11
-1.97492e-11
-9.12145e-11
7.28502e-13
-1.62166e-10
2.0238e-11
-5.38571e-10
2.91266e-11
-3.88487e-10
3.83328e-11
-3.37549e-10
3.02586e-11
-2.02736e-10
2.0349e-11
-2.92515e-10
1.7749e-11
-2.98679e-10
1.5857e-11
8.97607e-11
1.43823e-11
1.78379e-10
1.35772e-11
2.37407e-10
6.69153e-12
2.80901e-10
-2.03688e-11
3.69135e-11
-2.36165e-12
1.79814e-10
2.01733e-11
-4.22643e-11
1.48046e-11
-1.92193e-10
1.00581e-11
-1.62169e-10
6.81757e-12
-2.79439e-10
-7.22554e-12
-2.4732e-10
-2.83869e-11
9.079e-11
-4.37012e-11
-1.50635e-10
-3.35094e-11
-3.68143e-11
-2.16099e-11
-6.31487e-11
-1.85737e-11
-1.3259e-10
-1.63645e-11
-8.01111e-11
-8.44682e-12
1.16451e-11
3.64614e-12
-2.53976e-11
3.30402e-11
-1.8349e-10
4.29885e-11
9.9117e-11
2.05416e-11
4.77289e-11
-3.88575e-12
3.34626e-11
-1.23128e-11
-6.6616e-11
5.44498e-12
-1.984e-10
6.6014e-14
4.89199e-11
1.46789e-11
1.20854e-10
1.21342e-11
6.34699e-11
8.29786e-12
2.127e-10
2.22337e-12
2.30858e-10
-4.65181e-12
7.4339e-11
4.66369e-12
4.5702e-10
8.18135e-12
-6.75379e-11
-1.19835e-11
1.8258e-10
-7.01696e-12
7.60042e-11
-1.44577e-11
4.64152e-10
-1.85791e-11
2.77018e-10
-3.63618e-12
-2.28345e-10
1.87352e-11
-2.31362e-10
2.05387e-11
-3.14641e-10
-1.35505e-11
7.70795e-11
-2.56178e-11
1.90937e-10
-3.00794e-11
1.61955e-10
-2.94815e-11
1.94208e-10
-4.04863e-11
3.59558e-10
-4.70582e-11
4.77697e-11
-1.8087e-11
-2.18136e-10
7.05533e-12
1.32071e-10
1.18486e-11
5.55125e-11
2.98713e-11
1.12535e-10
2.76112e-11
7.58094e-10
1.41477e-11
2.45554e-10
2.985e-12
3.63754e-10
-1.36875e-11
-8.50988e-12
-2.54501e-11
-2.34626e-10
8.98578e-12
2.19664e-10
7.72764e-12
2.19458e-10
-2.17989e-11
-2.51011e-10
5.56672e-12
-5.01128e-10
2.53476e-11
-1.20571e-10
9.72639e-12
-3.62647e-10
-1.29357e-11
-4.58741e-10
-1.47797e-11
-4.84399e-10
-3.54228e-12
1.92802e-11
-1.764e-11
-3.12149e-10
-1.64964e-11
-1.8561e-10
9.68926e-12
-1.89337e-10
1.08202e-11
-1.83622e-10
1.34771e-11
-1.09698e-11
1.85115e-11
-4.91786e-10
5.88516e-12
-2.72299e-10
3.61936e-12
-7.666e-11
7.62465e-12
7.79589e-10
2.33294e-11
4.88182e-10
1.00961e-11
4.20653e-10
2.29412e-11
-1.39875e-10
3.92045e-11
7.13637e-11
5.10239e-11
-3.41579e-10
2.10603e-11
-1.84609e-10
1.3909e-11
1.78977e-10
4.61519e-13
-4.46678e-10
-2.86677e-11
-8.18306e-10
-1.99119e-11
-1.6904e-10
-2.12491e-11
-6.63945e-11
-3.71722e-11
-2.23822e-10
-1.65226e-11
1.85491e-10
-5.81508e-12
2.83826e-10
-1.08063e-11
2.34357e-11
-4.71682e-13
-1.57848e-10
2.0342e-13
-3.89659e-10
9.45711e-12
-3.77237e-10
1.92321e-11
-5.23851e-11
3.93635e-11
1.5605e-10
3.27868e-11
1.53088e-10
2.76627e-11
1.05699e-10
1.43674e-11
-2.43569e-10
7.97955e-12
-9.20917e-12
7.26551e-12
1.50466e-11
-2.46005e-12
-2.12728e-10
-1.94196e-11
9.00822e-11
-4.0174e-11
4.35298e-10
-5.04298e-11
5.64958e-10
-2.38398e-11
2.1235e-10
8.64253e-12
5.73229e-11
-1.71397e-12
4.33374e-11
-6.85918e-12
-3.97951e-10
-8.9233e-12
-4.36581e-10
-1.5702e-11
-7.46055e-11
-1.29251e-11
-3.51506e-10
-2.52469e-11
1.84543e-10
-1.23804e-12
2.37588e-10
7.45952e-12
1.39011e-10
3.88962e-12
-8.59363e-11
1.15874e-11
9.62681e-11
1.35211e-11
3.553e-10
1.13369e-11
7.03771e-11
-5.29931e-12
2.30717e-10
8.77947e-12
3.14668e-10
1.28074e-11
-1.91859e-10
3.47102e-12
-5.0977e-11
1.12227e-11
-4.42239e-10
2.66357e-11
1.78138e-10
9.11429e-12
1.34564e-10
-8.28991e-12
4.48622e-10
-1.90456e-11
5.94106e-10
-3.65003e-11
7.21958e-10
-4.29151e-11
6.08146e-10
-2.75155e-11
1.77141e-10
-1.97624e-11
-1.76825e-10
2.89381e-12
1.49705e-10
2.86777e-11
-2.89746e-11
1.39612e-11
-8.04411e-11
1.58394e-11
2.03806e-10
1.00664e-11
-2.97292e-11
2.24987e-11
-4.9872e-10
1.67759e-11
-3.415e-10
1.78732e-12
-6.94553e-11
-1.21603e-11
-1.79714e-10
-5.08503e-12
1.01933e-10
3.06721e-13
-1.84064e-10
3.21937e-12
-2.20988e-10
1.80448e-11
-6.87892e-11
1.80157e-11
7.22831e-11
-2.19615e-12
-2.11163e-10
1.23225e-11
2.12212e-10
4.34611e-11
2.85118e-10
9.71635e-11
-8.05459e-11
1.68488e-10
3.0388e-10
2.54172e-10
-2.85356e-10
4.27891e-10
-5.64254e-10
6.88713e-10
-6.54838e-10
1.07044e-09
-1.18786e-09
1.72449e-09
-2.46267e-09
2.79771e-09
-4.12558e-09
4.48843e-09
-7.46307e-09
7.21762e-09
-1.26726e-08
1.16478e-08
-2.15305e-08
1.87753e-08
-3.41011e-08
3.0241e-08
-5.86452e-08
4.87581e-08
-9.46098e-08
7.86451e-08
-1.57243e-07
1.26855e-07
-2.56141e-07
2.04837e-07
-4.31996e-07
3.30938e-07
-6.90858e-07
5.35003e-07
-1.16413e-06
8.66003e-07
-1.96266e-06
1.40381e-06
-3.34812e-06
2.27848e-06
-5.51442e-06
3.70486e-06
-9.44215e-06
6.03787e-06
-1.57185e-05
9.85663e-06
-2.59433e-05
1.61113e-05
-4.30821e-05
2.64037e-05
-7.71323e-05
4.34157e-05
-0.000131171
7.15085e-05
-0.000210778
0.000117943
-0.000340783
0.00019512
-0.000587777
0.000323255
-0.000915106
0.000537012
-0.00156681
0.000899965
-0.00296386
0.00152007
-0.00457244
0.002585
-0.00713816
0.00447888
-0.0152459
0.0079432
-0.0268264
0.0144288
-0.0455947
0.0266823
0.0501242
-0.0973134
1.30414e-10
-4.31014e-12
2.42493e-10
5.73149e-13
2.17531e-10
5.4839e-12
1.57182e-11
1.15079e-12
-2.23754e-10
1.34489e-12
-2.12366e-10
3.16547e-12
-2.73495e-10
5.21206e-12
-6.52508e-11
4.44644e-12
1.74507e-10
-8.59605e-13
2.70789e-10
-4.79127e-13
-1.47267e-10
-1.09947e-11
-2.36599e-11
-1.84037e-12
-1.42264e-10
2.72802e-12
2.1538e-10
2.78049e-12
-1.33109e-10
-1.26435e-11
3.44832e-11
-2.21206e-11
1.18209e-10
-2.17429e-11
-4.67035e-10
-1.86831e-12
-2.81529e-11
9.80619e-12
4.36911e-11
-9.19457e-12
-1.45262e-10
-3.9269e-12
1.3016e-10
1.80989e-11
3.44164e-13
5.42536e-12
2.55457e-10
3.38131e-12
4.28985e-10
1.28905e-11
-1.13817e-10
1.18995e-11
6.06283e-11
8.48877e-12
2.14326e-10
7.09909e-12
2.8477e-10
6.79792e-12
8.42475e-10
1.40847e-12
9.46649e-10
-8.69828e-12
8.16341e-11
-3.21916e-12
-3.92799e-10
-4.14657e-12
-3.37742e-11
-1.16756e-11
-1.01652e-10
-6.81872e-12
1.65971e-10
-3.03447e-12
2.46082e-10
-1.47159e-12
9.43289e-12
-4.49398e-12
4.07868e-10
-9.84821e-13
-5.2383e-11
-1.36139e-11
-5.26934e-10
-1.74384e-11
-6.05503e-10
-9.65596e-12
-2.64396e-10
-1.85562e-11
-1.69487e-10
-7.91559e-12
-1.69977e-10
6.01719e-12
-1.05162e-10
8.58523e-12
-1.03007e-10
7.32203e-13
-1.75174e-10
1.88831e-13
3.21455e-11
5.92811e-12
1.65994e-10
1.92772e-12
6.69182e-11
-2.39113e-12
2.29301e-11
-4.96992e-12
-1.88673e-10
-3.17839e-13
3.64918e-10
1.08312e-11
4.80677e-10
2.92912e-11
9.2533e-11
1.85065e-11
-1.99241e-10
-5.41234e-12
9.74258e-12
-2.34336e-11
-3.41735e-10
-1.90961e-11
-2.18378e-10
4.33614e-12
5.7228e-10
3.34776e-11
5.84028e-11
4.40875e-11
-2.19309e-10
3.59286e-11
-2.61782e-10
5.19771e-12
-1.92557e-10
-6.96551e-12
3.57677e-10
-8.12686e-12
1.17209e-10
-1.62544e-11
-7.69374e-11
2.89824e-12
3.38936e-10
1.02572e-11
4.37699e-10
1.33259e-11
-1.50185e-10
1.44168e-11
-2.33446e-10
1.12036e-11
-1.73905e-10
-2.16291e-12
-2.36685e-10
1.53137e-12
-7.28634e-11
-5.89831e-12
-3.81498e-10
-1.6428e-11
7.88525e-11
-2.50047e-11
-1.23295e-10
-2.02745e-11
1.80746e-10
-2.15628e-11
1.50181e-11
-2.18594e-11
-1.53091e-10
5.92831e-12
-1.46185e-10
2.67506e-11
-3.88624e-10
1.98733e-11
-4.12711e-10
1.56074e-11
-2.04537e-10
8.07975e-12
2.32125e-10
3.10616e-11
1.81244e-10
2.23711e-11
4.62125e-10
-2.7974e-12
3.18096e-10
-1.27821e-11
7.70002e-10
-8.29955e-12
6.66908e-10
-1.87024e-11
5.48349e-10
-2.36148e-11
5.68984e-10
-1.3033e-11
3.47912e-11
-1.47288e-11
-9.78507e-11
-1.5127e-11
-1.18321e-10
-1.59331e-11
9.94463e-11
-2.0924e-11
-1.7463e-10
-1.04434e-11
1.20437e-11
2.51522e-12
2.76848e-10
7.55706e-12
3.91789e-10
1.26504e-11
-9.1208e-11
5.2302e-12
-2.43007e-10
-1.34051e-11
-3.50608e-10
-1.02122e-11
-1.2257e-10
-6.33377e-12
-3.67128e-10
-1.31023e-11
-1.62089e-10
2.10682e-12
1.62845e-10
2.17549e-11
1.40966e-10
9.89883e-12
2.48669e-10
1.15982e-11
-1.35456e-10
1.70083e-11
-5.10723e-10
2.88361e-11
-7.51496e-11
4.25249e-11
3.21676e-11
3.29131e-11
5.08815e-10
3.3256e-11
7.44112e-10
1.29731e-11
-7.34707e-11
-4.48747e-12
1.41463e-10
8.91411e-12
4.11639e-10
-1.12647e-11
2.48881e-10
-1.98092e-11
2.47673e-10
-1.67209e-11
6.73543e-11
3.42615e-12
-1.92803e-10
1.24194e-11
-1.77556e-10
1.28349e-11
2.52595e-11
1.85419e-11
-8.83069e-11
7.69105e-13
-3.56106e-10
5.93408e-12
-2.79905e-10
1.0249e-11
-1.35549e-10
4.25192e-12
-1.26388e-10
1.88315e-11
1.07008e-10
1.40411e-11
3.81838e-10
-7.75878e-12
3.67024e-10
-1.19509e-11
1.55188e-10
-8.19469e-12
-6.92123e-10
-1.75642e-11
-1.12128e-09
6.34688e-12
5.7733e-11
3.33808e-11
1.5593e-10
1.18986e-11
2.91518e-10
1.42268e-12
1.85068e-10
-2.08658e-11
6.45916e-10
-1.68108e-11
5.14952e-10
-1.29565e-11
2.40425e-10
-9.36522e-12
6.97868e-12
8.22069e-13
3.77239e-11
7.23156e-12
-5.86509e-11
1.07045e-11
-1.51474e-10
1.13975e-11
-2.83452e-10
3.81515e-12
-5.97946e-11
-4.5627e-12
-2.50987e-10
-1.96395e-11
3.37368e-11
-1.64194e-11
-3.33211e-11
-1.92827e-11
-7.3585e-12
-2.17843e-11
-4.35735e-10
-2.27057e-11
-5.32739e-10
4.6447e-12
-4.00667e-10
9.82937e-12
2.33586e-10
-1.18219e-11
1.94212e-10
-1.63663e-11
2.34204e-10
-1.78705e-11
1.7225e-10
-1.43443e-11
-1.59936e-10
3.93858e-12
2.5319e-10
2.53363e-11
3.85711e-10
8.67383e-12
2.95644e-10
-5.3348e-12
2.71992e-10
-8.47651e-12
1.31354e-10
2.24081e-12
5.46261e-10
8.93984e-12
8.84005e-10
-1.01376e-11
5.85872e-10
-1.86003e-11
-2.31949e-10
-6.20338e-12
5.05552e-13
2.97628e-12
9.85146e-11
-7.08463e-13
1.0471e-10
9.69541e-12
1.91083e-10
1.6696e-11
2.2447e-10
-8.71712e-12
1.90284e-10
-8.49879e-12
-5.12338e-12
-6.05214e-12
-7.54544e-11
-2.85497e-12
-1.01315e-10
6.14801e-12
-1.3586e-10
1.15594e-11
-4.75125e-10
6.46238e-12
-3.77859e-10
1.33979e-11
-1.61288e-10
1.95136e-11
1.74401e-10
1.2924e-11
3.80441e-10
4.89074e-12
5.85172e-11
-3.03155e-12
-1.6128e-10
3.20424e-12
-1.53636e-10
1.414e-12
-8.43634e-12
2.11465e-11
-2.88618e-10
3.03594e-11
-6.62436e-10
3.27865e-11
-2.36559e-10
2.30871e-11
1.94793e-10
4.12372e-12
-1.12336e-10
-2.76105e-13
-2.5309e-10
1.18026e-11
-3.51973e-10
1.52454e-11
-6.59885e-10
3.02611e-12
-3.72335e-10
7.53585e-12
-1.95519e-10
1.47106e-11
-5.53696e-11
2.22363e-11
7.16017e-11
3.02032e-12
3.31553e-11
-1.00947e-11
-8.76232e-11
-1.32312e-11
-4.78578e-10
-1.43502e-11
-3.21038e-10
-2.56865e-11
-3.76021e-12
-2.51291e-11
-1.14501e-10
-5.56025e-12
9.79478e-11
5.75769e-12
4.20549e-11
9.63052e-12
-1.46727e-10
2.19424e-11
-9.0654e-11
1.70825e-11
1.63744e-10
2.68065e-12
5.8031e-10
-1.36094e-11
1.49639e-10
-2.2296e-11
-3.10008e-10
1.13528e-12
6.35548e-10
1.735e-11
5.13731e-10
1.2653e-11
7.04366e-11
1.60701e-11
-1.41911e-10
2.71862e-11
2.00676e-10
2.29491e-11
4.86216e-10
8.00325e-12
1.65815e-10
-1.41183e-12
3.64983e-10
-6.90322e-12
-8.62649e-11
1.35484e-11
-3.75198e-10
3.03451e-11
-1.71199e-10
1.72727e-11
1.81786e-10
-4.5491e-12
2.65429e-10
-1.67662e-11
3.99863e-10
-1.52284e-11
2.78145e-10
-2.90339e-11
2.5588e-10
-3.14875e-11
7.69774e-10
-4.04271e-11
4.52171e-10
-5.28142e-11
1.44831e-11
-3.57762e-11
9.68018e-11
-1.59555e-11
6.77262e-11
1.29914e-11
1.04071e-10
1.00806e-11
2.74179e-10
1.68545e-11
2.12598e-10
1.81091e-11
4.92327e-10
4.98318e-12
-1.93628e-11
-1.20799e-11
1.54942e-10
5.11586e-12
-5.73343e-11
7.45374e-12
-6.22351e-10
6.88099e-12
-1.60306e-10
2.1841e-11
-3.60717e-10
1.85392e-11
-2.49594e-10
1.73301e-11
-4.05718e-10
2.58507e-11
-5.17413e-10
4.14421e-11
-5.47858e-10
3.42186e-11
-8.43557e-10
-6.41756e-12
-6.88966e-10
-2.18905e-11
-3.0679e-10
-6.2351e-12
-2.24184e-10
2.04165e-11
4.43601e-10
4.26909e-11
1.93723e-10
2.02826e-11
4.96703e-10
1.02678e-11
3.68008e-10
4.58341e-11
-2.27657e-11
9.4154e-11
-3.79415e-11
1.61593e-10
1.17353e-10
2.83865e-10
1.24024e-10
4.99483e-10
1.4544e-10
8.06228e-10
1.87956e-10
1.24362e-09
8.59411e-11
1.95988e-09
-4.22399e-10
3.14469e-09
-1.74703e-09
5.08089e-09
-2.82549e-09
8.17972e-09
-4.95524e-09
1.31318e-08
-7.88542e-09
2.11094e-08
-1.37854e-08
3.39053e-08
-2.10837e-08
5.44488e-08
-3.53651e-08
8.74499e-08
-5.73263e-08
1.40503e-07
-9.56507e-08
2.25822e-07
-1.50184e-07
3.63127e-07
-2.57639e-07
5.84123e-07
-4.08666e-07
9.39908e-07
-6.70679e-07
1.51318e-06
-1.10928e-06
2.43802e-06
-1.93986e-06
3.93111e-06
-3.10654e-06
6.34515e-06
-5.18731e-06
1.02566e-05
-8.5844e-06
1.6601e-05
-1.42322e-05
2.68881e-05
-2.24742e-05
4.35996e-05
-3.93308e-05
7.08115e-05
-6.87085e-05
0.000115146
-0.000108704
0.000187535
-0.000149777
0.000306148
-0.000260836
0.000500141
-0.000399226
0.000817255
-0.000505007
0.00133972
-0.000985439
0.00220632
-0.00166248
0.003651
-0.00123323
0.00609959
-0.0025461
0.0103329
-0.00553547
0.0177549
-0.00288115
0.0308699
0.0544831
-0.00271799
2.21363e-11
1.19037e-12
-4.22921e-10
-7.82094e-13
-1.30608e-10
3.43784e-12
4.18753e-10
-6.887e-12
1.94279e-10
-1.15407e-11
-3.32715e-11
7.877e-12
2.96561e-10
1.78352e-11
-1.43497e-10
7.89272e-12
-2.33893e-10
5.92708e-12
-1.29736e-10
2.15023e-12
1.69544e-10
-2.10882e-13
4.33903e-10
-1.15626e-11
2.6882e-10
-1.22906e-11
2.02661e-10
5.71871e-12
-2.77145e-10
1.9688e-12
-2.85917e-10
1.58835e-11
8.48992e-11
1.18081e-11
-4.4292e-11
-3.54741e-12
-2.54983e-10
1.88686e-12
3.22392e-10
2.61932e-11
8.4088e-10
3.41915e-11
1.41187e-10
8.50321e-12
-2.45071e-10
-2.76569e-12
3.50882e-10
-1.67228e-11
6.66874e-10
-2.42513e-11
1.86273e-10
-1.94952e-11
1.3268e-10
-8.95724e-12
2.27479e-11
4.83055e-12
1.90482e-10
2.33608e-11
2.78911e-10
1.5646e-11
4.00836e-11
-4.39322e-12
-4.4782e-10
1.00465e-11
-4.52444e-10
1.48181e-11
-6.41946e-10
2.75763e-12
-3.88693e-10
4.05719e-12
1.29981e-10
3.00254e-12
2.25051e-10
4.46934e-12
-1.49792e-10
4.54379e-12
-8.76575e-11
9.8589e-13
1.57997e-10
-1.1858e-11
-3.14217e-12
-7.99058e-12
-1.50997e-10
-2.01464e-12
-1.74909e-10
-1.17273e-11
-1.04405e-10
1.22108e-11
4.18646e-11
2.69559e-11
9.48238e-12
1.49241e-11
3.75764e-10
-9.34901e-12
3.62391e-10
-5.1015e-12
3.2677e-10
4.32077e-12
2.89317e-10
5.57698e-12
6.90484e-11
-3.21842e-12
-1.83661e-10
7.88033e-12
-1.27041e-10
8.15149e-12
2.81278e-10
2.00622e-11
5.1508e-11
1.90473e-11
-2.03963e-10
-7.53696e-13
-4.9134e-10
-7.75261e-12
-5.69232e-10
-5.13921e-12
-4.72998e-10
-1.74368e-11
-2.41133e-10
-8.93505e-12
3.00519e-10
-1.65175e-12
4.91188e-10
-1.72676e-11
8.55088e-12
-5.93692e-12
-5.04548e-10
1.36652e-11
-5.3591e-10
1.47666e-11
-4.28033e-10
1.06534e-12
-2.76916e-10
-7.38519e-12
-5.56868e-10
-8.56815e-12
-4.82566e-10
8.2222e-12
1.12837e-11
1.35204e-11
2.5753e-10
1.20963e-11
1.78513e-10
-7.60963e-12
9.06853e-11
-1.08149e-11
-3.52273e-10
-3.57534e-12
-4.19366e-10
1.03594e-11
-6.22522e-10
7.80099e-12
-3.9391e-10
8.79125e-12
-5.21957e-10
-6.25878e-12
-1.97804e-10
-4.59706e-12
1.00269e-11
2.72796e-12
2.15169e-10
-4.62862e-13
-6.12811e-11
6.11093e-12
5.53486e-11
8.97098e-12
-1.42724e-10
2.95905e-12
7.81515e-11
2.03873e-11
3.98888e-10
2.81526e-11
1.29567e-10
8.46257e-12
-1.0596e-10
1.85883e-12
-1.18217e-10
-3.80389e-12
5.62771e-10
1.82683e-12
5.0923e-10
-7.19813e-13
5.38952e-10
6.84645e-12
4.5343e-10
2.6668e-12
7.36899e-11
3.04678e-12
1.95909e-10
1.01915e-11
3.10297e-10
8.22543e-13
4.76969e-10
3.6797e-12
3.10523e-10
-1.42376e-12
3.66947e-10
-2.26772e-11
1.46307e-10
-3.09703e-11
-1.77368e-10
-2.56341e-11
-4.19386e-10
-3.17496e-12
-4.42237e-10
1.40579e-11
-3.40988e-11
9.79796e-12
-1.93286e-10
1.57314e-11
1.51209e-10
3.25537e-11
3.0548e-10
3.08691e-11
-1.20225e-10
2.64544e-11
2.58984e-11
2.84299e-11
2.55282e-10
2.23638e-11
1.4335e-10
1.27331e-11
7.00608e-10
-1.63046e-12
4.86431e-10
-7.72596e-12
3.31376e-10
-6.47772e-12
1.88393e-10
-4.96256e-12
-1.55089e-10
-8.29027e-12
-1.83213e-10
-4.44373e-12
-1.52954e-10
7.23003e-12
2.41838e-10
4.3179e-12
3.27674e-10
-1.3921e-11
4.30227e-10
8.22808e-12
2.20787e-10
-4.26007e-13
8.54785e-12
-1.06177e-11
1.46178e-10
-2.024e-11
-2.67654e-10
-6.37344e-12
-4.42184e-10
5.71394e-12
-4.06434e-10
5.95523e-13
-3.23193e-10
1.47398e-11
-1.99643e-10
3.78879e-13
-3.26105e-10
-2.45049e-12
-3.88101e-10
1.25139e-11
-2.74167e-10
4.71288e-12
1.8564e-10
3.85098e-12
-3.96739e-11
1.17325e-11
4.06896e-10
1.24926e-11
2.27916e-10
-9.30301e-12
2.85884e-10
-2.30947e-11
3.19117e-10
-3.18788e-11
1.02927e-10
-2.33928e-11
-5.58481e-11
-8.79655e-12
-1.61593e-10
-2.07257e-11
3.80896e-10
-1.27921e-11
2.82843e-10
-1.12578e-11
6.70762e-11
-2.49409e-11
-1.4883e-10
-3.85643e-12
-1.19498e-10
-6.02777e-12
3.05786e-11
-5.1258e-12
1.46621e-10
1.13748e-11
1.61175e-10
5.33106e-12
1.86153e-10
4.0967e-12
3.35533e-11
4.75767e-12
-1.71647e-10
7.21739e-12
-4.20131e-10
2.61526e-11
-1.08566e-10
3.71503e-11
2.0865e-10
2.90591e-11
-7.29942e-11
5.55464e-12
2.33778e-10
1.33977e-12
1.50302e-10
-9.93663e-12
4.13912e-10
-1.95412e-12
3.75678e-10
-1.73973e-11
-2.34292e-10
-1.71112e-11
-5.24018e-11
-3.03604e-12
4.59152e-11
2.55628e-12
-2.05501e-10
6.38622e-12
-1.14365e-10
-6.73699e-12
4.66946e-11
-1.96592e-11
1.71657e-10
-1.86773e-12
1.58024e-10
7.24266e-12
1.90239e-10
8.13351e-12
1.46745e-10
1.57709e-12
-3.1382e-11
-1.08061e-11
-1.48166e-10
-4.55977e-12
2.31105e-10
2.3381e-12
-1.32242e-10
-1.70225e-13
2.99811e-10
-1.88496e-13
-1.60035e-11
6.95111e-12
-5.67625e-11
2.66856e-11
-2.11224e-10
3.40395e-11
5.10937e-12
3.57508e-11
-2.54864e-10
3.14943e-11
-1.78037e-10
3.14362e-11
-3.4554e-10
6.95199e-12
-1.92675e-11
-1.00857e-11
-2.02334e-10
-3.14663e-12
4.37349e-11
-2.02782e-12
3.28365e-10
-3.83103e-11
-5.7477e-12
-5.58188e-11
7.45753e-11
-4.84355e-11
1.51133e-10
-3.48813e-11
-1.8161e-10
-2.75399e-11
6.59994e-11
-2.67882e-11
-2.48653e-10
-2.44186e-11
-3.12918e-10
-4.74678e-12
-5.4286e-10
-5.30809e-12
-5.08682e-10
1.3603e-11
-5.26341e-10
1.80917e-11
-2.77553e-10
1.96924e-11
-2.46699e-10
2.61228e-11
-2.0449e-10
1.98807e-11
-2.64623e-10
9.02449e-12
-1.46303e-10
9.50959e-12
-3.06517e-10
8.33315e-12
-3.79281e-10
1.21445e-11
-3.11997e-10
1.13633e-11
-7.15649e-11
-3.01492e-12
2.99926e-10
-2.28212e-11
5.87881e-11
-3.35627e-11
-1.35954e-10
-1.48102e-11
1.86419e-10
5.19086e-12
3.7939e-10
1.74118e-11
3.10759e-10
1.84567e-11
8.22701e-11
6.19966e-12
1.03704e-10
-1.05075e-12
-1.90998e-10
5.46187e-13
-1.75002e-11
3.16564e-12
1.75214e-10
-1.21519e-11
1.31881e-11
-3.11209e-11
2.51156e-11
-3.10854e-11
2.19052e-10
-1.11762e-11
3.38676e-10
-1.49226e-11
4.1795e-10
-2.3359e-11
-7.84597e-11
-2.70263e-11
-8.87611e-11
-5.1572e-12
-8.36692e-11
1.59633e-11
-1.69916e-10
7.51166e-12
-1.16079e-10
6.95886e-12
-4.08499e-10
-1.16881e-11
-9.35677e-11
-2.31209e-11
2.72378e-10
-3.55662e-11
1.20208e-10
-1.95839e-11
1.06105e-11
-1.11422e-11
-1.0663e-10
-1.67865e-11
-1.41875e-10
-1.25601e-11
-1.67226e-10
-1.53704e-11
1.14026e-11
-1.50548e-11
2.932e-10
7.03559e-12
2.66416e-10
1.96759e-11
4.60359e-10
2.66767e-11
4.79312e-10
2.77875e-11
5.68008e-11
9.93139e-12
9.29103e-11
-1.0474e-12
5.9225e-11
-1.61676e-11
-4.12294e-10
9.11958e-13
-1.00501e-10
5.87655e-12
-3.3627e-10
7.65149e-12
-2.69505e-10
2.52856e-11
4.57676e-10
1.63399e-11
3.97852e-10
4.72067e-12
3.30334e-10
-7.78801e-13
-1.44307e-10
4.53082e-12
-3.28266e-10
9.78732e-12
-2.30978e-10
1.96277e-11
2.16065e-11
3.01553e-11
4.22392e-10
4.29411e-11
-2.01548e-10
3.18367e-11
-4.70087e-10
5.76969e-11
5.93131e-10
1.0659e-10
4.44576e-10
1.3202e-10
2.09815e-10
1.63104e-10
6.12672e-10
2.29049e-10
2.98682e-10
3.81724e-10
2.80396e-10
6.57065e-10
1.19121e-10
1.01294e-09
2.33116e-10
1.62206e-09
-6.29753e-10
2.59653e-09
-4.38982e-10
4.17756e-09
1.78424e-10
6.67396e-09
-2.92076e-10
1.06618e-08
-1.02555e-09
1.70583e-08
-8.22268e-10
2.72722e-08
-2.13401e-09
4.36032e-08
-2.1924e-09
6.97711e-08
-4.22638e-09
1.11627e-07
-5.84972e-09
1.78622e-07
-1.12035e-08
2.85839e-07
-8.49598e-09
4.57511e-07
-2.27229e-08
7.32396e-07
-3.19529e-08
1.1725e-06
-4.43991e-08
1.87744e-06
-5.21185e-08
3.00726e-06
-2.01279e-07
4.81882e-06
-2.51915e-07
7.72501e-06
-2.81062e-07
1.23933e-05
-4.62285e-07
1.99018e-05
-1.48832e-06
3.19803e-05
-1.56747e-06
5.1426e-05
-2.9744e-06
8.27798e-05
-9.97052e-06
0.000133363
-1.29845e-05
0.000214972
1.88548e-05
0.000346927
9.05129e-06
0.000560471
-9.94946e-06
0.000905592
0.000198009
0.0014649
0.000307792
0.00237584
0.00019917
0.00386073
0.0018346
0.00629731
0.00353891
0.0103504
0.00368742
0.0171756
0.0110137
0.0287129
0.0487897
0.0233733
-1.40128e-10
-8.92251e-13
3.73281e-11
1.08837e-13
2.37108e-11
1.30716e-12
-4.20681e-10
2.61242e-12
-3.15111e-10
7.73824e-12
-1.25173e-10
1.44456e-11
-1.34994e-10
-2.83303e-12
-2.64635e-10
-1.68359e-12
2.68865e-10
-1.47708e-11
2.88024e-10
-1.9273e-11
-2.76936e-10
-7.7315e-12
-1.07505e-10
-1.40473e-12
4.17222e-11
-1.44307e-12
5.55375e-11
1.70008e-12
3.50867e-10
-5.88101e-13
3.11357e-10
2.47668e-12
-1.0925e-10
-3.37307e-12
-4.94148e-10
5.70614e-12
-8.42711e-11
1.4078e-11
5.05426e-10
6.04363e-13
6.03316e-10
-1.28172e-11
5.12534e-10
-1.13078e-11
-2.30031e-11
-7.01896e-12
4.39725e-11
-2.91301e-12
1.62361e-10
1.23115e-11
-1.47008e-10
2.01286e-11
-1.19516e-10
1.5907e-11
-5.8967e-11
-3.3547e-12
-1.43779e-10
1.85679e-11
-2.48148e-10
7.33814e-12
5.90902e-10
-4.25226e-12
6.49984e-10
-1.34053e-11
2.0426e-10
-7.22012e-12
-4.63532e-11
-1.2725e-11
-6.79362e-11
-2.84455e-11
-1.28458e-11
-3.23265e-11
-1.36734e-10
-3.03183e-11
-3.75068e-10
-2.42387e-11
-6.36117e-10
-1.06962e-11
-4.5781e-10
2.17946e-11
-5.88495e-11
1.94558e-11
-7.19492e-11
1.3201e-12
1.05e-10
1.11192e-11
-2.19023e-10
1.88664e-11
1.08234e-10
2.54299e-11
-6.10957e-10
1.47574e-11
-4.04672e-10
2.79416e-11
2.77296e-11
1.95737e-11
7.78203e-11
7.1476e-12
1.3999e-11
1.73169e-11
4.22411e-11
2.46005e-11
3.93438e-10
7.62387e-12
3.1671e-10
-8.55552e-13
3.74348e-10
-6.5513e-12
1.64163e-10
-2.23878e-11
2.90107e-10
-1.21803e-11
-6.9946e-11
1.19452e-12
-5.23506e-10
7.94809e-12
-2.94043e-10
5.02673e-12
1.3071e-10
-2.74423e-12
-2.70178e-10
-2.63956e-11
-1.64781e-11
-1.59989e-11
4.68797e-11
-1.07194e-11
-4.91579e-11
1.08669e-11
3.62375e-11
1.41604e-11
-9.72899e-11
1.43472e-11
-2.56816e-10
1.04656e-11
1.80168e-10
1.0552e-11
9.27027e-12
-4.98904e-12
1.66416e-10
-9.82522e-12
6.49056e-11
-1.38443e-11
8.60091e-11
-3.65742e-12
1.3317e-10
1.36373e-12
2.66612e-10
-3.6758e-12
2.78927e-10
-9.35372e-12
-2.4207e-10
2.46803e-12
-7.06289e-10
2.19182e-11
-6.07283e-10
2.76164e-11
2.46239e-11
1.60723e-11
-6.79963e-12
1.58664e-11
-2.63865e-10
1.56161e-12
-1.22987e-10
-3.22576e-12
4.50936e-11
-4.3857e-12
-2.13236e-10
-2.59152e-12
-9.41636e-11
-3.4466e-12
-1.47431e-13
-1.17421e-11
-8.0038e-11
-1.1973e-11
-1.03016e-10
-1.73511e-11
-3.59707e-10
-6.03382e-12
1.94928e-12
6.53657e-12
1.74599e-10
9.09199e-13
-1.99277e-11
8.19001e-12
-2.6955e-10
5.2079e-12
-3.79409e-10
1.36542e-11
-1.69159e-10
1.34182e-11
-1.12587e-11
2.05652e-11
-2.45634e-10
3.06591e-11
-2.49684e-10
1.63688e-11
-9.63195e-11
9.66518e-12
-8.74251e-11
6.17081e-12
7.69561e-10
4.83105e-12
6.67413e-10
-1.62365e-11
2.87727e-10
-2.77727e-11
3.43606e-10
-2.34073e-11
4.67179e-10
-1.61242e-11
3.19396e-10
-5.69158e-12
3.03704e-10
7.82212e-12
1.01626e-10
9.87761e-12
-8.72999e-11
7.24234e-12
5.05989e-11
-6.56882e-12
-3.66684e-10
-1.69438e-11
-7.22468e-10
1.15901e-11
-4.65652e-10
2.76289e-11
1.29396e-10
-2.33735e-12
5.00419e-10
-3.04762e-11
2.08804e-10
-3.5507e-11
-2.202e-10
-1.98484e-11
-3.05679e-10
-1.07494e-11
-2.33333e-10
-2.13876e-12
1.91378e-10
1.84374e-11
-6.17519e-10
9.28101e-12
-2.75706e-10
-9.84853e-12
-2.86666e-10
-2.00116e-11
5.56809e-11
-1.96788e-11
-6.82993e-11
-1.92065e-11
-7.56368e-10
5.65802e-12
-5.67529e-10
4.78292e-14
-6.33251e-10
-1.65228e-13
-6.72246e-10
4.51594e-12
-2.71779e-10
8.94728e-12
-1.70661e-10
1.34928e-11
-4.02337e-10
2.51984e-11
-3.96274e-10
2.77246e-11
-1.08598e-10
2.46621e-11
-2.91608e-10
2.35159e-11
-2.95754e-10
-1.42825e-12
-1.18263e-10
-2.05305e-11
3.34082e-10
-1.88017e-11
4.38857e-10
-6.59111e-12
2.21992e-10
3.30324e-12
2.50734e-10
-2.62844e-14
3.40819e-10
9.96407e-12
2.402e-10
2.26778e-11
2.09516e-10
1.65773e-11
2.55319e-10
1.15558e-11
-1.09478e-13
8.44758e-12
4.53358e-10
6.6627e-12
2.98308e-10
-1.0992e-11
4.99613e-10
-4.87333e-12
4.05644e-10
-3.52847e-12
4.85253e-10
-1.38402e-11
5.43816e-10
-2.36108e-11
2.81993e-10
-2.77106e-11
-6.44391e-11
-1.61337e-11
-4.4409e-10
-6.79053e-12
-4.75166e-10
-6.54003e-12
-1.98945e-10
-9.77078e-13
3.64515e-12
5.26673e-12
1.42019e-10
8.78669e-12
2.07181e-10
4.82325e-12
6.28667e-12
1.18028e-11
1.37339e-10
1.10734e-11
4.00578e-10
-8.53417e-12
1.70701e-10
-9.332e-12
-1.34318e-10
-6.12116e-12
4.84785e-10
-1.21606e-11
6.4016e-11
-1.11412e-11
-9.40839e-11
2.85201e-12
4.77722e-12
-3.08043e-12
-1.15887e-10
-8.35216e-12
2.60775e-11
1.83613e-11
-1.25521e-10
2.36195e-11
-3.55104e-10
2.24858e-11
-4.95611e-10
3.03573e-11
-3.92143e-10
2.32678e-11
6.14481e-11
3.90038e-11
3.77818e-10
1.93065e-11
3.64563e-10
1.814e-11
3.73985e-10
1.29484e-11
6.11851e-10
1.24043e-11
1.79065e-10
1.93158e-11
4.8398e-12
1.72377e-11
-2.64652e-10
7.61079e-12
-1.92917e-10
-4.3693e-12
-5.1691e-11
-1.12251e-11
-2.50273e-10
-9.77168e-12
-6.45657e-10
-7.27579e-12
3.24021e-10
-1.81288e-11
4.12928e-10
-4.46854e-11
-1.01795e-10
-3.08265e-11
-3.13088e-10
-1.76427e-11
-3.56094e-11
-2.9257e-11
9.98559e-11
-3.48957e-11
2.93641e-10
-1.30214e-11
3.98012e-10
1.01591e-11
1.30836e-10
1.62103e-11
4.11908e-10
3.51347e-11
1.36658e-10
3.67576e-11
-4.80623e-11
2.43247e-11
-6.16375e-10
-1.34987e-12
-3.26062e-10
2.00871e-11
-1.80041e-10
1.64359e-11
6.44572e-11
7.69041e-12
1.05213e-10
-9.14779e-12
1.37448e-10
-4.40838e-12
-1.34239e-10
-6.41155e-13
2.029e-10
-4.24144e-12
3.32536e-10
3.48763e-12
4.91012e-10
-1.14842e-11
2.90276e-10
-4.00966e-11
-2.64236e-12
-3.16035e-11
-2.59949e-11
-1.11456e-11
-4.45219e-10
9.48009e-12
-5.68188e-10
2.61367e-11
-6.38814e-10
3.31981e-11
-4.18672e-10
3.32339e-11
-2.43659e-10
1.04628e-11
2.07495e-10
-1.1481e-11
2.15877e-11
-7.82467e-12
1.82362e-10
-6.69137e-12
-1.30616e-10
-2.26652e-11
-1.53706e-10
-2.47836e-11
6.57668e-10
-3.6813e-11
-9.66621e-11
-4.41709e-11
-8.74417e-11
-1.80469e-11
2.20897e-10
5.57367e-12
-1.47336e-10
1.64157e-11
1.94954e-10
1.94473e-11
3.60524e-10
1.92827e-11
3.74112e-10
4.33331e-12
4.36779e-10
9.13918e-12
8.79274e-11
4.98471e-12
-1.64529e-10
1.77574e-11
-1.73961e-10
1.39929e-11
8.88352e-11
8.50914e-12
-2.04831e-10
-7.18609e-12
-1.4305e-10
-8.63864e-12
1.05823e-10
-1.43193e-11
-6.08951e-11
-1.23001e-11
-5.0984e-10
1.22269e-11
-4.25604e-10
2.89929e-11
-4.48398e-10
1.11972e-11
-5.59981e-10
1.40477e-11
-3.00188e-10
-4.66508e-12
-2.69316e-11
-5.78644e-12
-4.07926e-10
-9.52761e-12
-4.26336e-11
1.25485e-11
1.49418e-10
1.67291e-11
8.15832e-11
7.52059e-12
4.06493e-10
-4.11763e-12
3.6847e-10
1.17493e-11
-3.74917e-12
1.36166e-11
1.70907e-10
6.51661e-12
4.72997e-10
9.09338e-12
-2.51584e-12
1.38671e-11
6.11936e-12
4.77837e-11
1.98424e-10
7.59687e-11
-3.70726e-10
1.10827e-10
-5.47693e-10
2.01198e-10
-3.17408e-10
3.05751e-10
2.7724e-11
4.60786e-10
3.96387e-11
7.27628e-10
4.85135e-10
1.16918e-09
2.52041e-10
1.84609e-09
6.57573e-10
2.94488e-09
9.09697e-10
4.66672e-09
1.15427e-09
7.42095e-09
2.35782e-09
1.18265e-08
4.11025e-09
1.8865e-08
6.51015e-09
3.00734e-08
9.72566e-09
4.79047e-08
1.62786e-08
7.63137e-08
2.64929e-08
1.2158e-07
4.38995e-08
1.9368e-07
6.83816e-08
3.08538e-07
1.19129e-07
4.91505e-07
1.87791e-07
7.82961e-07
3.06298e-07
1.24713e-06