/*--------------------------------*- C++ -*----------------------------------*\
| =========                 |                                                 |
| \\      /  F ield         | OpenFOAM: The Open Source CFD Toolbox           |
|  \\    /   O peration     | Version:  2412                                  |
|   \\  /    A nd           | Website:  www.openfoam.com                      |
|    \\/     M anipulation  |                                                 |
\*---------------------------------------------------------------------------*/
FoamFile
{
    version     2.0;
    format      ascii;
    arch        "LSB;label=32;scalar=64";
    class       surfaceScalarField;
    location    "0.0035";
    object      phi;
}
// * * * * * * * * * * * * * * * * * * * * * * * * * * * * * * * * * * * * * //

dimensions      [1 0 -1 0 0 0 0];

oriented        oriented;

internalField   nonuniform List<scalar> 
359100
(
3.27398
6.93889e-17
3.27398
9.71445e-17
3.27398
8.32667e-17
3.27398
1.38778e-17
3.27398
-6.93889e-17
3.27398
-3.33067e-16
3.27398
-4.16334e-16
3.27398
-3.60822e-16
3.27398
-3.19189e-16
3.27398
-3.46945e-16
3.27398
-3.60822e-16
3.27398
-4.16334e-16
3.27398
-5.27356e-16
3.27398
-7.07767e-16
3.27398
-7.77156e-16
3.27398
-6.38378e-16
3.27398
-6.66134e-16
3.27398
-8.88178e-16
3.27398
-1.27676e-15
3.27398
-1.56819e-15
3.27398
-1.60982e-15
3.27398
-1.65146e-15
3.27398
-1.70697e-15
3.27398
-1.67921e-15
3.27398
-1.59595e-15
3.27398
-1.55431e-15
3.27398
-1.60982e-15
3.27398
-1.56819e-15
3.27398
-1.54043e-15
3.27398
-1.4988e-15
3.27398
-1.31839e-15
3.27398
-1.09635e-15
3.27398
-1.04083e-15
3.27398
-1.17961e-15
3.27398
-1.22125e-15
3.27398
-1.04083e-15
3.27398
-9.15934e-16
3.27398
-8.32667e-16
3.27398
-9.02056e-16
3.27398
-1.01308e-15
3.27398
-1.13798e-15
3.27398
-1.08247e-15
3.27398
-9.02056e-16
3.27398
-8.74301e-16
3.27398
-1.06859e-15
3.27398
-1.29063e-15
3.27398
-1.40166e-15
3.27398
-1.44329e-15
3.27398
-1.59595e-15
3.27398
-1.79023e-15
3.27398
-1.94289e-15
3.27398
-1.83187e-15
3.27398
-1.63758e-15
3.27398
-1.54043e-15
3.27398
-1.40166e-15
3.27398
-1.27676e-15
3.27398
-1.22125e-15
3.27398
-1.249e-15
3.27398
-1.22125e-15
3.27398
-1.23512e-15
3.27398
-1.3739e-15
3.27398
-1.76248e-15
3.27398
-2.05391e-15
3.27398
-2.01228e-15
3.27398
-1.77636e-15
3.27398
-1.58207e-15
3.27398
-1.56819e-15
3.27398
-1.59595e-15
3.27398
-1.60982e-15
3.27398
-1.69309e-15
3.27398
-1.77636e-15
3.27398
-1.7486e-15
3.27398
-1.77636e-15
3.27398
-1.80411e-15
3.27398
-1.77636e-15
3.27398
-1.76248e-15
3.27398
-1.79023e-15
3.27398
-1.90126e-15
3.27398
-1.81799e-15
3.27398
-1.76248e-15
3.27398
-1.77636e-15
3.27398
-1.72085e-15
3.27398
-1.66533e-15
3.27398
-1.70697e-15
3.27398
-1.84575e-15
3.27398
-1.92901e-15
3.27398
-1.83187e-15
3.27398
-1.72085e-15
3.27398
-1.63758e-15
3.27398
-1.72085e-15
3.27398
-1.91513e-15
3.27398
-2.13718e-15
3.27398
-2.38698e-15
3.27398
-2.52576e-15
3.27398
-2.63678e-15
3.27398
-2.81719e-15
3.27398
-2.85882e-15
3.27398
-2.77556e-15
3.27398
-2.53964e-15
3.27398
-2.30371e-15
3.27398
-2.1233e-15
3.27398
-2.04003e-15
3.27398
-1.85962e-15
3.27398
-1.76248e-15
3.27398
-1.73472e-15
3.27398
-1.70697e-15
3.27398
-1.55431e-15
3.27398
-1.48492e-15
3.27398
-1.6237e-15
3.27398
-1.83187e-15
3.27398
-2.05391e-15
3.27398
-2.2482e-15
3.27398
-2.40086e-15
3.27398
-2.47025e-15
3.27398
-2.56739e-15
3.27398
-2.60902e-15
3.27398
-2.66454e-15
3.27398
-2.6229e-15
3.27398
-2.44249e-15
3.27398
-2.26208e-15
3.27398
-2.15106e-15
3.27398
-2.2482e-15
3.27398
-2.41474e-15
3.27398
-2.48412e-15
3.27398
-2.56739e-15
3.27398
-2.41474e-15
3.27398
-1.91513e-15
3.27398
-1.44329e-15
3.27398
-1.05471e-15
3.27398
-9.02056e-16
3.27398
-8.88178e-16
3.27398
-9.71445e-16
3.27398
-1.13798e-15
3.27398
-1.3739e-15
3.27398
-1.70697e-15
3.27398
-1.85962e-15
3.27398
-1.97065e-15
3.27398
-2.13718e-15
3.27398
-2.33147e-15
3.27398
-2.38698e-15
3.27398
-2.40086e-15
3.27398
-2.42861e-15
3.27398
-2.3731e-15
3.27398
-2.09555e-15
3.27398
-1.67921e-15
3.27398
-1.42941e-15
3.27398
-1.47105e-15
3.27398
-1.6237e-15
3.27398
-1.69309e-15
3.27398
-1.83187e-15
3.27398
-1.88738e-15
3.27398
-2.05391e-15
3.27398
-2.38698e-15
3.27398
-2.77556e-15
3.27398
-2.94209e-15
3.27398
-2.81719e-15
3.27398
-2.73392e-15
3.27398
-2.69229e-15
3.27398
-2.498e-15
3.27398
-2.1233e-15
3.27398
-1.84575e-15
3.27398
-1.79023e-15
3.27398
-1.77636e-15
3.27398
-1.8735e-15
3.27398
-2.04003e-15
3.27398
-2.1233e-15
3.27398
-2.23432e-15
3.27398
-2.33147e-15
3.27398
-2.13718e-15
3.27398
-1.98452e-15
3.27398
-2.04003e-15
3.27398
-2.05391e-15
3.27398
-2.1233e-15
3.27398
-2.48412e-15
3.27398
-2.78944e-15
3.27398
-2.70617e-15
3.27398
-2.44249e-15
3.27398
-2.17881e-15
3.27398
-1.81799e-15
3.27398
-1.4988e-15
3.27398
-1.44329e-15
3.27398
-1.55431e-15
3.27398
-1.77636e-15
3.27398
-2.01228e-15
3.27398
-2.08167e-15
3.27398
-1.9984e-15
3.27398
-1.83187e-15
3.27398
-1.90126e-15
3.27398
-2.06779e-15
3.27398
-2.23432e-15
3.27398
-2.59515e-15
3.27398
-3.26128e-15
3.27398
-3.71925e-15
3.27398
-3.8719e-15
3.27398
-3.83027e-15
3.27398
-3.53884e-15
3.27398
-3.13638e-15
3.27398
-2.80331e-15
3.27398
-2.35922e-15
3.27398
-2.08167e-15
3.27398
-1.98452e-15
3.27398
-1.79023e-15
3.27398
-1.6237e-15
3.27398
-1.48492e-15
3.27398
-1.42941e-15
3.27398
-1.47105e-15
3.27398
-1.85962e-15
3.27398
-2.30371e-15
3.27398
-2.72005e-15
3.27398
-3.1225e-15
3.27398
-3.26128e-15
3.27398
-3.3723e-15
3.27398
-3.55271e-15
3.27398
-3.44169e-15
3.27398
-3.02536e-15
3.27398
-2.498e-15
3.27398
-2.10942e-15
3.27398
-2.15106e-15
3.27398
-2.28983e-15
3.27398
-2.27596e-15
3.27398
-2.28983e-15
3.27398
-2.1233e-15
3.27398
-1.8735e-15
3.27398
-1.52656e-15
3.27398
-1.29063e-15
3.27398
-1.34615e-15
3.27398
-1.45717e-15
3.27398
-1.65146e-15
3.27398
-1.80411e-15
3.27398
-1.95677e-15
3.27398
-2.02616e-15
3.27398
-2.08167e-15
3.27398
-2.17881e-15
3.27398
-2.19269e-15
3.27398
-2.22045e-15
3.27398
-2.47025e-15
3.27398
-2.58127e-15
3.27398
-2.42861e-15
3.27398
-2.10942e-15
3.27398
-1.51268e-15
3.27398
-6.38378e-16
3.27398
5.82867e-16
3.27398
2.31759e-15
3.27398
4.96825e-15
3.27398
9.0622e-15
3.27398
1.57513e-14
3.27398
2.70201e-14
3.27398
4.56024e-14
3.27398
7.64527e-14
3.27398
1.27634e-13
3.27398
2.12858e-13
3.27398
3.54466e-13
3.27398
5.89223e-13
3.27398
9.78675e-13
3.27398
1.62546e-12
3.27398
2.70035e-12
3.27398
4.48784e-12
3.27398
7.46213e-12
3.27398
1.24137e-11
3.27398
2.06621e-11
3.27398
3.44114e-11
3.27398
5.73466e-11
3.27398
9.56326e-11
3.27398
1.59592e-10
3.27398
2.66525e-10
3.27398
4.4545e-10
3.27398
7.45091e-10
3.27398
1.24733e-09
3.27398
2.08995e-09
3.27398
3.50497e-09
3.27398
5.88363e-09
3.27398
9.88635e-09
3.27398
1.66293e-08
3.27398
2.80013e-08
3.27398
4.72027e-08
3.27398
7.96637e-08
3.27398
1.34611e-07
3.27398
2.27742e-07
3.27398
3.8581e-07
3.27398
6.54472e-07
3.27398
1.11178e-06
3.27398
1.89137e-06
3.27397
3.22247e-06
3.27397
5.49892e-06
3.27396
9.39872e-06
3.27394
1.60912e-05
3.27391
2.75973e-05
3.27387
4.74177e-05
3.27378
8.16324e-05
3.27364
0.000140829
3.2734
0.000243527
3.27298
0.000422234
3.27224
0.000734526
3.27096
0.00128293
3.26871
0.00225391
3.26472
0.00398848
3.25757
0.00714266
3.24461
0.0129609
3.22052
0.0240835
0.0453974
3.17512
3.27398
2.77556e-17
3.27398
1.11022e-16
3.27398
1.38778e-16
3.27398
1.249e-16
3.27398
1.38778e-17
3.27398
-2.03861e-32
3.27398
-6.93889e-17
3.27398
-1.11022e-16
3.27398
-8.32667e-17
3.27398
-9.71445e-17
3.27398
-2.35922e-16
3.27398
-3.33067e-16
3.27398
-3.88578e-16
3.27398
-4.44089e-16
3.27398
-6.38378e-16
3.27398
-8.18789e-16
3.27398
-9.15934e-16
3.27398
-9.29812e-16
3.27398
-1.05471e-15
3.27398
-1.29063e-15
3.27398
-1.51268e-15
3.27398
-1.58207e-15
3.27398
-1.63758e-15
3.27398
-1.67921e-15
3.27398
-1.59595e-15
3.27398
-1.51268e-15
3.27398
-1.40166e-15
3.27398
-1.249e-15
3.27398
-1.11022e-15
3.27398
-9.71445e-16
3.27398
-8.88178e-16
3.27398
-8.18789e-16
3.27398
-7.63278e-16
3.27398
-7.21645e-16
3.27398
-6.80012e-16
3.27398
-6.93889e-16
3.27398
-7.21645e-16
3.27398
-8.32667e-16
3.27398
-8.60423e-16
3.27398
-9.02056e-16
3.27398
-9.29812e-16
3.27398
-9.02056e-16
3.27398
-9.4369e-16
3.27398
-9.85323e-16
3.27398
-1.01308e-15
3.27398
-1.17961e-15
3.27398
-1.47105e-15
3.27398
-1.65146e-15
3.27398
-1.69309e-15
3.27398
-1.72085e-15
3.27398
-1.77636e-15
3.27398
-1.76248e-15
3.27398
-1.65146e-15
3.27398
-1.56819e-15
3.27398
-1.51268e-15
3.27398
-1.63758e-15
3.27398
-1.85962e-15
3.27398
-1.84575e-15
3.27398
-1.58207e-15
3.27398
-1.29063e-15
3.27398
-1.19349e-15
3.27398
-1.27676e-15
3.27398
-1.56819e-15
3.27398
-1.70697e-15
3.27398
-1.60982e-15
3.27398
-1.31839e-15
3.27398
-1.09635e-15
3.27398
-8.74301e-16
3.27398
-7.63278e-16
3.27398
-7.91034e-16
3.27398
-9.85323e-16
3.27398
-1.16573e-15
3.27398
-1.33227e-15
3.27398
-1.3739e-15
3.27398
-1.40166e-15
3.27398
-1.40166e-15
3.27398
-1.3739e-15
3.27398
-1.30451e-15
3.27398
-1.16573e-15
3.27398
-1.06859e-15
3.27398
-9.4369e-16
3.27398
-9.85323e-16
3.27398
-1.19349e-15
3.27398
-1.52656e-15
3.27398
-1.7486e-15
3.27398
-1.92901e-15
3.27398
-2.16493e-15
3.27398
-2.41474e-15
3.27398
-2.53964e-15
3.27398
-2.55351e-15
3.27398
-2.59515e-15
3.27398
-2.72005e-15
3.27398
-2.83107e-15
3.27398
-2.8727e-15
3.27398
-2.98372e-15
3.27398
-2.96985e-15
3.27398
-2.91434e-15
3.27398
-2.69229e-15
3.27398
-2.47025e-15
3.27398
-2.2482e-15
3.27398
-2.08167e-15
3.27398
-1.98452e-15
3.27398
-2.05391e-15
3.27398
-1.98452e-15
3.27398
-1.92901e-15
3.27398
-1.91513e-15
3.27398
-1.83187e-15
3.27398
-1.67921e-15
3.27398
-1.67921e-15
3.27398
-1.76248e-15
3.27398
-1.84575e-15
3.27398
-1.88738e-15
3.27398
-1.92901e-15
3.27398
-1.91513e-15
3.27398
-1.9984e-15
3.27398
-2.10942e-15
3.27398
-2.20657e-15
3.27398
-2.19269e-15
3.27398
-2.15106e-15
3.27398
-2.08167e-15
3.27398
-1.94289e-15
3.27398
-1.79023e-15
3.27398
-1.72085e-15
3.27398
-1.7486e-15
3.27398
-1.7486e-15
3.27398
-1.79023e-15
3.27398
-1.83187e-15
3.27398
-1.76248e-15
3.27398
-1.76248e-15
3.27398
-1.65146e-15
3.27398
-1.67921e-15
3.27398
-1.80411e-15
3.27398
-1.8735e-15
3.27398
-1.91513e-15
3.27398
-1.9984e-15
3.27398
-2.05391e-15
3.27398
-2.02616e-15
3.27398
-2.15106e-15
3.27398
-2.28983e-15
3.27398
-2.33147e-15
3.27398
-2.2482e-15
3.27398
-2.13718e-15
3.27398
-2.09555e-15
3.27398
-2.08167e-15
3.27398
-2.15106e-15
3.27398
-2.22045e-15
3.27398
-2.44249e-15
3.27398
-2.66454e-15
3.27398
-2.88658e-15
3.27398
-2.98372e-15
3.27398
-2.90046e-15
3.27398
-2.7478e-15
3.27398
-2.66454e-15
3.27398
-2.56739e-15
3.27398
-2.47025e-15
3.27398
-2.51188e-15
3.27398
-2.56739e-15
3.27398
-2.45637e-15
3.27398
-2.31759e-15
3.27398
-2.15106e-15
3.27398
-1.98452e-15
3.27398
-1.83187e-15
3.27398
-1.94289e-15
3.27398
-2.16493e-15
3.27398
-2.26208e-15
3.27398
-2.26208e-15
3.27398
-2.16493e-15
3.27398
-2.13718e-15
3.27398
-2.09555e-15
3.27398
-1.88738e-15
3.27398
-1.79023e-15
3.27398
-1.76248e-15
3.27398
-1.80411e-15
3.27398
-1.84575e-15
3.27398
-1.95677e-15
3.27398
-1.9984e-15
3.27398
-1.88738e-15
3.27398
-1.8735e-15
3.27398
-1.91513e-15
3.27398
-2.04003e-15
3.27398
-2.23432e-15
3.27398
-2.40086e-15
3.27398
-2.41474e-15
3.27398
-2.51188e-15
3.27398
-2.55351e-15
3.27398
-2.51188e-15
3.27398
-2.42861e-15
3.27398
-2.31759e-15
3.27398
-2.23432e-15
3.27398
-2.28983e-15
3.27398
-2.48412e-15
3.27398
-2.66454e-15
3.27398
-2.73392e-15
3.27398
-2.65066e-15
3.27398
-2.55351e-15
3.27398
-2.58127e-15
3.27398
-2.59515e-15
3.27398
-2.53964e-15
3.27398
-2.40086e-15
3.27398
-2.38698e-15
3.27398
-2.51188e-15
3.27398
-2.58127e-15
3.27398
-2.45637e-15
3.27398
-2.30371e-15
3.27398
-2.15106e-15
3.27398
-1.8735e-15
3.27398
-1.52656e-15
3.27398
-1.3739e-15
3.27398
-1.42941e-15
3.27398
-1.4988e-15
3.27398
-1.72085e-15
3.27398
-1.97065e-15
3.27398
-2.04003e-15
3.27398
-1.90126e-15
3.27398
-1.63758e-15
3.27398
-1.47105e-15
3.27398
-1.55431e-15
3.27398
-1.66533e-15
3.27398
-1.69309e-15
3.27398
-1.90126e-15
3.27398
-2.1233e-15
3.27398
-2.27596e-15
3.27398
-2.2482e-15
3.27398
-2.23432e-15
3.27398
-2.3731e-15
3.27398
-2.69229e-15
3.27398
-2.94209e-15
3.27398
-2.85882e-15
3.27398
-2.69229e-15
3.27398
-2.53964e-15
3.27398
-2.26208e-15
3.27398
-1.84575e-15
3.27398
-1.47105e-15
3.27398
-1.01308e-15
3.27398
-5.27356e-16
3.27398
-2.08167e-16
3.27398
-1.80411e-16
3.27398
-1.249e-16
3.27398
8.32667e-17
3.27398
5.41234e-16
3.27398
1.44329e-15
3.27398
3.10862e-15
3.27398
5.77316e-15
3.27398
1.00336e-14
3.27398
1.71807e-14
3.27398
2.91434e-14
3.27398
4.89747e-14
3.27398
8.21565e-14
3.27398
1.37348e-13
3.27398
2.28734e-13
3.27398
3.80002e-13
3.27398
6.30565e-13
3.27398
1.04551e-12
3.27398
1.73184e-12
3.27398
2.86732e-12
3.27398
4.74688e-12
3.27398
7.85993e-12
3.27398
1.30184e-11
3.27398
2.15689e-11
3.27398
3.57471e-11
3.27398
5.92665e-11
3.27398
9.82974e-11
3.27398
1.63097e-10
3.27398
2.70723e-10
3.27398
4.49558e-10
3.27398
7.46846e-10
3.27398
1.24127e-09
3.27398
2.06391e-09
3.27398
3.4333e-09
3.27398
5.71386e-09
3.27398
9.51369e-09
3.27398
1.58479e-08
3.27398
2.64119e-08
3.27398
4.40387e-08
3.27398
7.34645e-08
3.27398
1.22611e-07
3.27398
2.04736e-07
3.27398
3.42031e-07
3.27398
5.71672e-07
3.27398
9.55952e-07
3.27398
1.5993e-06
3.27398
2.67687e-06
3.27398
4.48252e-06
3.27397
7.50951e-06
3.27397
1.25861e-05
3.27397
2.11037e-05
3.27396
3.54005e-05
3.27395
5.9408e-05
3.27393
9.97408e-05
3.2739
0.000167538
3.27386
0.000281579
3.27381
0.000473598
3.27375
0.000797367
3.27369
0.0013445
3.27367
0.00227205
3.2738
0.00385284
3.27438
0.00656478
3.27607
0.01127
3.28066
0.0194881
0.0341257
3.29193
3.27398
-1.11022e-16
3.27398
-1.66533e-16
3.27398
-1.66533e-16
3.27398
-1.66533e-16
3.27398
-5.55112e-17
3.27398
1.249e-16
3.27398
1.11022e-16
3.27398
-9.71445e-17
3.27398
-3.33067e-16
3.27398
-4.44089e-16
3.27398
-4.57967e-16
3.27398
-3.60822e-16
3.27398
-3.05311e-16
3.27398
-2.498e-16
3.27398
-4.02456e-16
3.27398
-5.41234e-16
3.27398
-5.55112e-16
3.27398
-6.10623e-16
3.27398
-5.27356e-16
3.27398
-4.71845e-16
3.27398
-5.55112e-16
3.27398
-7.77156e-16
3.27398
-1.02696e-15
3.27398
-1.16573e-15
3.27398
-1.11022e-15
3.27398
-9.85323e-16
3.27398
-9.02056e-16
3.27398
-8.74301e-16
3.27398
-8.46545e-16
3.27398
-9.57567e-16
3.27398
-1.1241e-15
3.27398
-1.15186e-15
3.27398
-1.13798e-15
3.27398
-1.08247e-15
3.27398
-1.01308e-15
3.27398
-9.4369e-16
3.27398
-8.32667e-16
3.27398
-6.93889e-16
3.27398
-6.66134e-16
3.27398
-6.93889e-16
3.27398
-7.21645e-16
3.27398
-8.18789e-16
3.27398
-9.02056e-16
3.27398
-8.04912e-16
3.27398
-7.63278e-16
3.27398
-9.4369e-16
3.27398
-1.11022e-15
3.27398
-1.05471e-15
3.27398
-1.01308e-15
3.27398
-1.13798e-15
3.27398
-1.27676e-15
3.27398
-1.34615e-15
3.27398
-1.48492e-15
3.27398
-1.63758e-15
3.27398
-1.91513e-15
3.27398
-2.22045e-15
3.27398
-2.30371e-15
3.27398
-2.16493e-15
3.27398
-2.05391e-15
3.27398
-1.8735e-15
3.27398
-1.55431e-15
3.27398
-1.41553e-15
3.27398
-1.26288e-15
3.27398
-1.19349e-15
3.27398
-1.27676e-15
3.27398
-1.41553e-15
3.27398
-1.3739e-15
3.27398
-1.19349e-15
3.27398
-9.71445e-16
3.27398
-9.02056e-16
3.27398
-9.29812e-16
3.27398
-1.06859e-15
3.27398
-1.16573e-15
3.27398
-1.13798e-15
3.27398
-1.08247e-15
3.27398
-1.13798e-15
3.27398
-1.22125e-15
3.27398
-1.27676e-15
3.27398
-1.34615e-15
3.27398
-1.34615e-15
3.27398
-1.36002e-15
3.27398
-1.40166e-15
3.27398
-1.51268e-15
3.27398
-1.65146e-15
3.27398
-1.67921e-15
3.27398
-1.70697e-15
3.27398
-1.88738e-15
3.27398
-2.09555e-15
3.27398
-2.15106e-15
3.27398
-2.05391e-15
3.27398
-1.94289e-15
3.27398
-1.8735e-15
3.27398
-1.80411e-15
3.27398
-1.83187e-15
3.27398
-1.76248e-15
3.27398
-1.79023e-15
3.27398
-1.81799e-15
3.27398
-1.8735e-15
3.27398
-2.01228e-15
3.27398
-2.1233e-15
3.27398
-2.10942e-15
3.27398
-1.9984e-15
3.27398
-1.79023e-15
3.27398
-1.73472e-15
3.27398
-1.6237e-15
3.27398
-1.52656e-15
3.27398
-1.55431e-15
3.27398
-1.70697e-15
3.27398
-1.83187e-15
3.27398
-1.94289e-15
3.27398
-2.02616e-15
3.27398
-1.97065e-15
3.27398
-1.94289e-15
3.27398
-1.9984e-15
3.27398
-2.01228e-15
3.27398
-1.98452e-15
3.27398
-1.83187e-15
3.27398
-1.65146e-15
3.27398
-1.65146e-15
3.27398
-1.76248e-15
3.27398
-1.76248e-15
3.27398
-1.7486e-15
3.27398
-1.80411e-15
3.27398
-1.85962e-15
3.27398
-1.73472e-15
3.27398
-1.60982e-15
3.27398
-1.63758e-15
3.27398
-1.7486e-15
3.27398
-1.98452e-15
3.27398
-2.27596e-15
3.27398
-2.3731e-15
3.27398
-2.44249e-15
3.27398
-2.498e-15
3.27398
-2.59515e-15
3.27398
-2.84495e-15
3.27398
-3.17801e-15
3.27398
-3.30291e-15
3.27398
-3.21965e-15
3.27398
-3.06699e-15
3.27398
-2.81719e-15
3.27398
-2.6229e-15
3.27398
-2.42861e-15
3.27398
-2.20657e-15
3.27398
-2.15106e-15
3.27398
-2.16493e-15
3.27398
-2.34535e-15
3.27398
-2.44249e-15
3.27398
-2.3731e-15
3.27398
-2.28983e-15
3.27398
-2.2482e-15
3.27398
-2.08167e-15
3.27398
-1.97065e-15
3.27398
-1.81799e-15
3.27398
-1.79023e-15
3.27398
-1.84575e-15
3.27398
-1.94289e-15
3.27398
-2.15106e-15
3.27398
-2.31759e-15
3.27398
-2.3731e-15
3.27398
-2.41474e-15
3.27398
-2.35922e-15
3.27398
-2.2482e-15
3.27398
-2.23432e-15
3.27398
-2.34535e-15
3.27398
-2.51188e-15
3.27398
-2.52576e-15
3.27398
-2.34535e-15
3.27398
-2.22045e-15
3.27398
-2.33147e-15
3.27398
-2.53964e-15
3.27398
-2.60902e-15
3.27398
-2.63678e-15
3.27398
-2.48412e-15
3.27398
-2.41474e-15
3.27398
-2.44249e-15
3.27398
-2.55351e-15
3.27398
-2.7478e-15
3.27398
-2.92821e-15
3.27398
-3.15026e-15
3.27398
-3.38618e-15
3.27398
-3.56659e-15
3.27398
-3.66374e-15
3.27398
-3.747e-15
3.27398
-3.63598e-15
3.27398
-3.55271e-15
3.27398
-3.51108e-15
3.27398
-3.26128e-15
3.27398
-2.84495e-15
3.27398
-2.40086e-15
3.27398
-1.97065e-15
3.27398
-1.70697e-15
3.27398
-1.52656e-15
3.27398
-1.44329e-15
3.27398
-1.3739e-15
3.27398
-1.31839e-15
3.27398
-1.23512e-15
3.27398
-1.30451e-15
3.27398
-1.41553e-15
3.27398
-1.6237e-15
3.27398
-1.8735e-15
3.27398
-1.97065e-15
3.27398
-2.19269e-15
3.27398
-2.41474e-15
3.27398
-2.55351e-15
3.27398
-2.66454e-15
3.27398
-2.6229e-15
3.27398
-2.47025e-15
3.27398
-2.09555e-15
3.27398
-1.67921e-15
3.27398
-1.45717e-15
3.27398
-1.40166e-15
3.27398
-1.40166e-15
3.27398
-1.45717e-15
3.27398
-1.4988e-15
3.27398
-1.58207e-15
3.27398
-1.80411e-15
3.27398
-2.13718e-15
3.27398
-2.19269e-15
3.27398
-2.16493e-15
3.27398
-2.1233e-15
3.27398
-2.02616e-15
3.27398
-1.81799e-15
3.27398
-1.70697e-15
3.27398
-1.66533e-15
3.27398
-1.72085e-15
3.27398
-1.8735e-15
3.27398
-1.97065e-15
3.27398
-1.98452e-15
3.27398
-1.98452e-15
3.27398
-1.72085e-15
3.27398
-1.48492e-15
3.27398
-1.27676e-15
3.27398
-1.02696e-15
3.27398
-7.63278e-16
3.27398
-5.82867e-16
3.27398
-3.88578e-16
3.27398
-2.08167e-16
3.27398
-9.71445e-17
3.27398
1.11022e-16
3.27398
5.55112e-16
3.27398
1.56819e-15
3.27398
3.56659e-15
3.27398
7.04992e-15
3.27398
1.27953e-14
3.27398
2.22322e-14
3.27398
3.7817e-14
3.27398
6.3588e-14
3.27398
1.05901e-13
3.27398
1.75693e-13
3.27398
2.90754e-13
3.27398
4.80282e-13
3.27398
7.92547e-13
3.27398
1.30686e-12
3.27398
2.15424e-12
3.27398
3.55052e-12
3.27398
5.85214e-12
3.27398
9.64646e-12
3.27398
1.59021e-11
3.27398
2.62176e-11
3.27398
4.32314e-11
3.27398
7.12977e-11
3.27398
1.17604e-10
3.27398
1.94016e-10
3.27398
3.20127e-10
3.27398
5.28297e-10
3.27398
8.71968e-10
3.27398
1.43942e-09
3.27398
2.37651e-09
3.27398
3.92417e-09
3.27398
6.48056e-09
3.27398
1.07036e-08
3.27398
1.76803e-08
3.27398
2.92072e-08
3.27398
4.82531e-08
3.27398
7.97235e-08
3.27398
1.31724e-07
3.27398
2.17647e-07
3.27398
3.59616e-07
3.27398
5.9417e-07
3.27398
9.81651e-07
3.27398
1.62167e-06
3.27398
2.67862e-06
3.27398
4.4237e-06
3.27398
7.3041e-06
3.27398
1.20568e-05
3.27398
1.98959e-05
3.27398
3.28196e-05
3.27399
5.41153e-05
3.274
8.91871e-05
3.27402
0.000146914
3.27406
0.000241875
3.27414
0.000398013
3.27428
0.000654652
3.27455
0.00107652
3.27505
0.0017703
3.27599
0.00291332
3.27775
0.00480041
3.28108
0.00793452
3.28742
0.0131476
0.0219618
3.29958
3.27398
4.16334e-17
3.27398
5.55112e-17
3.27398
1.249e-16
3.27398
2.22045e-16
3.27398
2.35922e-16
3.27398
9.71445e-17
3.27398
-6.93889e-17
3.27398
-1.52656e-16
3.27398
-2.35922e-16
3.27398
-2.63678e-16
3.27398
-2.498e-16
3.27398
-2.91434e-16
3.27398
-3.05311e-16
3.27398
-2.77556e-16
3.27398
-1.66533e-16
3.27398
-5.55112e-17
3.27398
-8.15444e-32
3.27398
1.38778e-17
3.27398
8.32667e-17
3.27398
8.32667e-17
3.27398
1.38778e-16
3.27398
2.35922e-16
3.27398
4.02456e-16
3.27398
5.27356e-16
3.27398
5.27356e-16
3.27398
3.33067e-16
3.27398
-2.77556e-17
3.27398
-3.33067e-16
3.27398
-4.02456e-16
3.27398
-4.996e-16
3.27398
-7.07767e-16
3.27398
-7.21645e-16
3.27398
-5.96745e-16
3.27398
-5.55112e-16
3.27398
-4.57967e-16
3.27398
-2.498e-16
3.27398
2.77556e-17
3.27398
2.08167e-16
3.27398
3.46945e-16
3.27398
3.46945e-16
3.27398
9.71445e-17
3.27398
-2.22045e-16
3.27398
-3.05311e-16
3.27398
-3.747e-16
3.27398
-5.55112e-16
3.27398
-8.32667e-16
3.27398
-9.85323e-16
3.27398
-1.11022e-15
3.27398
-1.29063e-15
3.27398
-1.38778e-15
3.27398
-1.54043e-15
3.27398
-1.72085e-15
3.27398
-1.83187e-15
3.27398
-1.85962e-15
3.27398
-1.83187e-15
3.27398
-1.76248e-15
3.27398
-1.63758e-15
3.27398
-1.66533e-15
3.27398
-1.76248e-15
3.27398
-1.91513e-15
3.27398
-2.06779e-15
3.27398
-1.8735e-15
3.27398
-1.69309e-15
3.27398
-1.51268e-15
3.27398
-1.52656e-15
3.27398
-1.7486e-15
3.27398
-1.88738e-15
3.27398
-1.92901e-15
3.27398
-1.92901e-15
3.27398
-1.83187e-15
3.27398
-1.65146e-15
3.27398
-1.38778e-15
3.27398
-1.13798e-15
3.27398
-9.99201e-16
3.27398
-9.99201e-16
3.27398
-9.99201e-16
3.27398
-1.02696e-15
3.27398
-1.22125e-15
3.27398
-1.4988e-15
3.27398
-1.70697e-15
3.27398
-1.85962e-15
3.27398
-1.92901e-15
3.27398
-1.84575e-15
3.27398
-1.77636e-15
3.27398
-1.80411e-15
3.27398
-1.8735e-15
3.27398
-1.79023e-15
3.27398
-1.63758e-15
3.27398
-1.40166e-15
3.27398
-1.31839e-15
3.27398
-1.33227e-15
3.27398
-1.3739e-15
3.27398
-1.44329e-15
3.27398
-1.55431e-15
3.27398
-1.77636e-15
3.27398
-2.02616e-15
3.27398
-2.17881e-15
3.27398
-2.31759e-15
3.27398
-2.44249e-15
3.27398
-2.45637e-15
3.27398
-2.40086e-15
3.27398
-2.33147e-15
3.27398
-2.31759e-15
3.27398
-2.20657e-15
3.27398
-2.08167e-15
3.27398
-1.92901e-15
3.27398
-1.85962e-15
3.27398
-1.91513e-15
3.27398
-2.06779e-15
3.27398
-2.16493e-15
3.27398
-2.13718e-15
3.27398
-2.05391e-15
3.27398
-1.9984e-15
3.27398
-2.1233e-15
3.27398
-2.17881e-15
3.27398
-2.04003e-15
3.27398
-1.85962e-15
3.27398
-1.76248e-15
3.27398
-1.65146e-15
3.27398
-1.70697e-15
3.27398
-1.95677e-15
3.27398
-2.16493e-15
3.27398
-2.16493e-15
3.27398
-1.91513e-15
3.27398
-1.66533e-15
3.27398
-1.45717e-15
3.27398
-1.40166e-15
3.27398
-1.48492e-15
3.27398
-1.52656e-15
3.27398
-1.54043e-15
3.27398
-1.55431e-15
3.27398
-1.60982e-15
3.27398
-1.80411e-15
3.27398
-2.13718e-15
3.27398
-2.42861e-15
3.27398
-2.72005e-15
3.27398
-2.8727e-15
3.27398
-2.72005e-15
3.27398
-2.47025e-15
3.27398
-2.31759e-15
3.27398
-2.30371e-15
3.27398
-2.33147e-15
3.27398
-2.38698e-15
3.27398
-2.51188e-15
3.27398
-2.58127e-15
3.27398
-2.56739e-15
3.27398
-2.51188e-15
3.27398
-2.53964e-15
3.27398
-2.48412e-15
3.27398
-2.38698e-15
3.27398
-2.33147e-15
3.27398
-2.26208e-15
3.27398
-2.16493e-15
3.27398
-2.15106e-15
3.27398
-2.17881e-15
3.27398
-2.16493e-15
3.27398
-1.9984e-15
3.27398
-1.80411e-15
3.27398
-1.63758e-15
3.27398
-1.59595e-15
3.27398
-1.59595e-15
3.27398
-1.72085e-15
3.27398
-1.85962e-15
3.27398
-1.85962e-15
3.27398
-1.81799e-15
3.27398
-1.90126e-15
3.27398
-1.90126e-15
3.27398
-1.88738e-15
3.27398
-2.09555e-15
3.27398
-2.38698e-15
3.27398
-2.47025e-15
3.27398
-2.38698e-15
3.27398
-2.48412e-15
3.27398
-2.67841e-15
3.27398
-2.91434e-15
3.27398
-3.02536e-15
3.27398
-3.17801e-15
3.27398
-3.41394e-15
3.27398
-3.60822e-15
3.27398
-3.747e-15
3.27398
-3.85803e-15
3.27398
-4.05231e-15
3.27398
-4.26048e-15
3.27398
-4.39926e-15
3.27398
-4.3715e-15
3.27398
-4.2466e-15
3.27398
-4.14946e-15
3.27398
-3.92741e-15
3.27398
-3.58047e-15
3.27398
-3.03924e-15
3.27398
-2.498e-15
3.27398
-2.1233e-15
3.27398
-1.73472e-15
3.27398
-1.29063e-15
3.27398
-9.99201e-16
3.27398
-9.99201e-16
3.27398
-1.13798e-15
3.27398
-1.44329e-15
3.27398
-1.97065e-15
3.27398
-2.33147e-15
3.27398
-2.44249e-15
3.27398
-2.47025e-15
3.27398
-2.60902e-15
3.27398
-2.67841e-15
3.27398
-2.65066e-15
3.27398
-2.56739e-15
3.27398
-2.3731e-15
3.27398
-2.15106e-15
3.27398
-2.15106e-15
3.27398
-2.15106e-15
3.27398
-1.90126e-15
3.27398
-1.60982e-15
3.27398
-1.41553e-15
3.27398
-1.47105e-15
3.27398
-1.66533e-15
3.27398
-1.85962e-15
3.27398
-2.04003e-15
3.27398
-2.08167e-15
3.27398
-1.92901e-15
3.27398
-1.76248e-15
3.27398
-1.70697e-15
3.27398
-1.58207e-15
3.27398
-1.36002e-15
3.27398
-1.15186e-15
3.27398
-9.71445e-16
3.27398
-8.32667e-16
3.27398
-8.60423e-16
3.27398
-9.99201e-16
3.27398
-1.02696e-15
3.27398
-1.09635e-15
3.27398
-1.05471e-15
3.27398
-1.09635e-15
3.27398
-1.16573e-15
3.27398
-1.26288e-15
3.27398
-1.40166e-15
3.27398
-1.42941e-15
3.27398
-1.27676e-15
3.27398
-9.57567e-16
3.27398
-4.71845e-16
3.27398
2.91434e-16
3.27398
1.59595e-15
3.27398
3.69149e-15
3.27398
7.38298e-15
3.27398
1.36141e-14
3.27398
2.39114e-14
3.27398
4.08007e-14
3.27398
6.84452e-14
3.27398
1.13673e-13
3.27398
1.87822e-13
3.27398
3.096e-13
3.27398
5.0937e-13
3.27398
8.36636e-13
3.27398
1.37326e-12
3.27398
2.25343e-12
3.27398
3.69707e-12
3.27398
6.06472e-12
3.27398
9.94767e-12
3.27398
1.63155e-11
3.27398
2.67588e-11
3.27398
4.38857e-11
3.27398
7.19727e-11
3.27398
1.18033e-10
3.27398
1.93564e-10
3.27398
3.17417e-10
3.27398
5.20491e-10
3.27398
8.53432e-10
3.27398
1.39924e-09
3.27398
2.29392e-09
3.27398
3.76025e-09
3.27398
6.16315e-09
3.27398
1.01001e-08
3.27398
1.65493e-08
3.27398
2.71115e-08
3.27398
4.44055e-08
3.27398
7.27139e-08
3.27398
1.19038e-07
3.27398
1.94815e-07
3.27398
3.18728e-07
3.27398
5.21266e-07
3.27398
8.52167e-07
3.27398
1.39251e-06
3.27398
2.27436e-06
3.27398
3.71267e-06
3.27398
6.05701e-06
3.27398
9.87532e-06
3.27399
1.60894e-05
3.274
2.61938e-05
3.27401
4.26091e-05
3.27403
6.92505e-05
3.27406
0.000112445
3.27412
0.000182404
3.27422
0.000295596
3.2744
0.000478561
3.2747
0.000774099
3.27522
0.0012512
3.27611
0.00202171
3.27764
0.00326637
3.28029
0.00528411
3.28489
0.00855328
0.0139232
3.29292
3.27398
5.55112e-17
3.27398
8.32667e-17
3.27398
1.11022e-16
3.27398
8.32667e-17
3.27398
5.55112e-17
3.27398
4.16334e-17
3.27398
9.71445e-17
3.27398
2.22045e-16
3.27398
4.57967e-16
3.27398
4.996e-16
3.27398
4.57967e-16
3.27398
3.33067e-16
3.27398
2.91434e-16
3.27398
4.16334e-16
3.27398
6.52256e-16
3.27398
7.35523e-16
3.27398
6.52256e-16
3.27398
4.996e-16
3.27398
2.35922e-16
3.27398
1.80411e-16
3.27398
3.19189e-16
3.27398
6.10623e-16
3.27398
7.49401e-16
3.27398
6.93889e-16
3.27398
4.44089e-16
3.27398
1.52656e-16
3.27398
-1.11022e-16
3.27398
-2.77556e-16
3.27398
-3.88578e-16
3.27398
-3.05311e-16
3.27398
-1.94289e-16
3.27398
-3.05311e-16
3.27398
-4.57967e-16
3.27398
-4.30211e-16
3.27398
-4.57967e-16
3.27398
-4.44089e-16
3.27398
-4.16334e-16
3.27398
-4.02456e-16
3.27398
-3.88578e-16
3.27398
-4.57967e-16
3.27398
-6.93889e-16
3.27398
-9.02056e-16
3.27398
-1.16573e-15
3.27398
-1.31839e-15
3.27398
-1.42941e-15
3.27398
-1.42941e-15
3.27398
-1.3739e-15
3.27398
-1.40166e-15
3.27398
-1.44329e-15
3.27398
-1.47105e-15
3.27398
-1.38778e-15
3.27398
-1.3739e-15
3.27398
-1.36002e-15
3.27398
-1.33227e-15
3.27398
-1.40166e-15
3.27398
-1.40166e-15
3.27398
-1.36002e-15
3.27398
-1.41553e-15
3.27398
-1.54043e-15
3.27398
-1.60982e-15
3.27398
-1.54043e-15
3.27398
-1.48492e-15
3.27398
-1.40166e-15
3.27398
-1.48492e-15
3.27398
-1.66533e-15
3.27398
-1.8735e-15
3.27398
-2.08167e-15
3.27398
-2.19269e-15
3.27398
-2.2482e-15
3.27398
-2.05391e-15
3.27398
-1.70697e-15
3.27398
-1.38778e-15
3.27398
-1.30451e-15
3.27398
-1.30451e-15
3.27398
-1.31839e-15
3.27398
-1.22125e-15
3.27398
-9.57567e-16
3.27398
-7.21645e-16
3.27398
-5.41234e-16
3.27398
-5.96745e-16
3.27398
-7.21645e-16
3.27398
-8.46545e-16
3.27398
-9.02056e-16
3.27398
-9.4369e-16
3.27398
-1.05471e-15
3.27398
-1.11022e-15
3.27398
-1.1241e-15
3.27398
-1.20737e-15
3.27398
-1.29063e-15
3.27398
-1.27676e-15
3.27398
-1.26288e-15
3.27398
-1.30451e-15
3.27398
-1.40166e-15
3.27398
-1.51268e-15
3.27398
-1.60982e-15
3.27398
-1.66533e-15
3.27398
-1.56819e-15
3.27398
-1.47105e-15
3.27398
-1.44329e-15
3.27398
-1.58207e-15
3.27398
-1.81799e-15
3.27398
-2.08167e-15
3.27398
-2.26208e-15
3.27398
-2.38698e-15
3.27398
-2.45637e-15
3.27398
-2.48412e-15
3.27398
-2.34535e-15
3.27398
-2.08167e-15
3.27398
-1.94289e-15
3.27398
-1.85962e-15
3.27398
-1.72085e-15
3.27398
-1.67921e-15
3.27398
-1.77636e-15
3.27398
-1.8735e-15
3.27398
-1.8735e-15
3.27398
-1.76248e-15
3.27398
-1.7486e-15
3.27398
-1.84575e-15
3.27398
-2.05391e-15
3.27398
-2.06779e-15
3.27398
-1.9984e-15
3.27398
-1.94289e-15
3.27398
-1.88738e-15
3.27398
-1.83187e-15
3.27398
-1.70697e-15
3.27398
-1.73472e-15
3.27398
-1.88738e-15
3.27398
-2.04003e-15
3.27398
-2.08167e-15
3.27398
-2.13718e-15
3.27398
-2.27596e-15
3.27398
-2.38698e-15
3.27398
-2.44249e-15
3.27398
-2.498e-15
3.27398
-2.40086e-15
3.27398
-2.20657e-15
3.27398
-2.1233e-15
3.27398
-2.13718e-15
3.27398
-2.1233e-15
3.27398
-1.9984e-15
3.27398
-1.80411e-15
3.27398
-1.7486e-15
3.27398
-1.81799e-15
3.27398
-1.88738e-15
3.27398
-1.94289e-15
3.27398
-1.94289e-15
3.27398
-2.13718e-15
3.27398
-2.498e-15
3.27398
-2.72005e-15
3.27398
-2.7478e-15
3.27398
-2.60902e-15
3.27398
-2.33147e-15
3.27398
-1.9984e-15
3.27398
-1.60982e-15
3.27398
-1.27676e-15
3.27398
-1.20737e-15
3.27398
-1.26288e-15
3.27398
-1.26288e-15
3.27398
-1.23512e-15
3.27398
-1.33227e-15
3.27398
-1.54043e-15
3.27398
-1.7486e-15
3.27398
-1.8735e-15
3.27398
-1.92901e-15
3.27398
-2.02616e-15
3.27398
-2.20657e-15
3.27398
-2.56739e-15
3.27398
-2.92821e-15
3.27398
-3.09475e-15
3.27398
-3.17801e-15
3.27398
-3.19189e-15
3.27398
-3.28904e-15
3.27398
-3.44169e-15
3.27398
-3.58047e-15
3.27398
-3.55271e-15
3.27398
-3.58047e-15
3.27398
-3.67761e-15
3.27398
-3.6221e-15
3.27398
-3.42781e-15
3.27398
-3.20577e-15
3.27398
-2.98372e-15
3.27398
-2.85882e-15
3.27398
-2.8727e-15
3.27398
-2.98372e-15
3.27398
-3.01148e-15
3.27398
-3.01148e-15
3.27398
-2.91434e-15
3.27398
-2.80331e-15
3.27398
-2.67841e-15
3.27398
-2.55351e-15
3.27398
-2.35922e-15
3.27398
-1.90126e-15
3.27398
-1.4988e-15
3.27398
-1.42941e-15
3.27398
-1.56819e-15
3.27398
-1.77636e-15
3.27398
-1.97065e-15
3.27398
-2.2482e-15
3.27398
-2.53964e-15
3.27398
-2.98372e-15
3.27398
-3.44169e-15
3.27398
-3.70537e-15
3.27398
-3.69149e-15
3.27398
-3.53884e-15
3.27398
-3.46945e-15
3.27398
-3.26128e-15
3.27398
-2.8727e-15
3.27398
-2.498e-15
3.27398