/*--------------------------------*- C++ -*----------------------------------*\
| =========                 |                                                 |
| \\      /  F ield         | OpenFOAM: The Open Source CFD Toolbox           |
|  \\    /   O peration     | Version:  2412                                  |
|   \\  /    A nd           | Website:  www.openfoam.com                      |
|    \\/     M anipulation  |                                                 |
\*---------------------------------------------------------------------------*/
FoamFile
{
    version     2.0;
    format      ascii;
    arch        "LSB;label=32;scalar=64";
    class       surfaceScalarField;
    location    "0.0035";
    object      phi_0;
}
// * * * * * * * * * * * * * * * * * * * * * * * * * * * * * * * * * * * * * //

dimensions      [1 0 -1 0 0 0 0];

oriented        oriented;

internalField   nonuniform List<scalar> 
359100
(
3.27398
4.16334e-17
3.27398
4.16334e-17
3.27398
8.32667e-17
3.27398
-1.38778e-17
3.27398
-2.08167e-16
3.27398
-2.91434e-16
3.27398
-2.63678e-16
3.27398
-1.249e-16
3.27398
-1.80411e-16
3.27398
-2.35922e-16
3.27398
-2.498e-16
3.27398
-3.19189e-16
3.27398
-4.85723e-16
3.27398
-6.245e-16
3.27398
-5.41234e-16
3.27398
-5.55112e-16
3.27398
-7.21645e-16
3.27398
-1.1241e-15
3.27398
-1.45717e-15
3.27398
-1.59595e-15
3.27398
-1.69309e-15
3.27398
-1.76248e-15
3.27398
-1.70697e-15
3.27398
-1.56819e-15
3.27398
-1.56819e-15
3.27398
-1.58207e-15
3.27398
-1.58207e-15
3.27398
-1.55431e-15
3.27398
-1.48492e-15
3.27398
-1.34615e-15
3.27398
-1.19349e-15
3.27398
-1.1241e-15
3.27398
-1.249e-15
3.27398
-1.33227e-15
3.27398
-1.17961e-15
3.27398
-9.85323e-16
3.27398
-9.29812e-16
3.27398
-9.15934e-16
3.27398
-1.02696e-15
3.27398
-1.20737e-15
3.27398
-1.20737e-15
3.27398
-1.01308e-15
3.27398
-9.15934e-16
3.27398
-1.01308e-15
3.27398
-1.249e-15
3.27398
-1.41553e-15
3.27398
-1.41553e-15
3.27398
-1.51268e-15
3.27398
-1.67921e-15
3.27398
-1.80411e-15
3.27398
-1.79023e-15
3.27398
-1.59595e-15
3.27398
-1.47105e-15
3.27398
-1.38778e-15
3.27398
-1.29063e-15
3.27398
-1.30451e-15
3.27398
-1.38778e-15
3.27398
-1.3739e-15
3.27398
-1.30451e-15
3.27398
-1.42941e-15
3.27398
-1.72085e-15
3.27398
-1.95677e-15
3.27398
-2.08167e-15
3.27398
-1.85962e-15
3.27398
-1.59595e-15
3.27398
-1.59595e-15
3.27398
-1.60982e-15
3.27398
-1.55431e-15
3.27398
-1.59595e-15
3.27398
-1.65146e-15
3.27398
-1.60982e-15
3.27398
-1.66533e-15
3.27398
-1.76248e-15
3.27398
-1.72085e-15
3.27398
-1.72085e-15
3.27398
-1.76248e-15
3.27398
-1.76248e-15
3.27398
-1.80411e-15
3.27398
-1.77636e-15
3.27398
-1.72085e-15
3.27398
-1.72085e-15
3.27398
-1.60982e-15
3.27398
-1.69309e-15
3.27398
-1.80411e-15
3.27398
-1.84575e-15
3.27398
-1.76248e-15
3.27398
-1.54043e-15
3.27398
-1.41553e-15
3.27398
-1.47105e-15
3.27398
-1.65146e-15
3.27398
-1.91513e-15
3.27398
-2.22045e-15
3.27398
-2.41474e-15
3.27398
-2.52576e-15
3.27398
-2.65066e-15
3.27398
-2.80331e-15
3.27398
-2.77556e-15
3.27398
-2.58127e-15
3.27398
-2.30371e-15
3.27398
-2.06779e-15
3.27398
-1.9984e-15
3.27398
-1.88738e-15
3.27398
-1.76248e-15
3.27398
-1.70697e-15
3.27398
-1.66533e-15
3.27398
-1.60982e-15
3.27398
-1.51268e-15
3.27398
-1.58207e-15
3.27398
-1.84575e-15
3.27398
-2.06779e-15
3.27398
-2.28983e-15
3.27398
-2.45637e-15
3.27398
-2.55351e-15
3.27398
-2.67841e-15
3.27398
-2.76168e-15
3.27398
-2.80331e-15
3.27398
-2.7478e-15
3.27398
-2.59515e-15
3.27398
-2.3731e-15
3.27398
-2.31759e-15
3.27398
-2.34535e-15
3.27398
-2.38698e-15
3.27398
-2.53964e-15
3.27398
-2.63678e-15
3.27398
-2.498e-15
3.27398
-2.08167e-15
3.27398
-1.55431e-15
3.27398
-1.19349e-15
3.27398
-9.15934e-16
3.27398
-8.46545e-16
3.27398
-8.18789e-16
3.27398
-8.88178e-16
3.27398
-1.1241e-15
3.27398
-1.51268e-15
3.27398
-1.83187e-15
3.27398
-1.91513e-15
3.27398
-2.01228e-15
3.27398
-2.20657e-15
3.27398
-2.30371e-15
3.27398
-2.30371e-15
3.27398
-2.44249e-15
3.27398
-2.44249e-15
3.27398
-2.26208e-15
3.27398
-2.01228e-15
3.27398
-1.65146e-15
3.27398
-1.52656e-15
3.27398
-1.63758e-15
3.27398
-1.65146e-15
3.27398
-1.7486e-15
3.27398
-1.79023e-15
3.27398
-1.85962e-15
3.27398
-2.13718e-15
3.27398
-2.51188e-15
3.27398
-2.77556e-15
3.27398
-2.7478e-15
3.27398
-2.6229e-15
3.27398
-2.52576e-15
3.27398
-2.34535e-15
3.27398
-2.04003e-15
3.27398
-1.79023e-15
3.27398
-1.67921e-15
3.27398
-1.66533e-15
3.27398
-1.83187e-15
3.27398
-2.02616e-15
3.27398
-2.20657e-15
3.27398
-2.28983e-15
3.27398
-2.35922e-15
3.27398
-2.23432e-15
3.27398
-2.02616e-15
3.27398
-2.04003e-15
3.27398
-2.04003e-15
3.27398
-1.95677e-15
3.27398
-2.23432e-15
3.27398
-2.67841e-15
3.27398
-2.65066e-15
3.27398
-2.35922e-15
3.27398
-2.16493e-15
3.27398
-1.92901e-15
3.27398
-1.60982e-15
3.27398
-1.4988e-15
3.27398
-1.55431e-15
3.27398
-1.67921e-15
3.27398
-1.90126e-15
3.27398
-2.09555e-15
3.27398
-2.05391e-15
3.27398
-1.95677e-15
3.27398
-1.97065e-15
3.27398
-2.09555e-15
3.27398
-2.23432e-15
3.27398
-2.60902e-15
3.27398
-3.15026e-15
3.27398
-3.71925e-15
3.27398
-3.92741e-15
3.27398
-3.91354e-15
3.27398
-3.67761e-15
3.27398
-3.30291e-15
3.27398
-2.90046e-15
3.27398
-2.51188e-15
3.27398
-2.10942e-15
3.27398
-1.9984e-15
3.27398
-1.8735e-15
3.27398
-1.70697e-15
3.27398
-1.58207e-15
3.27398
-1.51268e-15
3.27398
-1.54043e-15
3.27398
-1.79023e-15
3.27398
-2.26208e-15
3.27398
-2.72005e-15
3.27398
-3.05311e-15
3.27398
-3.2474e-15
3.27398
-3.35842e-15
3.27398
-3.51108e-15
3.27398
-3.52496e-15
3.27398
-3.19189e-15
3.27398
-2.65066e-15
3.27398
-2.17881e-15
3.27398
-2.10942e-15
3.27398
-2.19269e-15
3.27398
-2.2482e-15
3.27398
-2.23432e-15
3.27398
-2.06779e-15
3.27398
-1.8735e-15
3.27398
-1.6237e-15
3.27398
-1.34615e-15
3.27398
-1.40166e-15
3.27398
-1.48492e-15
3.27398
-1.60982e-15
3.27398
-1.79023e-15
3.27398
-1.92901e-15
3.27398
-2.02616e-15
3.27398
-2.06779e-15
3.27398
-2.16493e-15
3.27398
-2.15106e-15
3.27398
-2.17881e-15
3.27398
-2.38698e-15
3.27398
-2.63678e-15
3.27398
-2.58127e-15
3.27398
-2.33147e-15
3.27398
-1.8735e-15
3.27398
-1.20737e-15
3.27398
-3.88578e-16
3.27398
7.91034e-16
3.27398
2.45637e-15
3.27398
4.88498e-15
3.27398
8.90954e-15
3.27398
1.56819e-14
3.27398
2.68674e-14
3.27398
4.54498e-14
3.27398
7.62029e-14
3.27398
1.27537e-13
3.27398
2.12899e-13
3.27398
3.54508e-13
3.27398
5.89195e-13
3.27398
9.78606e-13
3.27398
1.62539e-12
3.27398
2.70017e-12
3.27398
4.48773e-12
3.27398
7.46204e-12
3.27398
1.24134e-11
3.27398
2.06613e-11
3.27398
3.44098e-11
3.27398
5.7344e-11
3.27398
9.56284e-11
3.27398
1.59585e-10
3.27398
2.66514e-10
3.27398
4.45433e-10
3.27398
7.45063e-10
3.27398
1.24729e-09
3.27398
2.08988e-09
3.27398
3.50486e-09
3.27398
5.88345e-09
3.27398
9.88605e-09
3.27398
1.66288e-08
3.27398
2.80005e-08
3.27398
4.72014e-08
3.27398
7.96617e-08
3.27398
1.34607e-07
3.27398
2.27737e-07
3.27398
3.85801e-07
3.27398
6.54458e-07
3.27398
1.11176e-06
3.27398
1.89133e-06
3.27397
3.22241e-06
3.27397
5.49883e-06
3.27396
9.39856e-06
3.27394
1.60909e-05
3.27391
2.75969e-05
3.27387
4.7417e-05
3.27378
8.16312e-05
3.27364
0.000140827
3.2734
0.000243523
3.27298
0.000422228
3.27224
0.000734517
3.27096
0.00128292
3.26871
0.00225389
3.26472
0.00398844
3.25757
0.00714258
3.24461
0.0129607
3.22052
0.0240832
0.0453969
3.17512
3.27398
6.93889e-17
3.27398
1.38778e-16
3.27398
1.11022e-16
3.27398
2.77556e-17
3.27398
4.16334e-17
3.27398
-1.38778e-17
3.27398
-5.55112e-17
3.27398
-1.38778e-16
3.27398
-1.11022e-16
3.27398
-1.80411e-16
3.27398
-2.91434e-16
3.27398
-3.60822e-16
3.27398
-4.57967e-16
3.27398
-5.55112e-16
3.27398
-6.80012e-16
3.27398
-7.35523e-16
3.27398
-7.77156e-16
3.27398
-8.74301e-16
3.27398
-1.1241e-15
3.27398
-1.33227e-15
3.27398
-1.38778e-15
3.27398
-1.4988e-15
3.27398
-1.63758e-15
3.27398
-1.65146e-15
3.27398
-1.59595e-15
3.27398
-1.4988e-15
3.27398
-1.41553e-15
3.27398
-1.26288e-15
3.27398
-1.17961e-15
3.27398
-1.05471e-15
3.27398
-9.57567e-16
3.27398
-8.74301e-16
3.27398
-8.18789e-16
3.27398
-7.49401e-16
3.27398
-6.52256e-16
3.27398
-7.49401e-16
3.27398
-8.32667e-16
3.27398
-8.88178e-16
3.27398
-9.02056e-16
3.27398
-8.60423e-16
3.27398
-7.91034e-16
3.27398
-8.04912e-16
3.27398
-8.46545e-16
3.27398
-8.88178e-16
3.27398
-1.05471e-15
3.27398
-1.249e-15
3.27398
-1.44329e-15
3.27398
-1.55431e-15
3.27398
-1.59595e-15
3.27398
-1.67921e-15
3.27398
-1.67921e-15
3.27398
-1.66533e-15
3.27398
-1.60982e-15
3.27398
-1.59595e-15
3.27398
-1.76248e-15
3.27398
-1.97065e-15
3.27398
-1.97065e-15
3.27398
-1.70697e-15
3.27398
-1.40166e-15
3.27398
-1.22125e-15
3.27398
-1.29063e-15
3.27398
-1.6237e-15
3.27398
-1.80411e-15
3.27398
-1.79023e-15
3.27398
-1.56819e-15
3.27398
-1.29063e-15
3.27398
-1.11022e-15
3.27398
-9.02056e-16
3.27398
-8.74301e-16
3.27398
-1.01308e-15
3.27398
-1.19349e-15
3.27398
-1.30451e-15
3.27398
-1.38778e-15
3.27398
-1.41553e-15
3.27398
-1.42941e-15
3.27398
-1.3739e-15
3.27398
-1.29063e-15
3.27398
-1.15186e-15
3.27398
-1.01308e-15
3.27398
-8.46545e-16
3.27398
-7.91034e-16
3.27398
-1.05471e-15
3.27398
-1.41553e-15
3.27398
-1.63758e-15
3.27398
-1.83187e-15
3.27398
-2.04003e-15
3.27398
-2.41474e-15
3.27398
-2.59515e-15
3.27398
-2.60902e-15
3.27398
-2.55351e-15
3.27398
-2.65066e-15
3.27398
-2.67841e-15
3.27398
-2.72005e-15
3.27398
-2.81719e-15
3.27398
-2.84495e-15
3.27398
-2.78944e-15
3.27398
-2.6229e-15
3.27398
-2.35922e-15
3.27398
-2.20657e-15
3.27398
-2.1233e-15
3.27398
-2.04003e-15
3.27398
-2.01228e-15
3.27398
-2.01228e-15
3.27398
-1.95677e-15
3.27398
-1.90126e-15
3.27398
-1.80411e-15
3.27398
-1.67921e-15
3.27398
-1.73472e-15
3.27398
-1.80411e-15
3.27398
-1.92901e-15
3.27398
-1.9984e-15
3.27398
-2.08167e-15
3.27398
-2.06779e-15
3.27398
-2.16493e-15
3.27398
-2.27596e-15
3.27398
-2.35922e-15
3.27398
-2.35922e-15
3.27398
-2.26208e-15
3.27398
-2.20657e-15
3.27398
-1.9984e-15
3.27398
-1.77636e-15
3.27398
-1.70697e-15
3.27398
-1.73472e-15
3.27398
-1.77636e-15
3.27398
-1.84575e-15
3.27398
-1.91513e-15
3.27398
-1.81799e-15
3.27398
-1.80411e-15
3.27398
-1.79023e-15
3.27398
-1.72085e-15
3.27398
-1.91513e-15
3.27398
-2.01228e-15
3.27398
-1.97065e-15
3.27398
-1.98452e-15
3.27398
-1.98452e-15
3.27398
-1.91513e-15
3.27398
-2.05391e-15
3.27398
-2.30371e-15
3.27398
-2.38698e-15
3.27398
-2.30371e-15
3.27398
-2.13718e-15
3.27398
-2.05391e-15
3.27398
-2.05391e-15
3.27398
-2.06779e-15
3.27398
-2.16493e-15
3.27398
-2.33147e-15
3.27398
-2.52576e-15
3.27398
-2.76168e-15
3.27398
-2.84495e-15
3.27398
-2.78944e-15
3.27398
-2.65066e-15
3.27398
-2.55351e-15
3.27398
-2.52576e-15
3.27398
-2.44249e-15
3.27398
-2.35922e-15
3.27398
-2.498e-15
3.27398
-2.47025e-15
3.27398
-2.33147e-15
3.27398
-2.16493e-15
3.27398
-1.98452e-15
3.27398
-1.84575e-15
3.27398
-1.94289e-15
3.27398
-2.20657e-15
3.27398
-2.33147e-15
3.27398
-2.27596e-15
3.27398
-2.22045e-15
3.27398
-2.19269e-15
3.27398
-2.15106e-15
3.27398
-1.95677e-15
3.27398
-1.79023e-15
3.27398
-1.7486e-15
3.27398
-1.80411e-15
3.27398
-1.85962e-15
3.27398
-1.91513e-15
3.27398
-2.06779e-15
3.27398
-1.95677e-15
3.27398
-1.88738e-15
3.27398
-1.92901e-15
3.27398
-2.02616e-15
3.27398
-2.15106e-15
3.27398
-2.33147e-15
3.27398
-2.42861e-15
3.27398
-2.51188e-15
3.27398
-2.56739e-15
3.27398
-2.59515e-15
3.27398
-2.48412e-15
3.27398
-2.34535e-15
3.27398
-2.30371e-15
3.27398
-2.34535e-15
3.27398
-2.52576e-15
3.27398
-2.7478e-15
3.27398
-2.84495e-15
3.27398
-2.81719e-15
3.27398
-2.72005e-15
3.27398
-2.65066e-15
3.27398
-2.66454e-15
3.27398
-2.65066e-15
3.27398
-2.51188e-15
3.27398
-2.498e-15
3.27398
-2.59515e-15
3.27398
-2.67841e-15
3.27398
-2.60902e-15
3.27398
-2.42861e-15
3.27398
-2.26208e-15
3.27398
-1.97065e-15
3.27398
-1.66533e-15
3.27398
-1.38778e-15
3.27398
-1.34615e-15
3.27398
-1.44329e-15
3.27398
-1.60982e-15
3.27398
-1.8735e-15
3.27398
-2.04003e-15
3.27398
-1.97065e-15
3.27398
-1.65146e-15
3.27398
-1.42941e-15
3.27398
-1.54043e-15
3.27398
-1.65146e-15
3.27398
-1.73472e-15
3.27398
-1.91513e-15
3.27398
-2.1233e-15
3.27398
-2.28983e-15
3.27398
-2.31759e-15
3.27398
-2.26208e-15
3.27398
-2.33147e-15
3.27398
-2.63678e-15
3.27398
-2.92821e-15
3.27398
-2.92821e-15
3.27398
-2.77556e-15
3.27398
-2.60902e-15
3.27398
-2.35922e-15
3.27398
-1.95677e-15
3.27398
-1.60982e-15
3.27398
-1.15186e-15
3.27398
-6.38378e-16
3.27398
-3.05311e-16
3.27398
-2.22045e-16
3.27398
-2.91434e-16
3.27398
-2.35922e-16
3.27398
-2.77556e-17
3.27398
4.71845e-16
3.27398
1.52656e-15
3.27398
3.13638e-15
3.27398
5.63438e-15
3.27398
9.92262e-15
3.27398
1.70142e-14
3.27398
2.88519e-14
3.27398
4.87388e-14
3.27398
8.20038e-14
3.27398
1.37168e-13
3.27398
2.28498e-13
3.27398
3.79946e-13
3.27398
6.30787e-13
3.27398
1.04571e-12
3.27398
1.73182e-12
3.27398
2.86697e-12
3.27398
4.74637e-12
3.27398
7.85949e-12
3.27398
1.30178e-11
3.27398
2.15679e-11
3.27398
3.57454e-11
3.27398
5.92637e-11
3.27398
9.82926e-11
3.27398
1.63089e-10
3.27398
2.7071e-10
3.27398
4.49538e-10
3.27398
7.46815e-10
3.27398
1.24122e-09
3.27398
2.06383e-09
3.27398
3.43317e-09
3.27398
5.71366e-09
3.27398
9.51336e-09
3.27398
1.58474e-08
3.27398
2.6411e-08
3.27398
4.40373e-08
3.27398
7.34623e-08
3.27398
1.22608e-07
3.27398
2.0473e-07
3.27398
3.42022e-07
3.27398
5.71657e-07
3.27398
9.55928e-07
3.27398
1.59926e-06
3.27398
2.6768e-06
3.27398
4.48241e-06
3.27397
7.50934e-06
3.27397
1.25858e-05
3.27397
2.11032e-05
3.27396
3.53997e-05
3.27395
5.94068e-05
3.27393
9.97389e-05
3.2739
0.000167535
3.27386
0.000281574
3.27381
0.00047359
3.27375
0.000797354
3.27369
0.00134448
3.27367
0.00227202
3.2738
0.00385278
3.27438
0.00656468
3.27607
0.0112699
3.28066
0.0194878
0.0341252
3.29193
3.27398
-8.32667e-17
3.27398
-1.66533e-16
3.27398
-1.66533e-16
3.27398
-8.32667e-17
3.27398
2.77556e-17
3.27398
8.32667e-17
3.27398
-8.32667e-17
3.27398
-2.63678e-16
3.27398
-4.02456e-16
3.27398
-4.57967e-16
3.27398
-3.60822e-16
3.27398
-2.91434e-16
3.27398
-1.52656e-16
3.27398
-2.35922e-16
3.27398
-4.16334e-16
3.27398
-5.13478e-16
3.27398
-6.10623e-16
3.27398
-5.82867e-16
3.27398
-4.996e-16
3.27398
-5.55112e-16
3.27398
-7.91034e-16
3.27398
-1.05471e-15
3.27398
-1.17961e-15
3.27398
-1.13798e-15
3.27398
-1.01308e-15
3.27398
-9.29812e-16
3.27398
-8.04912e-16
3.27398
-8.32667e-16
3.27398
-9.15934e-16
3.27398
-1.09635e-15
3.27398
-1.17961e-15
3.27398
-1.17961e-15
3.27398
-1.17961e-15
3.27398
-1.13798e-15
3.27398
-1.05471e-15
3.27398
-8.88178e-16
3.27398
-7.91034e-16
3.27398
-7.07767e-16
3.27398
-6.80012e-16
3.27398
-7.07767e-16
3.27398
-7.77156e-16
3.27398
-8.04912e-16
3.27398
-7.77156e-16
3.27398
-7.07767e-16
3.27398
-8.18789e-16
3.27398
-1.08247e-15
3.27398
-1.09635e-15
3.27398
-9.57567e-16
3.27398
-1.05471e-15
3.27398
-1.19349e-15
3.27398
-1.30451e-15
3.27398
-1.36002e-15
3.27398
-1.54043e-15
3.27398
-1.79023e-15
3.27398
-2.06779e-15
3.27398
-2.2482e-15
3.27398
-2.20657e-15
3.27398
-2.10942e-15
3.27398
-1.92901e-15
3.27398
-1.70697e-15
3.27398
-1.56819e-15
3.27398
-1.40166e-15
3.27398
-1.22125e-15
3.27398
-1.20737e-15
3.27398
-1.38778e-15
3.27398
-1.40166e-15
3.27398
-1.23512e-15
3.27398
-1.04083e-15
3.27398
-9.29812e-16
3.27398
-9.15934e-16
3.27398
-1.05471e-15
3.27398
-1.23512e-15
3.27398
-1.20737e-15
3.27398
-1.09635e-15
3.27398
-1.04083e-15
3.27398
-1.19349e-15
3.27398
-1.26288e-15
3.27398
-1.30451e-15
3.27398
-1.29063e-15
3.27398
-1.31839e-15
3.27398
-1.3739e-15
3.27398
-1.45717e-15
3.27398
-1.58207e-15
3.27398
-1.66533e-15
3.27398
-1.70697e-15
3.27398
-1.90126e-15
3.27398
-2.09555e-15
3.27398
-2.15106e-15
3.27398
-2.09555e-15
3.27398
-2.04003e-15
3.27398
-1.9984e-15
3.27398
-1.90126e-15
3.27398
-1.85962e-15
3.27398
-1.80411e-15
3.27398
-1.81799e-15
3.27398
-1.88738e-15
3.27398
-1.97065e-15
3.27398
-2.04003e-15
3.27398
-2.1233e-15
3.27398
-2.04003e-15
3.27398
-1.88738e-15
3.27398
-1.77636e-15
3.27398
-1.67921e-15
3.27398
-1.59595e-15
3.27398
-1.56819e-15
3.27398
-1.6237e-15
3.27398
-1.73472e-15
3.27398
-1.90126e-15
3.27398
-2.05391e-15
3.27398
-2.15106e-15
3.27398
-2.15106e-15
3.27398
-2.10942e-15
3.27398
-2.15106e-15
3.27398
-2.13718e-15
3.27398
-2.06779e-15
3.27398
-1.91513e-15
3.27398
-1.7486e-15
3.27398
-1.70697e-15
3.27398
-1.77636e-15
3.27398
-1.85962e-15
3.27398
-1.81799e-15
3.27398
-1.88738e-15
3.27398
-1.90126e-15
3.27398
-1.76248e-15
3.27398
-1.63758e-15
3.27398
-1.63758e-15
3.27398
-1.7486e-15
3.27398
-1.91513e-15
3.27398
-2.17881e-15
3.27398
-2.33147e-15
3.27398
-2.33147e-15
3.27398
-2.42861e-15
3.27398
-2.51188e-15
3.27398
-2.7478e-15
3.27398
-3.03924e-15
3.27398
-3.26128e-15
3.27398
-3.20577e-15
3.27398
-3.02536e-15
3.27398
-2.83107e-15
3.27398
-2.67841e-15
3.27398
-2.47025e-15
3.27398
-2.26208e-15
3.27398
-2.13718e-15
3.27398
-2.08167e-15
3.27398
-2.16493e-15
3.27398
-2.30371e-15
3.27398
-2.3731e-15
3.27398
-2.27596e-15
3.27398
-2.22045e-15
3.27398
-2.1233e-15
3.27398
-2.02616e-15
3.27398
-1.91513e-15
3.27398
-1.80411e-15
3.27398
-1.8735e-15
3.27398
-2.08167e-15
3.27398
-2.22045e-15
3.27398
-2.35922e-15
3.27398
-2.40086e-15
3.27398
-2.35922e-15
3.27398
-2.31759e-15
3.27398
-2.26208e-15
3.27398
-2.2482e-15
3.27398
-2.27596e-15
3.27398
-2.3731e-15
3.27398
-2.44249e-15
3.27398
-2.31759e-15
3.27398
-2.15106e-15
3.27398
-2.2482e-15
3.27398
-2.42861e-15
3.27398
-2.53964e-15
3.27398
-2.59515e-15
3.27398
-2.498e-15
3.27398
-2.42861e-15
3.27398
-2.44249e-15
3.27398
-2.51188e-15
3.27398
-2.70617e-15
3.27398
-2.92821e-15
3.27398
-3.1225e-15
3.27398
-3.38618e-15
3.27398
-3.66374e-15
3.27398
-3.81639e-15
3.27398
-3.8719e-15
3.27398
-3.77476e-15
3.27398
-3.63598e-15
3.27398
-3.59435e-15
3.27398
-3.46945e-15
3.27398
-3.06699e-15
3.27398
-2.48412e-15
3.27398
-2.02616e-15
3.27398
-1.69309e-15
3.27398
-1.51268e-15
3.27398
-1.3739e-15
3.27398
-1.31839e-15
3.27398
-1.29063e-15
3.27398
-1.23512e-15
3.27398
-1.29063e-15
3.27398
-1.42941e-15
3.27398
-1.6237e-15
3.27398
-1.85962e-15
3.27398
-1.9984e-15
3.27398
-2.16493e-15
3.27398
-2.38698e-15
3.27398
-2.51188e-15
3.27398
-2.6229e-15
3.27398
-2.65066e-15
3.27398
-2.51188e-15
3.27398
-2.22045e-15
3.27398
-1.80411e-15
3.27398
-1.56819e-15
3.27398
-1.4988e-15
3.27398
-1.54043e-15
3.27398
-1.59595e-15
3.27398
-1.58207e-15
3.27398
-1.63758e-15
3.27398
-1.83187e-15
3.27398
-2.02616e-15
3.27398
-2.09555e-15
3.27398
-2.04003e-15
3.27398
-1.94289e-15
3.27398
-1.94289e-15
3.27398
-1.80411e-15
3.27398
-1.63758e-15
3.27398
-1.56819e-15
3.27398
-1.6237e-15
3.27398
-1.72085e-15
3.27398
-1.83187e-15
3.27398
-1.92901e-15
3.27398
-1.90126e-15
3.27398
-1.72085e-15
3.27398
-1.42941e-15
3.27398
-1.27676e-15
3.27398
-1.08247e-15
3.27398
-8.18789e-16
3.27398
-6.245e-16
3.27398
-5.13478e-16
3.27398
-3.60822e-16
3.27398
-3.46945e-16
3.27398
-2.91434e-16
3.27398
-1.66533e-16
3.27398
2.91434e-16
3.27398
1.42941e-15
3.27398
3.58047e-15
3.27398
7.10543e-15
3.27398
1.27953e-14
3.27398
2.22461e-14
3.27398
3.78308e-14
3.27398
6.34354e-14
3.27398
1.05763e-13
3.27398
1.75623e-13
3.27398
2.90726e-13
3.27398
4.8031e-13
3.27398
7.92491e-13
3.27398
1.30676e-12
3.27398
2.15389e-12
3.27398
3.55019e-12
3.27398
5.85181e-12
3.27398
9.64576e-12
3.27398
1.59008e-11
3.27398
2.62158e-11
3.27398
4.32288e-11
3.27398
7.12937e-11
3.27398
1.17597e-10
3.27398
1.94005e-10
3.27398
3.20111e-10
3.27398
5.28271e-10
3.27398
8.71927e-10
3.27398
1.43936e-09
3.27398
2.3764e-09
3.27398
3.924e-09
3.27398
6.48029e-09
3.27398
1.07031e-08
3.27398
1.76796e-08
3.27398
2.92061e-08
3.27398
4.82513e-08
3.27398
7.97207e-08
3.27398
1.3172e-07
3.27398
2.1764e-07
3.27398
3.59604e-07
3.27398
5.94152e-07
3.27398
9.81621e-07
3.27398
1.62162e-06
3.27398
2.67854e-06
3.27398
4.42358e-06
3.27398
7.3039e-06
3.27398
1.20565e-05
3.27398
1.98954e-05
3.27398
3.28188e-05
3.27399
5.4114e-05
3.274
8.9185e-05
3.27402
0.00014691
3.27406
0.000241869
3.27414
0.000398004
3.27428
0.000654637
3.27455
0.00107649
3.27505
0.00177026
3.27599
0.00291326
3.27775
0.00480031
3.28108
0.00793435
3.28742
0.0131474
0.0219613
3.29958
3.27398
1.38778e-17
3.27398
9.71445e-17
3.27398
2.08167e-16
3.27398
1.94289e-16
3.27398
1.80411e-16
3.27398
1.38778e-17
3.27398
-8.32667e-17
3.27398
-1.249e-16
3.27398
-1.80411e-16
3.27398
-1.66533e-16
3.27398
-1.66533e-16
3.27398
-2.35922e-16
3.27398
-2.35922e-16
3.27398
-1.52656e-16
3.27398
-9.71445e-17
3.27398
1.38778e-17
3.27398
2.77556e-17
3.27398
5.55112e-17
3.27398
2.77556e-17
3.27398
5.55112e-17
3.27398
1.11022e-16
3.27398
3.19189e-16
3.27398
4.996e-16
3.27398
5.27356e-16
3.27398
4.71845e-16
3.27398
1.52656e-16
3.27398
-2.08167e-16
3.27398
-3.60822e-16
3.27398
-4.02456e-16
3.27398
-6.38378e-16
3.27398
-7.35523e-16
3.27398
-6.52256e-16
3.27398
-5.41234e-16
3.27398
-5.27356e-16
3.27398
-3.46945e-16
3.27398
-4.16334e-17
3.27398
2.35922e-16
3.27398
4.02456e-16
3.27398
4.85723e-16
3.27398
3.33067e-16
3.27398
2.77556e-17
3.27398
-1.94289e-16
3.27398
-2.91434e-16
3.27398
-4.71845e-16
3.27398
-7.35523e-16
3.27398
-9.57567e-16
3.27398
-1.09635e-15
3.27398
-1.31839e-15
3.27398
-1.47105e-15
3.27398
-1.59595e-15
3.27398
-1.79023e-15
3.27398
-1.94289e-15
3.27398
-1.90126e-15
3.27398
-1.84575e-15
3.27398
-1.84575e-15
3.27398
-1.67921e-15
3.27398
-1.63758e-15
3.27398
-1.73472e-15
3.27398
-1.88738e-15
3.27398
-1.98452e-15
3.27398
-1.8735e-15
3.27398
-1.65146e-15
3.27398
-1.51268e-15
3.27398
-1.54043e-15
3.27398
-1.67921e-15
3.27398
-1.85962e-15
3.27398
-1.95677e-15
3.27398
-1.94289e-15
3.27398
-1.88738e-15
3.27398
-1.73472e-15
3.27398
-1.4988e-15
3.27398
-1.23512e-15
3.27398
-1.02696e-15
3.27398
-1.04083e-15
3.27398
-1.04083e-15
3.27398
-9.85323e-16
3.27398
-1.09635e-15
3.27398
-1.40166e-15
3.27398
-1.65146e-15
3.27398
-1.85962e-15
3.27398
-1.97065e-15
3.27398
-1.91513e-15
3.27398
-1.79023e-15
3.27398
-1.79023e-15
3.27398
-1.83187e-15
3.27398
-1.81799e-15
3.27398
-1.67921e-15
3.27398
-1.44329e-15
3.27398
-1.30451e-15
3.27398
-1.27676e-15
3.27398
-1.26288e-15
3.27398
-1.33227e-15
3.27398
-1.4988e-15
3.27398
-1.69309e-15
3.27398
-1.92901e-15
3.27398
-2.1233e-15
3.27398
-2.28983e-15
3.27398
-2.51188e-15
3.27398
-2.52576e-15
3.27398
-2.48412e-15
3.27398
-2.45637e-15
3.27398
-2.3731e-15
3.27398
-2.2482e-15
3.27398
-2.15106e-15
3.27398
-1.98452e-15
3.27398
-1.83187e-15
3.27398
-1.88738e-15
3.27398
-2.02616e-15
3.27398
-2.19269e-15
3.27398
-2.15106e-15
3.27398
-2.08167e-15
3.27398
-1.98452e-15
3.27398
-2.08167e-15
3.27398
-2.20657e-15
3.27398
-2.10942e-15
3.27398
-1.85962e-15
3.27398
-1.69309e-15
3.27398
-1.60982e-15
3.27398
-1.59595e-15
3.27398
-1.7486e-15
3.27398
-1.9984e-15
3.27398
-2.08167e-15
3.27398
-1.88738e-15
3.27398
-1.6237e-15
3.27398
-1.45717e-15
3.27398
-1.33227e-15
3.27398
-1.38778e-15
3.27398
-1.41553e-15
3.27398
-1.48492e-15
3.27398
-1.54043e-15
3.27398
-1.63758e-15
3.27398
-1.77636e-15
3.27398
-2.06779e-15
3.27398
-2.3731e-15
3.27398
-2.67841e-15
3.27398
-2.8727e-15
3.27398
-2.80331e-15
3.27398
-2.55351e-15
3.27398
-2.30371e-15
3.27398
-2.26208e-15
3.27398
-2.33147e-15
3.27398
-2.34535e-15
3.27398
-2.45637e-15
3.27398
-2.58127e-15
3.27398
-2.66454e-15
3.27398
-2.6229e-15
3.27398
-2.58127e-15
3.27398
-2.56739e-15
3.27398
-2.48412e-15
3.27398
-2.44249e-15
3.27398
-2.34535e-15
3.27398
-2.23432e-15
3.27398
-2.20657e-15
3.27398
-2.16493e-15
3.27398
-2.09555e-15
3.27398
-1.95677e-15
3.27398
-1.76248e-15
3.27398
-1.65146e-15
3.27398
-1.6237e-15
3.27398
-1.6237e-15
3.27398
-1.66533e-15
3.27398
-1.77636e-15
3.27398
-1.84575e-15
3.27398
-1.80411e-15
3.27398
-1.8735e-15
3.27398
-1.8735e-15
3.27398
-1.84575e-15
3.27398
-1.92901e-15
3.27398
-2.19269e-15
3.27398
-2.34535e-15
3.27398
-2.34535e-15
3.27398
-2.38698e-15
3.27398
-2.59515e-15
3.27398
-2.84495e-15
3.27398
-3.05311e-15
3.27398
-3.19189e-15
3.27398
-3.44169e-15
3.27398
-3.67761e-15
3.27398
-3.80251e-15
3.27398
-3.8719e-15
3.27398
-4.06619e-15
3.27398
-4.32987e-15
3.27398
-4.46865e-15
3.27398
-4.42701e-15
3.27398
-4.27436e-15
3.27398
-4.13558e-15
3.27398
-3.95517e-15
3.27398
-3.69149e-15
3.27398
-3.23352e-15
3.27398
-2.66454e-15
3.27398
-2.22045e-15
3.27398
-1.8735e-15
3.27398
-1.41553e-15
3.27398
-1.05471e-15
3.27398
-1.01308e-15
3.27398
-1.16573e-15
3.27398
-1.38778e-15
3.27398
-1.81799e-15
3.27398
-2.22045e-15
3.27398
-2.45637e-15
3.27398
-2.498e-15
3.27398
-2.59515e-15
3.27398
-2.69229e-15
3.27398
-2.70617e-15
3.27398
-2.59515e-15
3.27398
-2.45637e-15
3.27398
-2.30371e-15
3.27398
-2.22045e-15
3.27398
-2.22045e-15
3.27398
-2.02616e-15
3.27398
-1.63758e-15
3.27398
-1.3739e-15
3.27398
-1.36002e-15
3.27398
-1.52656e-15
3.27398
-1.80411e-15
3.27398
-2.06779e-15
3.27398
-2.20657e-15
3.27398
-2.06779e-15
3.27398
-1.84575e-15
3.27398
-1.79023e-15
3.27398
-1.65146e-15
3.27398
-1.3739e-15
3.27398
-1.11022e-15
3.27398
-8.60423e-16
3.27398
-7.49401e-16
3.27398
-7.77156e-16
3.27398
-8.88178e-16
3.27398
-9.85323e-16
3.27398
-1.05471e-15
3.27398
-1.16573e-15
3.27398
-1.15186e-15
3.27398
-1.17961e-15
3.27398
-1.29063e-15
3.27398
-1.45717e-15
3.27398
-1.4988e-15
3.27398
-1.44329e-15
3.27398
-1.27676e-15
3.27398
-9.71445e-16
3.27398
-4.71845e-16
3.27398
3.46945e-16
3.27398
1.4988e-15
3.27398
3.58047e-15
3.27398
7.32747e-15
3.27398
1.35586e-14
3.27398
2.39114e-14
3.27398
4.08285e-14
3.27398
6.84036e-14
3.27398
1.13576e-13
3.27398
1.87753e-13
3.27398
3.09586e-13
3.27398
5.0919e-13
3.27398
8.36373e-13
3.27398
1.37301e-12
3.27398
2.25327e-12
3.27398
3.69685e-12
3.27398
6.06437e-12
3.27398
9.94689e-12
3.27398
1.63143e-11
3.27398
2.6757e-11
3.27398
4.38828e-11
3.27398
7.19681e-11
3.27398
1.18026e-10
3.27398
1.93553e-10
3.27398
3.17398e-10
3.27398
5.20461e-10
3.27398
8.53386e-10
3.27398
1.39917e-09
3.27398
2.2938e-09
3.27398
3.76006e-09
3.27398
6.16285e-09
3.27398
1.00996e-08
3.27398
1.65486e-08
3.27398
2.71103e-08
3.27398
4.44036e-08
3.27398
7.27109e-08
3.27398
1.19033e-07
3.27398
1.94808e-07
3.27398
3.18716e-07
3.27398
5.21247e-07
3.27398
8.52136e-07
3.27398
1.39246e-06
3.27398
2.27428e-06
3.27398
3.71254e-06
3.27398
6.05681e-06
3.27398
9.875e-06
3.27399
1.60889e-05
3.274
2.6193e-05
3.27401
4.26077e-05
3.27403
6.92484e-05
3.27406
0.000112442
3.27412
0.000182398
3.27422
0.000295587
3.2744
0.000478547
3.2747
0.000774077
3.27522
0.00125116
3.27611
0.00202165
3.27764
0.00326628
3.28029
0.00528396
3.28489
0.00855304
0.0139228
3.29292
3.27398
4.16334e-17
3.27398
6.93889e-17
3.27398
6.93889e-17
3.27398
9.71445e-17
3.27398
2.77556e-17
3.27398
8.32667e-17
3.27398
2.35922e-16
3.27398
3.747e-16
3.27398
4.44089e-16
3.27398
4.30211e-16
3.27398
3.33067e-16
3.27398
2.498e-16
3.27398
2.77556e-16
3.27398
4.57967e-16
3.27398
7.07767e-16
3.27398
6.52256e-16
3.27398
5.27356e-16
3.27398
3.60822e-16
3.27398
2.35922e-16
3.27398
3.33067e-16
3.27398
5.96745e-16
3.27398
7.63278e-16
3.27398
7.49401e-16
3.27398
5.68989e-16
3.27398
2.91434e-16
3.27398
1.38778e-17
3.27398
-2.08167e-16
3.27398
-3.46945e-16
3.27398
-3.19189e-16
3.27398
-1.80411e-16
3.27398
-2.22045e-16
3.27398
-3.05311e-16
3.27398
-3.33067e-16
3.27398
-3.19189e-16
3.27398
-3.33067e-16
3.27398
-3.46945e-16
3.27398
-3.05311e-16
3.27398
-2.77556e-16
3.27398
-3.747e-16
3.27398
-6.10623e-16
3.27398
-9.02056e-16
3.27398
-1.08247e-15
3.27398
-1.29063e-15
3.27398
-1.42941e-15
3.27398
-1.47105e-15
3.27398
-1.38778e-15
3.27398
-1.3739e-15
3.27398
-1.38778e-15
3.27398
-1.41553e-15
3.27398
-1.38778e-15
3.27398
-1.34615e-15
3.27398
-1.40166e-15
3.27398
-1.41553e-15
3.27398
-1.41553e-15
3.27398
-1.3739e-15
3.27398
-1.36002e-15
3.27398
-1.45717e-15
3.27398
-1.52656e-15
3.27398
-1.58207e-15
3.27398
-1.55431e-15
3.27398
-1.4988e-15
3.27398
-1.4988e-15
3.27398
-1.54043e-15
3.27398
-1.69309e-15
3.27398
-1.91513e-15
3.27398
-2.08167e-15
3.27398
-2.22045e-15
3.27398
-2.2482e-15
3.27398
-2.1233e-15
3.27398
-1.81799e-15
3.27398
-1.4988e-15
3.27398
-1.33227e-15
3.27398
-1.33227e-15
3.27398
-1.31839e-15
3.27398
-1.19349e-15
3.27398
-9.85323e-16
3.27398
-7.91034e-16
3.27398
-6.52256e-16
3.27398
-6.38378e-16
3.27398
-7.77156e-16
3.27398
-9.15934e-16
3.27398
-9.4369e-16
3.27398
-9.4369e-16
3.27398
-1.09635e-15
3.27398
-1.13798e-15
3.27398
-1.09635e-15
3.27398
-1.08247e-15
3.27398
-1.16573e-15
3.27398
-1.15186e-15
3.27398
-1.16573e-15
3.27398
-1.22125e-15
3.27398
-1.34615e-15
3.27398
-1.3739e-15
3.27398
-1.51268e-15
3.27398
-1.59595e-15
3.27398
-1.58207e-15
3.27398
-1.51268e-15
3.27398
-1.45717e-15
3.27398
-1.55431e-15
3.27398
-1.79023e-15
3.27398
-2.01228e-15
3.27398
-2.2482e-15
3.27398
-2.3731e-15
3.27398
-2.41474e-15
3.27398
-2.38698e-15
3.27398
-2.30371e-15
3.27398
-2.09555e-15
3.27398
-1.8735e-15
3.27398
-1.72085e-15
3.27398
-1.63758e-15
3.27398
-1.60982e-15
3.27398
-1.7486e-15
3.27398
-1.84575e-15
3.27398
-1.81799e-15
3.27398
-1.7486e-15
3.27398
-1.72085e-15
3.27398
-1.76248e-15
3.27398
-1.94289e-15
3.27398
-2.08167e-15
3.27398
-2.02616e-15
3.27398
-1.92901e-15
3.27398
-1.84575e-15
3.27398
-1.77636e-15
3.27398
-1.65146e-15
3.27398
-1.59595e-15
3.27398
-1.72085e-15
3.27398
-1.94289e-15
3.27398
-2.02616e-15
3.27398
-2.06779e-15
3.27398
-2.19269e-15
3.27398
-2.2482e-15
3.27398
-2.33147e-15
3.27398
-2.41474e-15
3.27398
-2.41474e-15
3.27398
-2.26208e-15
3.27398
-2.15106e-15
3.27398
-2.13718e-15
3.27398
-2.1233e-15
3.27398
-2.08167e-15
3.27398
-1.84575e-15
3.27398
-1.76248e-15
3.27398
-1.8735e-15
3.27398
-1.95677e-15
3.27398
-1.97065e-15
3.27398
-1.91513e-15
3.27398
-2.05391e-15
3.27398
-2.45637e-15
3.27398
-2.69229e-15
3.27398
-2.80331e-15
3.27398
-2.70617e-15
3.27398
-2.44249e-15
3.27398
-2.06779e-15
3.27398
-1.69309e-15
3.27398
-1.33227e-15
3.27398
-1.22125e-15
3.27398
-1.249e-15
3.27398
-1.23512e-15
3.27398
-1.22125e-15
3.27398
-1.27676e-15
3.27398
-1.47105e-15
3.27398
-1.65146e-15
3.27398
-1.76248e-15
3.27398
-1.81799e-15
3.27398
-1.94289e-15
3.27398
-2.16493e-15
3.27398
-2.51188e-15
3.27398
-2.88658e-15
3.27398
-3.16414e-15
3.27398
-3.28904e-15
3.27398
-3.27516e-15
3.27398
-3.23352e-15
3.27398
-3.3723e-15
3.27398
-3.48332e-15
3.27398
-3.48332e-15
3.27398
-3.48332e-15
3.27398
-3.58047e-15
3.27398
-3.56659e-15
3.27398
-3.38618e-15
3.27398
-3.20577e-15
3.27398
-2.9976e-15
3.27398
-2.81719e-15
3.27398
-2.83107e-15
3.27398
-3.03924e-15
3.27398
-3.17801e-15
3.27398
-3.19189e-15
3.27398
-3.10862e-15
3.27398
-2.9976e-15
3.27398
-2.83107e-15
3.27398
-2.69229e-15
3.27398
-2.498e-15
3.27398
-2.1233e-15
3.27398
-1.6237e-15
3.27398
-1.42941e-15
3.27398
-1.51268e-15
3.27398
-1.65146e-15
3.27398
-1.84575e-15
3.27398
-2.13718e-15
3.27398
-2.45637e-15
3.27398
-2.8727e-15
3.27398
-3.27516e-15
3.27398
-3.59435e-15
3.27398
-3.67761e-15
3.27398
-3.52496e-15
3.27398
-3.44169e-15
3.27398
-3.28904e-15
3.27398
-2.95597e-15
3.27398
-2.51188e-15
3.27398
-2.19269e-15