/*--------------------------------*- C++ -*----------------------------------*\
| =========                 |                                                 |
| \\      /  F ield         | OpenFOAM: The Open Source CFD Toolbox           |
|  \\    /   O peration     | Version:  2412                                  |
|   \\  /    A nd           | Website:  www.openfoam.com                      |
|    \\/     M anipulation  |                                                 |
\*---------------------------------------------------------------------------*/
FoamFile
{
    version     2.0;
    format      ascii;
    arch        "LSB;label=32;scalar=64";
    class       volVectorField;
    location    "0.0035";
    object      U;
}
// * * * * * * * * * * * * * * * * * * * * * * * * * * * * * * * * * * * * * //

dimensions      [0 1 -1 0 0 0 0];

internalField   nonuniform List<vector> 
180000
(
(664 2.38844e-14 0)
(664 2.02208e-14 0)
(664 8.00724e-16 0)
(664 -2.26645e-14 0)
(664 -5.36751e-14 0)
(664 -1.5509e-13 0)
(664 -1.66993e-13 0)
(664 -1.35352e-13 0)
(664 -1.12444e-13 0)
(664 -1.53034e-13 0)
(664 -1.68864e-13 0)
(664 -1.63871e-13 0)
(664 -1.8249e-13 0)
(664 -2.53052e-13 0)
(664 -2.72461e-13 0)
(664 -2.0863e-13 0)
(664 -2.41488e-13 0)
(664 -3.8735e-13 0)
(664 -5.90331e-13 0)
(664 -6.89665e-13 0)
(664 -6.78231e-13 0)
(664 -6.75064e-13 0)
(664 -6.70943e-13 0)
(664 -6.19865e-13 0)
(664 -5.59485e-13 0)
(664 -5.48199e-13 0)
(664 -5.99639e-13 0)
(664 -6.35945e-13 0)
(664 -7.02111e-13 0)
(664 -7.6005e-13 0)
(664 -7.67552e-13 0)
(664 -7.29476e-13 0)
(664 -7.32112e-13 0)
(664 -8.15472e-13 0)
(664 -8.92123e-13 0)
(664 -8.63456e-13 0)
(664 -7.95873e-13 0)
(664 -7.48646e-13 0)
(664 -7.84178e-13 0)
(664 -8.48763e-13 0)
(664 -9.2026e-13 0)
(664 -9.08474e-13 0)
(664 -8.0912e-13 0)
(664 -7.56242e-13 0)
(664 -8.47154e-13 0)
(664 -9.52811e-13 0)
(664 -9.39232e-13 0)
(664 -8.82078e-13 0)
(664 -9.04686e-13 0)
(664 -9.94696e-13 0)
(664 -1.03472e-12 0)
(664 -9.60496e-13 0)
(664 -8.32179e-13 0)
(664 -7.42967e-13 0)
(664 -6.77174e-13 0)
(664 -6.07645e-13 0)
(664 -5.88764e-13 0)
(664 -6.30752e-13 0)
(664 -6.42961e-13 0)
(664 -6.28001e-13 0)
(664 -6.78095e-13 0)
(664 -7.97328e-13 0)
(664 -7.98533e-13 0)
(664 -7.17565e-13 0)
(664 -6.3158e-13 0)
(664 -6.36396e-13 0)
(664 -7.55475e-13 0)
(664 -8.66486e-13 0)
(664 -9.33241e-13 0)
(664 -9.74318e-13 0)
(664 -9.75179e-13 0)
(664 -9.3634e-13 0)
(664 -9.09948e-13 0)
(664 -9.01268e-13 0)
(664 -8.27929e-13 0)
(664 -7.66194e-13 0)
(664 -7.77094e-13 0)
(664 -8.46994e-13 0)
(664 -8.81232e-13 0)
(664 -8.81734e-13 0)
(664 -8.568e-13 0)
(664 -7.95013e-13 0)
(664 -7.14446e-13 0)
(664 -6.93486e-13 0)
(664 -7.25787e-13 0)
(664 -7.40706e-13 0)
(664 -6.52639e-13 0)
(664 -5.16723e-13 0)
(664 -4.25882e-13 0)
(664 -4.47114e-13 0)
(664 -5.48912e-13 0)
(664 -6.90325e-13 0)
(664 -8.37177e-13 0)
(664 -9.27772e-13 0)
(664 -9.67445e-13 0)
(664 -1.04143e-12 0)
(664 -1.10022e-12 0)
(664 -1.07174e-12 0)
(664 -9.72863e-13 0)
(664 -8.49287e-13 0)
(664 -7.83428e-13 0)
(664 -7.54099e-13 0)
(664 -6.64538e-13 0)
(664 -5.96746e-13 0)
(664 -5.57759e-13 0)
(664 -5.28308e-13 0)
(664 -5.02534e-13 0)
(664 -5.68461e-13 0)
(664 -7.0856e-13 0)
(664 -8.95421e-13 0)
(664 -1.0144e-12 0)
(664 -1.10739e-12 0)
(664 -1.18516e-12 0)
(664 -1.24443e-12 0)
(664 -1.29702e-12 0)
(664 -1.33728e-12 0)
(664 -1.35212e-12 0)
(664 -1.30939e-12 0)
(664 -1.18994e-12 0)
(664 -1.10087e-12 0)
(664 -1.11943e-12 0)
(664 -1.2592e-12 0)
(664 -1.39942e-12 0)
(664 -1.48593e-12 0)
(664 -1.5335e-12 0)
(664 -1.42347e-12 0)
(664 -1.14223e-12 0)
(664 -8.78998e-13 0)
(664 -6.76135e-13 0)
(664 -5.45049e-13 0)
(664 -4.90018e-13 0)
(664 -4.62565e-13 0)
(664 -5.09411e-13 0)
(664 -6.57012e-13 0)
(664 -8.73869e-13 0)
(664 -1.03974e-12 0)
(664 -1.14054e-12 0)
(664 -1.1865e-12 0)
(664 -1.2452e-12 0)
(664 -1.28845e-12 0)
(664 -1.35328e-12 0)
(664 -1.4526e-12 0)
(664 -1.43358e-12 0)
(664 -1.27683e-12 0)
(664 -1.0601e-12 0)
(664 -8.66015e-13 0)
(664 -7.67525e-13 0)
(664 -6.9433e-13 0)
(664 -5.93851e-13 0)
(664 -5.61826e-13 0)
(664 -5.91675e-13 0)
(664 -7.13881e-13 0)
(664 -9.40459e-13 0)
(664 -1.1768e-12 0)
(664 -1.2983e-12 0)
(664 -1.2552e-12 0)
(664 -1.19464e-12 0)
(664 -1.16939e-12 0)
(664 -1.09702e-12 0)
(664 -9.46706e-13 0)
(664 -8.33004e-13 0)
(664 -8.09354e-13 0)
(664 -8.0576e-13 0)
(664 -8.8682e-13 0)
(664 -1.00316e-12 0)
(664 -1.0849e-12 0)
(664 -1.13596e-12 0)
(664 -1.13879e-12 0)
(664 -1.04082e-12 0)
(664 -9.73378e-13 0)
(664 -9.8391e-13 0)
(664 -1.00394e-12 0)
(664 -1.02554e-12 0)
(664 -1.18488e-12 0)
(664 -1.34816e-12 0)
(664 -1.31103e-12 0)
(664 -1.19303e-12 0)
(664 -1.06264e-12 0)
(664 -8.88642e-13 0)
(664 -6.65322e-13 0)
(664 -5.6351e-13 0)
(664 -5.46356e-13 0)
(664 -5.6806e-13 0)
(664 -6.12402e-13 0)
(664 -6.4345e-13 0)
(664 -5.74482e-13 0)
(664 -4.98734e-13 0)
(664 -4.75355e-13 0)
(664 -4.79154e-13 0)
(664 -5.12742e-13 0)
(664 -6.71285e-13 0)
(664 -9.74739e-13 0)
(664 -1.27472e-12 0)
(664 -1.47398e-12 0)
(664 -1.51947e-12 0)
(664 -1.38136e-12 0)
(664 -1.15875e-12 0)
(664 -9.75681e-13 0)
(664 -7.96717e-13 0)
(664 -6.56889e-13 0)
(664 -6.13152e-13 0)
(664 -5.41934e-13 0)
(664 -5.05588e-13 0)
(664 -5.3414e-13 0)
(664 -6.14096e-13 0)
(664 -8.03113e-13 0)
(664 -1.12321e-12 0)
(664 -1.44179e-12 0)
(664 -1.67037e-12 0)
(664 -1.83723e-12 0)
(664 -1.8709e-12 0)
(664 -1.87935e-12 0)
(664 -1.96088e-12 0)
(664 -1.99566e-12 0)
(664 -1.91018e-12 0)
(664 -1.72423e-12 0)
(664 -1.50474e-12 0)
(664 -1.44552e-12 0)
(664 -1.43951e-12 0)
(664 -1.37735e-12 0)
(664 -1.32396e-12 0)
(664 -1.17652e-12 0)
(664 -9.77036e-13 0)
(664 -7.75199e-13 0)
(664 -6.16466e-13 0)
(664 -5.68213e-13 0)
(664 -5.61103e-13 0)
(664 -6.6336e-13 0)
(664 -7.89095e-13 0)
(664 -8.8987e-13 0)
(664 -9.96216e-13 0)
(664 -1.121e-12 0)
(664 -1.28325e-12 0)
(664 -1.45985e-12 0)
(664 -1.68774e-12 0)
(664 -1.97899e-12 0)
(664 -2.12463e-12 0)
(664 -2.03634e-12 0)
(664 -1.8341e-12 0)
(664 -1.5438e-12 0)
(664 -1.18872e-12 0)
(664 -7.71495e-13 0)
(664 -2.15823e-13 0)
(664 6.0455e-13 0)
(664 1.78277e-12 0)
(664 3.68291e-12 0)
(664 6.7919e-12 0)
(664 1.17864e-11 0)
(664 1.99677e-11 0)
(664 3.35216e-11 0)
(664 5.6137e-11 0)
(664 9.37083e-11 0)
(664 1.55982e-10 0)
(664 2.59346e-10 0)
(664 4.31167e-10 0)
(664 7.17081e-10 0)
(664 1.19308e-09 0)
(664 1.98608e-09 0)
(664 3.30796e-09 0)
(664 5.51288e-09 0)
(664 9.19345e-09 0)
(664 1.53423e-08 0)
(664 2.56233e-08 0)
(664 4.28278e-08 0)
(664 7.16437e-08 0)
(664 1.19952e-07 0)
(664 2.01017e-07 0)
(664 3.37188e-07 0)
(664 5.66164e-07 0)
(664 9.51618e-07 0)
(664 1.60123e-06 0)
(664 2.69734e-06 0)
(664 4.54916e-06 0)
(664 7.68177e-06 0)
(664 1.29882e-05 0)
(663.999 2.19895e-05 0)
(663.999 3.7281e-05 0)
(663.999 6.32976e-05 0)
(663.998 0.000107631 0)
(663.996 0.000183301 0)
(663.994 0.000312674 0)
(663.99 0.000534247 0)
(663.983 0.000914406 0)
(663.972 0.00156785 0)
(663.954 0.00269317 0)
(663.924 0.00463483 0)
(663.875 0.00799165 0)
(663.794 0.0138067 0)
(663.66 0.0239008 0)
(663.438 0.0414588 0)
(663.072 0.0720657 0)
(662.466 0.125529 0)
(661.462 0.219141 0)
(659.797 0.383369 0)
(657.035 0.672342 0)
(652.449 1.18146 0)
(644.854 2.08264 0)
(632.298 3.67417 0)
(611.874 6.51005 0)
(579.818 11.4629 0)
(664 2.34759e-14 0)
(664 6.28894e-14 0)
(664 9.07257e-14 0)
(664 8.74153e-14 0)
(664 6.29141e-15 0)
(664 -8.50762e-14 0)
(664 -1.44966e-13 0)
(664 -1.21316e-13 0)
(664 -6.92114e-14 0)
(664 -5.63324e-14 0)
(664 -1.00366e-13 0)
(664 -1.5789e-13 0)
(664 -2.57809e-13 0)
(664 -3.8181e-13 0)
(664 -4.63048e-13 0)
(664 -4.60172e-13 0)
(664 -4.65239e-13 0)
(664 -5.22465e-13 0)
(664 -6.72096e-13 0)
(664 -8.71573e-13 0)
(664 -9.70829e-13 0)
(664 -1.00604e-12 0)
(664 -1.02002e-12 0)
(664 -1.01481e-12 0)
(664 -9.58544e-13 0)
(664 -9.38088e-13 0)
(664 -9.23806e-13 0)
(664 -8.84412e-13 0)
(664 -7.989e-13 0)
(664 -6.84766e-13 0)
(664 -5.23503e-13 0)
(664 -3.98244e-13 0)
(664 -3.33102e-13 0)
(664 -3.29654e-13 0)
(664 -2.94495e-13 0)
(664 -1.98778e-13 0)
(664 -1.37538e-13 0)
(664 -1.23983e-13 0)
(664 -1.25405e-13 0)
(664 -1.70387e-13 0)
(664 -2.38782e-13 0)
(664 -2.13871e-13 0)
(664 -1.75485e-13 0)
(664 -2.12529e-13 0)
(664 -2.79341e-13 0)
(664 -4.08322e-13 0)
(664 -5.51114e-13 0)
(664 -6.56006e-13 0)
(664 -7.7229e-13 0)
(664 -8.64967e-13 0)
(664 -9.60669e-13 0)
(664 -9.58117e-13 0)
(664 -8.87501e-13 0)
(664 -8.26612e-13 0)
(664 -7.35425e-13 0)
(664 -6.97529e-13 0)
(664 -7.07644e-13 0)
(664 -7.2908e-13 0)
(664 -6.64725e-13 0)
(664 -6.46031e-13 0)
(664 -7.25703e-13 0)
(664 -9.08294e-13 0)
(664 -1.15426e-12 0)
(664 -1.23791e-12 0)
(664 -1.11686e-12 0)
(664 -9.00304e-13 0)
(664 -7.50602e-13 0)
(664 -6.87758e-13 0)
(664 -6.44257e-13 0)
(664 -6.9663e-13 0)
(664 -7.92705e-13 0)
(664 -8.31143e-13 0)
(664 -8.86759e-13 0)
(664 -9.19165e-13 0)
(664 -9.52205e-13 0)
(664 -9.83093e-13 0)
(664 -9.82776e-13 0)
(664 -9.91702e-13 0)
(664 -9.34846e-13 0)
(664 -8.98916e-13 0)
(664 -8.81086e-13 0)
(664 -8.79128e-13 0)
(664 -9.26236e-13 0)
(664 -1.041e-12 0)
(664 -1.15719e-12 0)
(664 -1.19565e-12 0)
(664 -1.20577e-12 0)
(664 -1.22678e-12 0)
(664 -1.23663e-12 0)
(664 -1.2819e-12 0)
(664 -1.36629e-12 0)
(664 -1.4692e-12 0)
(664 -1.59656e-12 0)
(664 -1.67383e-12 0)
(664 -1.76685e-12 0)
(664 -1.82769e-12 0)
(664 -1.83257e-12 0)
(664 -1.74751e-12 0)
(664 -1.5971e-12 0)
(664 -1.42749e-12 0)
(664 -1.30985e-12 0)
(664 -1.24951e-12 0)
(664 -1.20567e-12 0)
(664 -1.15499e-12 0)
(664 -1.13929e-12 0)
(664 -1.1273e-12 0)
(664 -1.03093e-12 0)
(664 -9.14663e-13 0)
(664 -9.0783e-13 0)
(664 -9.6805e-13 0)
(664 -1.06555e-12 0)
(664 -1.17039e-12 0)
(664 -1.24394e-12 0)
(664 -1.25915e-12 0)
(664 -1.31949e-12 0)
(664 -1.37041e-12 0)
(664 -1.42643e-12 0)
(664 -1.42326e-12 0)
(664 -1.36856e-12 0)
(664 -1.28557e-12 0)
(664 -1.19163e-12 0)
(664 -1.12678e-12 0)
(664 -1.10872e-12 0)
(664 -1.10736e-12 0)
(664 -1.11893e-12 0)
(664 -1.08378e-12 0)
(664 -9.14534e-13 0)
(664 -6.78825e-13 0)
(664 -4.97574e-13 0)
(664 -3.94638e-13 0)
(664 -3.7032e-13 0)
(664 -4.46868e-13 0)
(664 -5.37707e-13 0)
(664 -6.49055e-13 0)
(664 -7.69929e-13 0)
(664 -7.8297e-13 0)
(664 -7.73846e-13 0)
(664 -8.85312e-13 0)
(664 -1.02498e-12 0)
(664 -1.09866e-12 0)
(664 -1.07289e-12 0)
(664 -1.05827e-12 0)
(664 -1.05645e-12 0)
(664 -1.01884e-12 0)
(664 -9.16925e-13 0)
(664 -8.60882e-13 0)
(664 -9.1347e-13 0)
(664 -1.04487e-12 0)
(664 -1.17942e-12 0)
(664 -1.28816e-12 0)
(664 -1.31301e-12 0)
(664 -1.33107e-12 0)
(664 -1.41602e-12 0)
(664 -1.5421e-12 0)
(664 -1.59125e-12 0)
(664 -1.57781e-12 0)
(664 -1.56715e-12 0)
(664 -1.48214e-12 0)
(664 -1.3299e-12 0)
(664 -1.15587e-12 0)
(664 -1.02973e-12 0)
(664 -9.7347e-13 0)
(664 -1.00648e-12 0)
(664 -1.06868e-12 0)
(664 -1.12102e-12 0)
(664 -1.13265e-12 0)
(664 -1.17143e-12 0)
(664 -1.2231e-12 0)
(664 -1.15434e-12 0)
(664 -1.03177e-12 0)
(664 -1.01328e-12 0)
(664 -1.01898e-12 0)
(664 -1.08733e-12 0)
(664 -1.25064e-12 0)
(664 -1.42708e-12 0)
(664 -1.4306e-12 0)
(664 -1.26804e-12 0)
(664 -1.15502e-12 0)
(664 -1.02624e-12 0)
(664 -9.51775e-13 0)
(664 -9.73425e-13 0)
(664 -1.07247e-12 0)
(664 -1.19806e-12 0)
(664 -1.3563e-12 0)
(664 -1.43345e-12 0)
(664 -1.4203e-12 0)
(664 -1.38934e-12 0)
(664 -1.47914e-12 0)
(664 -1.63339e-12 0)
(664 -1.78925e-12 0)
(664 -2.03679e-12 0)
(664 -2.33208e-12 0)
(664 -2.47205e-12 0)
(664 -2.42338e-12 0)
(664 -2.32116e-12 0)
(664 -2.20429e-12 0)
(664 -2.07921e-12 0)
(664 -1.91608e-12 0)
(664 -1.66536e-12 0)
(664 -1.4977e-12 0)
(664 -1.43847e-12 0)
(664 -1.34401e-12 0)
(664 -1.17278e-12 0)
(664 -1.00144e-12 0)
(664 -8.35e-13 0)
(664 -7.00562e-13 0)
(664 -6.81663e-13 0)
(664 -8.14805e-13 0)
(664 -1.04355e-12 0)
(664 -1.23421e-12 0)
(664 -1.38243e-12 0)
(664 -1.51161e-12 0)
(664 -1.55164e-12 0)
(664 -1.4229e-12 0)
(664 -1.13329e-12 0)
(664 -8.17659e-13 0)
(664 -6.98297e-13 0)
(664 -7.60122e-13 0)
(664 -8.19546e-13 0)
(664 -9.01567e-13 0)
(664 -9.75451e-13 0)
(664 -9.93292e-13 0)
(664 -9.2443e-13 0)
(664 -8.16845e-13 0)
(664 -7.57511e-13 0)
(664 -8.64349e-13 0)
(664 -9.95677e-13 0)
(664 -1.04964e-12 0)
(664 -1.07445e-12 0)
(664 -1.13627e-12 0)
(664 -1.12454e-12 0)
(664 -1.01435e-12 0)
(664 -9.12048e-13 0)
(664 -7.39527e-13 0)
(664 -5.53663e-13 0)
(664 -4.84188e-13 0)
(664 -4.93442e-13 0)
(664 -4.55856e-13 0)
(664 -3.1798e-13 0)
(664 5.41772e-15 0)
(664 5.28986e-13 0)
(664 1.32742e-12 0)
(664 2.4763e-12 0)
(664 4.24185e-12 0)
(664 7.14618e-12 0)
(664 1.19898e-11 0)
(664 2.01145e-11 0)
(664 3.36917e-11 0)
(664 5.63326e-11 0)
(664 9.38477e-11 0)
(664 1.56152e-10 0)
(664 2.59585e-10 0)
(664 4.31089e-10 0)
(664 7.15253e-10 0)
(664 1.18636e-09 0)
(664 1.96786e-09 0)
(664 3.26518e-09 0)
(664 5.41999e-09 0)
(664 9.0005e-09 0)
(664 1.49528e-08 0)
(664 2.48532e-08 0)
(664 4.133e-08 0)
(664 6.87671e-08 0)
(664 1.14483e-07 0)
(664 1.90701e-07 0)
(664 3.17854e-07 0)
(664 5.30119e-07 0)
(664 8.84705e-07 0)
(664 1.47745e-06 0)
(664 2.46904e-06 0)
(664 4.12907e-06 0)
(664 6.9103e-06 0)
(664 1.15737e-05 0)
(664 1.93993e-05 0)
(664 3.25428e-05 0)
(664 5.46369e-05 0)
(663.999 9.18104e-05 0)
(663.999 0.000154413 0)
(663.998 0.000259941 0)
(663.997 0.000438002 0)
(663.995 0.000738752 0)
(663.991 0.00124725 0)
(663.985 0.00210793 0)
(663.976 0.00356629 0)
(663.961 0.0060401 0)
(663.937 0.0102412 0)
(663.898 0.0173841 0)
(663.834 0.0295428 0)
(663.729 0.0502646 0)
(663.56 0.0856227 0)
(663.284 0.146031 0)
(662.837 0.249355 0)
(662.112 0.426314 0)
(660.939 0.729675 0)
(659.045 1.25041 0)
(655.999 2.14433 0)
(651.121 3.68065 0)
(643.403 6.31032 0)
(631.313 10.8079 0)
(613.717 18.3234 0)
(664 -1.26336e-14 0)
(664 -2.43367e-14 0)
(664 -1.71958e-14 0)
(664 -3.09636e-14 0)
(664 -2.40449e-14 0)
(664 3.67956e-14 0)
(664 4.4303e-14 0)
(664 -3.00725e-14 0)
(664 -1.15041e-13 0)
(664 -1.44179e-13 0)
(664 -1.86937e-13 0)
(664 -1.87452e-13 0)
(664 -1.39418e-13 0)
(664 -1.05298e-13 0)
(664 -1.82853e-13 0)
(664 -3.03786e-13 0)
(664 -3.62009e-13 0)
(664 -3.8114e-13 0)
(664 -3.93682e-13 0)
(664 -4.2782e-13 0)
(664 -5.16964e-13 0)
(664 -6.0968e-13 0)
(664 -7.39844e-13 0)
(664 -8.47664e-13 0)
(664 -8.7354e-13 0)
(664 -8.19437e-13 0)
(664 -7.07906e-13 0)
(664 -5.92197e-13 0)
(664 -5.3116e-13 0)
(664 -5.28058e-13 0)
(664 -5.44877e-13 0)
(664 -5.45205e-13 0)
(664 -5.59531e-13 0)
(664 -5.53006e-13 0)
(664 -5.27739e-13 0)
(664 -5.6901e-13 0)
(664 -6.50989e-13 0)
(664 -7.3318e-13 0)
(664 -7.73462e-13 0)
(664 -7.93343e-13 0)
(664 -7.37157e-13 0)
(664 -6.98659e-13 0)
(664 -7.12232e-13 0)
(664 -6.80131e-13 0)
(664 -6.44526e-13 0)
(664 -7.04878e-13 0)
(664 -8.19261e-13 0)
(664 -8.43789e-13 0)
(664 -7.85728e-13 0)
(664 -7.64436e-13 0)
(664 -7.67373e-13 0)
(664 -7.46741e-13 0)
(664 -7.4663e-13 0)
(664 -7.82674e-13 0)
(664 -8.96178e-13 0)
(664 -1.07859e-12 0)
(664 -1.21964e-12 0)
(664 -1.16785e-12 0)
(664 -9.89744e-13 0)
(664 -7.41859e-13 0)
(664 -5.34225e-13 0)
(664 -5.03852e-13 0)
(664 -5.72677e-13 0)
(664 -6.13104e-13 0)
(664 -6.18191e-13 0)
(664 -5.75967e-13 0)
(664 -4.72794e-13 0)
(664 -2.96662e-13 0)
(664 -1.68998e-13 0)
(664 -1.34614e-13 0)
(664 -1.96146e-13 0)
(664 -3.41006e-13 0)
(664 -4.50741e-13 0)
(664 -4.76418e-13 0)
(664 -4.84022e-13 0)
(664 -4.87864e-13 0)
(664 -4.78644e-13 0)
(664 -3.82654e-13 0)
(664 -2.66723e-13 0)
(664 -1.76218e-13 0)
(664 -1.29816e-13 0)
(664 -1.6123e-13 0)
(664 -3.10323e-13 0)
(664 -4.82517e-13 0)
(664 -5.82811e-13 0)
(664 -6.95206e-13 0)
(664 -9.06978e-13 0)
(664 -1.15102e-12 0)
(664 -1.29098e-12 0)
(664 -1.29298e-12 0)
(664 -1.24008e-12 0)
(664 -1.23418e-12 0)
(664 -1.20595e-12 0)
(664 -1.19223e-12 0)
(664 -1.17257e-12 0)
(664 -1.12449e-12 0)
(664 -1.04863e-12 0)
(664 -9.57255e-13 0)
(664 -8.97679e-13 0)
(664 -9.09618e-13 0)
(664 -9.01737e-13 0)
(664 -8.7433e-13 0)
(664 -8.81806e-13 0)
(664 -8.94402e-13 0)
(664 -8.63986e-13 0)
(664 -8.63382e-13 0)
(664 -8.7021e-13 0)
(664 -8.46964e-13 0)
(664 -8.52781e-13 0)
(664 -8.68606e-13 0)
(664 -8.80934e-13 0)
(664 -8.37351e-13 0)
(664 -8.22109e-13 0)
(664 -8.16884e-13 0)
(664 -8.29101e-13 0)
(664 -8.40841e-13 0)
(664 -8.70196e-13 0)
(664 -8.41884e-13 0)
(664 -8.41258e-13 0)
(664 -8.66815e-13 0)
(664 -7.83863e-13 0)
(664 -6.54304e-13 0)
(664 -6.31947e-13 0)
(664 -6.88509e-13 0)
(664 -6.75816e-13 0)
(664 -7.39846e-13 0)
(664 -9.1165e-13 0)
(664 -1.08279e-12 0)
(664 -1.25608e-12 0)
(664 -1.36779e-12 0)
(664 -1.43826e-12 0)
(664 -1.50881e-12 0)
(664 -1.495e-12 0)
(664 -1.41574e-12 0)
(664 -1.3933e-12 0)
(664 -1.42192e-12 0)
(664 -1.4056e-12 0)
(664 -1.43596e-12 0)
(664 -1.44935e-12 0)
(664 -1.37801e-12 0)
(664 -1.27139e-12 0)
(664 -1.11289e-12 0)
(664 -1.00873e-12 0)
(664 -9.62619e-13 0)
(664 -1.02916e-12 0)
(664 -1.1679e-12 0)
(664 -1.37224e-12 0)
(664 -1.49877e-12 0)
(664 -1.59907e-12 0)
(664 -1.62311e-12 0)
(664 -1.52282e-12 0)
(664 -1.37758e-12 0)
(664 -1.21093e-12 0)
(664 -1.0347e-12 0)
(664 -9.05494e-13 0)
(664 -8.99699e-13 0)
(664 -9.96822e-13 0)
(664 -1.07131e-12 0)
(664 -1.09506e-12 0)
(664 -1.08098e-12 0)
(664 -1.02924e-12 0)
(664 -9.52539e-13 0)
(664 -1.00177e-12 0)
(664 -1.13695e-12 0)
(664 -1.23537e-12 0)
(664 -1.22053e-12 0)
(664 -1.12634e-12 0)
(664 -1.07001e-12 0)
(664 -1.09047e-12 0)
(664 -1.03538e-12 0)
(664 -9.82576e-13 0)
(664 -9.37844e-13 0)
(664 -8.5233e-13 0)
(664 -7.32594e-13 0)
(664 -6.55945e-13 0)
(664 -6.54718e-13 0)
(664 -6.94679e-13 0)
(664 -7.52054e-13 0)
(664 -8.79546e-13 0)
(664 -1.054e-12 0)
(664 -1.22502e-12 0)
(664 -1.29478e-12 0)
(664 -1.30369e-12 0)
(664 -1.25682e-12 0)
(664 -1.23161e-12 0)
(664 -1.2377e-12 0)
(664 -1.14574e-12 0)
(664 -9.23196e-13 0)
(664 -6.8575e-13 0)
(664 -5.73226e-13 0)
(664 -5.12139e-13 0)
(664 -4.52506e-13 0)
(664 -4.08191e-13 0)
(664 -4.17343e-13 0)
(664 -4.30688e-13 0)
(664 -4.96418e-13 0)
(664 -5.6967e-13 0)
(664 -6.45279e-13 0)
(664 -7.48753e-13 0)
(664 -9.10401e-13 0)
(664 -1.08919e-12 0)
(664 -1.26195e-12 0)
(664 -1.35786e-12 0)
(664 -1.39731e-12 0)
(664 -1.42166e-12 0)
(664 -1.30172e-12 0)
(664 -1.0421e-12 0)
(664 -7.35032e-13 0)
(664 -4.9055e-13 0)
(664 -3.8799e-13 0)
(664 -4.3713e-13 0)
(664 -5.49126e-13 0)
(664 -6.41689e-13 0)
(664 -6.43828e-13 0)
(664 -6.27952e-13 0)
(664 -7.34523e-13 0)
(664 -9.25131e-13 0)
(664 -1.00864e-12 0)
(664 -1.0501e-12 0)
(664 -1.15814e-12 0)
(664 -1.25485e-12 0)
(664 -1.3095e-12 0)
(664 -1.37521e-12 0)
(664 -1.47979e-12 0)
(664 -1.64654e-12 0)
(664 -1.84492e-12 0)
(664 -1.93431e-12 0)
(664 -1.83987e-12 0)
(664 -1.68751e-12 0)
(664 -1.4575e-12 0)
(664 -1.19095e-12 0)
(664 -9.20224e-13 0)
(664 -6.53046e-13 0)
(664 -3.54289e-13 0)
(664 -4.70094e-14 0)
(664 2.01541e-13 0)
(664 3.08904e-13 0)
(664 3.4097e-13 0)
(664 3.89847e-13 0)
(664 5.18819e-13 0)
(664 8.90781e-13 0)
(664 1.78731e-12 0)
(664 3.35747e-12 0)
(664 5.90872e-12 0)
(664 1.01841e-11 0)
(664 1.73047e-11 0)
(664 2.91265e-11 0)
(664 4.88084e-11 0)
(664 8.14762e-11 0)
(664 1.35549e-10 0)
(664 2.24827e-10 0)
(664 3.72442e-10 0)
(664 6.163e-10 0)
(664 1.01892e-09 0)
(664 1.68369e-09 0)
(664 2.78187e-09 0)
(664 4.59663e-09 0)
(664 7.59643e-09 0)
(664 1.25565e-08 0)
(664 2.07601e-08 0)
(664 3.43325e-08 0)
(664 5.67931e-08 0)
(664 9.3973e-08 0)
(664 1.55537e-07 0)
(664 2.57504e-07 0)
(664 4.26442e-07 0)
(664 7.06412e-07 0)
(664 1.17052e-06 0)
(664 1.94009e-06 0)
(664 3.21652e-06 0)
(664 5.33422e-06 0)
(664 8.84855e-06 0)
(664 1.46821e-05 0)
(664 2.43677e-05 0)
(664 4.04528e-05 0)
(664 6.71713e-05 0)
(663.999 0.000111562 0)
(663.999 0.000185326 0)
(663.998 0.000307919 0)
(663.997 0.000511691 0)
(663.996 0.000850432 0)
(663.993 0.00141357 0)
(663.989 0.00234979 0)
(663.982 0.00390621 0)
(663.971 0.00649348 0)
(663.953 0.0107938 0)
(663.923 0.0179397 0)
(663.876 0.0298111 0)
(663.801 0.0495247 0)
(663.68 0.0822448 0)
(663.485 0.136517 0)
(663.173 0.226465 0)
(662.673 0.37538 0)
(661.876 0.621595 0)
(660.606 1.02792 0)
(658.592 1.69694 0)
(655.41 2.79421 0)
(650.44 4.58518 0)
(642.711 7.47779 0)
(631.466 12.0912 0)
(664 -2.99741e-14 0)
(664 -4.12097e-14 0)
(664 -4.27626e-14 0)
(664 -1.5192e-14 0)
(664 3.55524e-14 0)
(664 5.98206e-14 0)
(664 1.05587e-15 0)
(664 -1.11843e-13 0)
(664 -2.50769e-13 0)
(664 -3.28391e-13 0)
(664 -3.32934e-13 0)
(664 -2.77451e-13 0)
(664 -2.24337e-13 0)
(664 -1.94334e-13 0)
(664 -2.19709e-13 0)
(664 -2.41124e-13 0)
(664 -2.22357e-13 0)
(664 -2.02308e-13 0)
(664 -1.02956e-13 0)
(664 -2.44739e-14 0)
(664 -2.47058e-14 0)
(664 -1.21298e-13 0)
(664 -1.68455e-13 0)
(664 -1.3061e-13 0)
(664 -5.12071e-14 0)
(664 -7.66767e-17 0)
(664 -5.31281e-14 0)
(664 -1.22367e-13 0)
(664 -1.53742e-13 0)
(664 -2.68368e-13 0)
(664 -4.3259e-13 0)
(664 -4.86706e-13 0)
(664 -4.62948e-13 0)
(664 -4.39459e-13 0)
(664 -3.85619e-13 0)
(664 -2.86318e-13 0)
(664 -9.55995e-14 0)
(664 6.30012e-14 0)
(664 1.50973e-13 0)
(664 1.62964e-13 0)
(664 3.78764e-14 0)
(664 -1.29768e-13 0)
(664 -2.0289e-13 0)
(664 -1.88828e-13 0)
(664 -2.15653e-13 0)
(664 -3.42287e-13 0)
(664 -4.31791e-13 0)
(664 -4.19678e-13 0)
(664 -4.30501e-13 0)
(664 -5.07691e-13 0)
(664 -6.06697e-13 0)
(664 -7.01189e-13 0)
(664 -7.83956e-13 0)
(664 -8.62446e-13 0)
(664 -9.66797e-13 0)
(664 -1.04947e-12 0)
(664 -1.03344e-12 0)
(664 -9.91854e-13 0)
(664 -1.02632e-12 0)
(664 -1.08692e-12 0)
(664 -1.07552e-12 0)
(664 -9.54359e-13 0)
(664 -7.69223e-13 0)
(664 -6.20691e-13 0)
(664 -6.57869e-13 0)
(664 -8.39063e-13 0)
(664 -9.30114e-13 0)
(664 -9.34371e-13 0)
(664 -8.72989e-13 0)
(664 -8.2373e-13 0)
(664 -8.12573e-13 0)
(664 -7.91698e-13 0)
(664 -7.4914e-13 0)
(664 -6.89706e-13 0)
(664 -6.55639e-13 0)
(664 -6.74802e-13 0)
(664 -7.70767e-13 0)
(664 -9.40481e-13 0)
(664 -1.12249e-12 0)
(664 -1.19321e-12 0)
(664 -1.25119e-12 0)
(664 -1.26613e-12 0)
(664 -1.24686e-12 0)
(664 -1.21628e-12 0)
(664 -1.17057e-12 0)
(664 -1.15224e-12 0)
(664 -1.13782e-12 0)
(664 -1.08051e-12 0)
(664 -9.46384e-13 0)
(664 -8.46562e-13 0)
(664 -8.08012e-13 0)
(664 -7.81532e-13 0)
(664 -7.27584e-13 0)
(664 -7.13093e-13 0)
(664 -7.12426e-13 0)
(664 -8.02648e-13 0)
(664 -9.042e-13 0)
(664 -1.02588e-12 0)
(664 -1.18249e-12 0)
(664 -1.24118e-12 0)
(664 -1.20054e-12 0)
(664 -1.11801e-12 0)
(664 -1.02845e-12 0)
(664 -9.42486e-13 0)
(664 -8.61173e-13 0)
(664 -7.60462e-13 0)
(664 -7.60984e-13 0)
(664 -8.9458e-13 0)
(664 -1.04128e-12 0)
(664 -1.16303e-12 0)
(664 -1.20237e-12 0)
(664 -1.17794e-12 0)
(664 -1.1434e-12 0)
(664 -1.17394e-12 0)
(664 -1.20217e-12 0)
(664 -1.16863e-12 0)
(664 -1.01226e-12 0)
(664 -8.76482e-13 0)
(664 -7.9987e-13 0)
(664 -8.49604e-13 0)
(664 -9.76333e-13 0)
(664 -1.11997e-12 0)
(664 -1.19586e-12 0)
(664 -1.15202e-12 0)
(664 -1.0384e-12 0)
(664 -8.96669e-13 0)
(664 -7.80812e-13 0)
(664 -7.40106e-13 0)
(664 -7.79519e-13 0)
(664 -8.50026e-13 0)
(664 -8.96794e-13 0)
(664 -9.28574e-13 0)
(664 -1.00509e-12 0)
(664 -1.16048e-12 0)
(664 -1.40365e-12 0)
(664 -1.68849e-12 0)
(664 -1.85637e-12 0)
(664 -1.75467e-12 0)
(664 -1.54954e-12 0)
(664 -1.40911e-12 0)
(664 -1.38335e-12 0)
(664 -1.35438e-12 0)
(664 -1.29175e-12 0)
(664 -1.29301e-12 0)
(664 -1.28928e-12 0)
(664 -1.29796e-12 0)
(664 -1.2058e-12 0)
(664 -1.07392e-12 0)
(664 -9.23213e-13 0)
(664 -8.20151e-13 0)
(664 -7.61046e-13 0)
(664 -7.85513e-13 0)
(664 -8.15862e-13 0)
(664 -9.42222e-13 0)
(664 -1.10469e-12 0)
(664 -1.22366e-12 0)
(664 -1.24959e-12 0)
(664 -1.25919e-12 0)
(664 -1.26443e-12 0)
(664 -1.29046e-12 0)
(664 -1.2969e-12 0)
(664 -1.29521e-12 0)
(664 -1.29506e-12 0)
(664 -1.25165e-12 0)
(664 -1.23994e-12 0)
(664 -1.2332e-12 0)
(664 -1.13095e-12 0)
(664 -1.04777e-12 0)
(664 -1.14999e-12 0)
(664 -1.37112e-12 0)
(664 -1.51557e-12 0)
(664 -1.5673e-12 0)
(664 -1.57486e-12 0)
(664 -1.65125e-12 0)
(664 -1.77835e-12 0)
(664 -1.90272e-12 0)
(664 -2.05928e-12 0)
(664 -2.24213e-12 0)
(664 -2.37429e-12 0)
(664 -2.46421e-12 0)
(664 -2.51129e-12 0)
(664 -2.57245e-12 0)
(664 -2.58483e-12 0)
(664 -2.491e-12 0)
(664 -2.38319e-12 0)
(664 -2.28012e-12 0)
(664 -2.15967e-12 0)
(664 -1.98032e-12 0)
(664 -1.7525e-12 0)
(664 -1.44631e-12 0)
(664 -1.19562e-12 0)
(664 -1.09617e-12 0)
(664 -1.04784e-12 0)
(664 -9.25486e-13 0)
(664 -8.07857e-13 0)
(664 -7.395e-13 0)
(664 -7.65296e-13 0)
(664 -8.44554e-13 0)
(664 -1.00517e-12 0)
(664 -1.08488e-12 0)
(664 -1.00455e-12 0)
(664 -9.80726e-13 0)
(664 -1.07164e-12 0)
(664 -1.16526e-12 0)
(664 -1.24114e-12 0)
(664 -1.28154e-12 0)
(664 -1.30401e-12 0)
(664 -1.24352e-12 0)
(664 -1.15925e-12 0)
(664 -1.08308e-12 0)
(664 -9.63376e-13 0)
(664 -8.50146e-13 0)
(664 -7.60124e-13 0)
(664 -7.76263e-13 0)
(664 -8.75939e-13 0)
(664 -9.98342e-13 0)
(664 -1.11558e-12 0)
(664 -1.12057e-12 0)
(664 -1.03285e-12 0)
(664 -8.80574e-13 0)
(664 -7.69066e-13 0)
(664 -6.08942e-13 0)
(664 -4.12051e-13 0)
(664 -2.49413e-13 0)
(664 -1.49986e-13 0)
(664 -1.14458e-13 0)
(664 -1.48436e-13 0)
(664 -2.56955e-13 0)
(664 -2.92817e-13 0)
(664 -2.70421e-13 0)
(664 -2.55389e-13 0)
(664 -2.95073e-13 0)
(664 -3.20693e-13 0)
(664 -3.67248e-13 0)
(664 -4.85463e-13 0)
(664 -5.66999e-13 0)
(664 -5.53615e-13 0)
(664 -4.79562e-13 0)
(664 -3.07405e-13 0)
(664 2.14815e-14 0)
(664 6.75753e-13 0)
(664 1.79769e-12 0)
(664 3.74392e-12 0)
(664 6.97126e-12 0)
(664 1.22045e-11 0)
(664 2.08177e-11 0)
(664 3.48753e-11 0)
(664 5.77889e-11 0)
(664 9.53795e-11 0)
(664 1.57147e-10 0)
(664 2.58645e-10 0)
(664 4.25275e-10 0)
(664 6.99061e-10 0)
(664 1.14917e-09 0)
(664 1.88926e-09 0)
(664 3.10641e-09 0)
(664 5.108e-09 0)
(664 8.39946e-09 0)
(664 1.38126e-08 0)
(664 2.27157e-08 0)
(664 3.736e-08 0)
(664 6.1449e-08 0)
(664 1.01076e-07 0)
(664 1.66266e-07 0)
(664 2.73516e-07 0)
(664 4.49964e-07 0)
(664 7.40262e-07 0)
(664 1.21787e-06 0)
(664 2.00365e-06 0)
(664 3.29637e-06 0)
(664 5.42303e-06 0)
(664 8.92135e-06 0)
(664 1.46755e-05 0)
(664 2.41391e-05 0)
(664 3.97014e-05 0)
(664 6.52881e-05 0)
(664 0.000107348 0)
(663.999 0.000176472 0)
(663.999 0.000290043 0)
(663.998 0.000476582 0)
(663.997 0.000782862 0)
(663.995 0.00128554 0)
(663.992 0.00211016 0)
(663.987 0.00346222 0)
(663.979 0.00567774 0)
(663.966 0.00930569 0)
(663.946 0.015242 0)
(663.913 0.0249471 0)
(663.861 0.0407982 0)
(663.779 0.0666589 0)
(663.647 0.108797 0)
(663.439 0.177358 0)
(663.108 0.288721 0)
(662.583 0.469256 0)
(661.755 0.761181 0)
(660.451 1.23189 0)
(658.403 1.98745 0)
(655.213 3.19471 0)
(650.244 5.10353 0)
(642.95 8.09758 0)
(664 2.97821e-14 0)
(664 5.03012e-14 0)
(664 9.58594e-14 0)
(664 1.30217e-13 0)
(664 1.23316e-13 0)
(664 6.04217e-14 0)
(664 1.1602e-14 0)
(664 3.39109e-14 0)
(664 1.11123e-13 0)
(664 1.68097e-13 0)
(664 1.84491e-13 0)
(664 8.58931e-14 0)
(664 -8.66106e-15 0)
(664 -1.67148e-14 0)
(664 8.26536e-14 0)
(664 1.57601e-13 0)
(664 1.48434e-13 0)
(664 9.47472e-14 0)
(664 1.8153e-14 0)
(664 -3.6872e-14 0)
(664 3.82503e-14 0)
(664 2.46561e-13 0)
(664 4.2422e-13 0)
(664 4.81451e-13 0)
(664 3.97774e-13 0)
(664 1.9687e-13 0)
(664 -9.20862e-14 0)
(664 -3.37784e-13 0)
(664 -4.44718e-13 0)
(664 -4.23246e-13 0)
(664 -3.96808e-13 0)
(664 -3.63846e-13 0)
(664 -3.0986e-13 0)
(664 -2.70513e-13 0)
(664 -2.54379e-13 0)
(664 -1.62864e-13 0)
(664 -7.52107e-14 0)
(664 1.22821e-14 0)
(664 9.30026e-14 0)
(664 1.14218e-13 0)
(664 1.54571e-14 0)
(664 -8.97543e-14 0)
(664 -1.38694e-13 0)
(664 -2.16173e-13 0)
(664 -3.47695e-13 0)
(664 -4.59649e-13 0)
(664 -5.21439e-13 0)
(664 -5.96847e-13 0)
(664 -7.22532e-13 0)
(664 -8.30879e-13 0)
(664 -9.10867e-13 0)
(664 -1.00447e-12 0)
(664 -1.04903e-12 0)
(664 -1.00209e-12 0)
(664 -9.34051e-13 0)
(664 -8.2604e-13 0)
(664 -7.16788e-13 0)
(664 -7.46412e-13 0)
(664 -8.17095e-13 0)
(664 -9.01743e-13 0)
(664 -9.57718e-13 0)
(664 -8.93899e-13 0)
(664 -8.38086e-13 0)
(664 -8.22476e-13 0)
(664 -8.52225e-13 0)
(664 -8.86827e-13 0)
(664 -9.44898e-13 0)
(664 -1.00812e-12 0)
(664 -1.04187e-12 0)
(664 -9.86688e-13 0)
(664 -8.12333e-13 0)
(664 -5.90743e-13 0)
(664 -4.21284e-13 0)
(664 -3.38828e-13 0)
(664 -3.29198e-13 0)
(664 -3.06781e-13 0)
(664 -2.58784e-13 0)
(664 -2.44667e-13 0)
(664 -3.28148e-13 0)
(664 -4.81541e-13 0)
(664 -6.23615e-13 0)
(664 -7.00652e-13 0)
(664 -6.72265e-13 0)
(664 -6.64492e-13 0)
(664 -7.41415e-13 0)
(664 -7.84289e-13 0)
(664 -7.1848e-13 0)
(664 -6.51138e-13 0)
(664 -6.02475e-13 0)
(664 -5.82052e-13 0)
(664 -5.76511e-13 0)
(664 -6.08932e-13 0)
(664 -7.39322e-13 0)
(664 -8.93485e-13 0)
(664 -1.07373e-12 0)
(664 -1.20148e-12 0)
(664 -1.25153e-12 0)
(664 -1.28217e-12 0)
(664 -1.28262e-12 0)
(664 -1.28406e-12 0)
(664 -1.27865e-12 0)
(664 -1.27499e-12 0)
(664 -1.261e-12 0)
(664 -1.22758e-12 0)
(664 -1.21135e-12 0)
(664 -1.21017e-12 0)
(664 -1.16948e-12 0)
(664 -1.0988e-12 0)
(664 -1.08824e-12 0)
(664 -1.06981e-12 0)
(664 -9.92537e-13 0)
(664 -9.18092e-13 0)
(664 -9.1193e-13 0)
(664 -9.89782e-13 0)
(664 -9.95002e-13 0)
(664 -8.93793e-13 0)
(664 -8.33029e-13 0)
(664 -8.60815e-13 0)
(664 -9.24886e-13 0)
(664 -9.69027e-13 0)
(664 -1.04764e-12 0)
(664 -1.11335e-12 0)
(664 -1.06461e-12 0)
(664 -9.12073e-13 0)
(664 -7.43543e-13 0)
(664 -6.39347e-13 0)
(664 -6.45065e-13 0)
(664 -7.07788e-13 0)
(664 -7.18387e-13 0)
(664 -7.29602e-13 0)
(664 -7.55069e-13 0)
(664 -8.08022e-13 0)
(664 -9.11086e-13 0)
(664 -1.07706e-12 0)
(664 -1.1691e-12 0)
(664 -1.17132e-12 0)
(664 -1.13962e-12 0)
(664 -1.08745e-12 0)
(664 -1.02322e-12 0)
(664 -9.80298e-13 0)
(664 -9.62843e-13 0)
(664 -1.01242e-12 0)
(664 -1.122e-12 0)
(664 -1.22345e-12 0)
(664 -1.29874e-12 0)
(664 -1.32727e-12 0)
(664 -1.38395e-12 0)
(664 -1.51e-12 0)
(664 -1.595e-12 0)
(664 -1.61042e-12 0)
(664 -1.5804e-12 0)
(664 -1.46962e-12 0)
(664 -1.31237e-12 0)
(664 -1.16369e-12 0)
(664 -1.05784e-12 0)
(664 -9.9604e-13 0)
(664 -8.78207e-13 0)
(664 -6.78071e-13 0)
(664 -5.25672e-13 0)
(664 -4.58188e-13 0)
(664 -4.69189e-13 0)
(664 -5.30348e-13 0)
(664 -6.04452e-13 0)
(664 -6.39246e-13 0)
(664 -6.56495e-13 0)
(664 -7.53658e-13 0)
(664 -8.91243e-13 0)
(664 -9.9248e-13 0)
(664 -1.03601e-12 0)
(664 -1.09706e-12 0)
(664 -1.07378e-12 0)
(664 -1.00652e-12 0)
(664 -1.05872e-12 0)
(664 -1.17262e-12 0)
(664 -1.24027e-12 0)
(664 -1.25623e-12 0)
(664 -1.29437e-12 0)
(664 -1.32952e-12 0)
(664 -1.34861e-12 0)
(664 -1.38069e-12 0)
(664 -1.4212e-12 0)
(664 -1.52996e-12 0)
(664 -1.72689e-12 0)
(664 -1.9399e-12 0)
(664 -2.02432e-12 0)
(664 -2.01607e-12 0)
(664 -1.98526e-12 0)
(664 -1.9296e-12 0)
(664 -1.82234e-12 0)
(664 -1.61356e-12 0)
(664 -1.33361e-12 0)
(664 -9.79211e-13 0)
(664 -6.22825e-13 0)
(664 -3.70105e-13 0)
(664 -2.80671e-13 0)
(664 -3.33861e-13 0)
(664 -4.57832e-13 0)
(664 -6.54584e-13 0)