/*--------------------------------*- C++ -*----------------------------------*\
| =========                 |                                                 |
| \\      /  F ield         | OpenFOAM: The Open Source CFD Toolbox           |
|  \\    /   O peration     | Version:  2412                                  |
|   \\  /    A nd           | Website:  www.openfoam.com                      |
|    \\/     M anipulation  |                                                 |
\*---------------------------------------------------------------------------*/
FoamFile
{
    version     2.0;
    format      ascii;
    arch        "LSB;label=32;scalar=64";
    class       volVectorField;
    location    "0.0035";
    object      U_0;
}
// * * * * * * * * * * * * * * * * * * * * * * * * * * * * * * * * * * * * * //

dimensions      [0 1 -1 0 0 0 0];

internalField   nonuniform List<vector> 
180000
(
(664 1.49467e-14 0)
(664 2.89454e-15 0)
(664 -5.69072e-15 0)
(664 -3.01967e-14 0)
(664 -1.03025e-13 0)
(664 -1.32536e-13 0)
(664 -9.5101e-14 0)
(664 -4.83608e-14 0)
(664 -7.8375e-14 0)
(664 -1.1825e-13 0)
(664 -1.0263e-13 0)
(664 -1.16052e-13 0)
(664 -1.86838e-13 0)
(664 -2.29541e-13 0)
(664 -1.85363e-13 0)
(664 -1.99399e-13 0)
(664 -3.34022e-13 0)
(664 -5.27816e-13 0)
(664 -6.59874e-13 0)
(664 -6.64229e-13 0)
(664 -6.62721e-13 0)
(664 -6.71025e-13 0)
(664 -6.20156e-13 0)
(664 -5.4485e-13 0)
(664 -5.34135e-13 0)
(664 -5.72479e-13 0)
(664 -6.1311e-13 0)
(664 -6.78131e-13 0)
(664 -7.51317e-13 0)
(664 -7.7189e-13 0)
(664 -7.55197e-13 0)
(664 -7.50525e-13 0)
(664 -7.98601e-13 0)
(664 -8.85182e-13 0)
(664 -8.82568e-13 0)
(664 -8.17216e-13 0)
(664 -7.67638e-13 0)
(664 -7.79596e-13 0)
(664 -8.32954e-13 0)
(664 -9.04204e-13 0)
(664 -9.27543e-13 0)
(664 -8.42792e-13 0)
(664 -7.65783e-13 0)
(664 -8.27813e-13 0)
(664 -9.37507e-13 0)
(664 -9.62146e-13 0)
(664 -8.78421e-13 0)
(664 -8.82258e-13 0)
(664 -9.63157e-13 0)
(664 -1.01125e-12 0)
(664 -9.74295e-13 0)
(664 -8.49325e-13 0)
(664 -7.5261e-13 0)
(664 -6.88191e-13 0)
(664 -6.23504e-13 0)
(664 -6.11416e-13 0)
(664 -6.64612e-13 0)
(664 -6.83399e-13 0)
(664 -6.5458e-13 0)
(664 -6.74166e-13 0)
(664 -7.69808e-13 0)
(664 -7.75119e-13 0)
(664 -7.16988e-13 0)
(664 -6.38765e-13 0)
(664 -6.18869e-13 0)
(664 -7.13949e-13 0)
(664 -8.32692e-13 0)
(664 -9.01638e-13 0)
(664 -9.4353e-13 0)
(664 -9.57746e-13 0)
(664 -9.24181e-13 0)
(664 -8.973e-13 0)
(664 -8.91548e-13 0)
(664 -8.3091e-13 0)
(664 -7.5285e-13 0)
(664 -7.39976e-13 0)
(664 -7.92128e-13 0)
(664 -8.5474e-13 0)
(664 -8.7236e-13 0)
(664 -8.369e-13 0)
(664 -7.79192e-13 0)
(664 -6.9271e-13 0)
(664 -6.79023e-13 0)
(664 -7.09231e-13 0)
(664 -7.20299e-13 0)
(664 -6.54038e-13 0)
(664 -5.01292e-13 0)
(664 -4.01692e-13 0)
(664 -3.94023e-13 0)
(664 -4.85963e-13 0)
(664 -6.21118e-13 0)
(664 -7.81706e-13 0)
(664 -9.07192e-13 0)
(664 -9.46085e-13 0)
(664 -9.97617e-13 0)
(664 -1.08178e-12 0)
(664 -1.07858e-12 0)
(664 -9.80683e-13 0)
(664 -8.39757e-13 0)
(664 -7.63821e-13 0)
(664 -7.41125e-13 0)
(664 -6.61517e-13 0)
(664 -5.86177e-13 0)
(664 -5.39483e-13 0)
(664 -4.9685e-13 0)
(664 -4.85532e-13 0)
(664 -5.29036e-13 0)
(664 -6.73569e-13 0)
(664 -8.64119e-13 0)
(664 -1.01778e-12 0)
(664 -1.10403e-12 0)
(664 -1.1914e-12 0)
(664 -1.25398e-12 0)
(664 -1.31199e-12 0)
(664 -1.37229e-12 0)
(664 -1.39804e-12 0)
(664 -1.36479e-12 0)
(664 -1.26006e-12 0)
(664 -1.14518e-12 0)
(664 -1.15833e-12 0)
(664 -1.2728e-12 0)
(664 -1.39737e-12 0)
(664 -1.5024e-12 0)
(664 -1.56005e-12 0)
(664 -1.48544e-12 0)
(664 -1.2367e-12 0)
(664 -9.57539e-13 0)
(664 -7.51077e-13 0)
(664 -5.84783e-13 0)
(664 -4.88209e-13 0)
(664 -4.36127e-13 0)
(664 -4.33661e-13 0)
(664 -5.63141e-13 0)
(664 -7.86518e-13 0)
(664 -9.76787e-13 0)
(664 -1.09164e-12 0)
(664 -1.13864e-12 0)
(664 -1.18602e-12 0)
(664 -1.25071e-12 0)
(664 -1.31346e-12 0)
(664 -1.44305e-12 0)
(664 -1.4703e-12 0)
(664 -1.3642e-12 0)
(664 -1.1986e-12 0)
(664 -9.92474e-13 0)
(664 -8.33264e-13 0)
(664 -7.31777e-13 0)
(664 -6.04614e-13 0)
(664 -5.40383e-13 0)
(664 -5.42115e-13 0)
(664 -6.37317e-13 0)
(664 -8.34184e-13 0)
(664 -1.07812e-12 0)
(664 -1.22505e-12 0)
(664 -1.23312e-12 0)
(664 -1.1685e-12 0)
(664 -1.12473e-12 0)
(664 -1.06114e-12 0)
(664 -9.33468e-13 0)
(664 -8.21566e-13 0)
(664 -7.77158e-13 0)
(664 -7.93664e-13 0)
(664 -8.66579e-13 0)
(664 -1.00878e-12 0)
(664 -1.10299e-12 0)
(664 -1.15637e-12 0)
(664 -1.16047e-12 0)
(664 -1.07425e-12 0)
(664 -9.74784e-13 0)
(664 -9.72778e-13 0)
(664 -9.91866e-13 0)
(664 -9.80605e-13 0)
(664 -1.10681e-12 0)
(664 -1.30291e-12 0)
(664 -1.31138e-12 0)
(664 -1.19466e-12 0)
(664 -1.08075e-12 0)
(664 -9.47195e-13 0)
(664 -7.32861e-13 0)
(664 -5.97397e-13 0)
(664 -5.61289e-13 0)
(664 -5.50191e-13 0)
(664 -5.81804e-13 0)
(664 -6.28338e-13 0)
(664 -5.98437e-13 0)
(664 -5.29116e-13 0)
(664 -4.95222e-13 0)
(664 -4.90655e-13 0)
(664 -5.19971e-13 0)
(664 -6.55467e-13 0)
(664 -9.15198e-13 0)
(664 -1.22497e-12 0)
(664 -1.44931e-12 0)
(664 -1.53146e-12 0)
(664 -1.43462e-12 0)
(664 -1.21613e-12 0)
(664 -1.02211e-12 0)
(664 -8.53951e-13 0)
(664 -6.9708e-13 0)
(664 -6.38043e-13 0)
(664 -5.82316e-13 0)
(664 -5.32414e-13 0)
(664 -5.44674e-13 0)
(664 -6.0815e-13 0)
(664 -7.63339e-13 0)
(664 -1.04529e-12 0)
(664 -1.37161e-12 0)
(664 -1.62317e-12 0)
(664 -1.78156e-12 0)
(664 -1.83941e-12 0)
(664 -1.85597e-12 0)
(664 -1.91252e-12 0)
(664 -1.98884e-12 0)
(664 -1.92738e-12 0)
(664 -1.77299e-12 0)
(664 -1.55127e-12 0)
(664 -1.45361e-12 0)
(664 -1.42935e-12 0)
(664 -1.38e-12 0)
(664 -1.32238e-12 0)
(664 -1.19e-12 0)
(664 -1.00256e-12 0)
(664 -8.19884e-13 0)
(664 -6.55455e-13 0)
(664 -5.9426e-13 0)
(664 -5.72298e-13 0)
(664 -6.41332e-13 0)
(664 -7.76078e-13 0)
(664 -8.80708e-13 0)
(664 -9.90947e-13 0)
(664 -1.09922e-12 0)
(664 -1.2482e-12 0)
(664 -1.40821e-12 0)
(664 -1.62347e-12 0)
(664 -1.91273e-12 0)
(664 -2.12357e-12 0)
(664 -2.0935e-12 0)
(664 -1.92425e-12 0)
(664 -1.66727e-12 0)
(664 -1.36012e-12 0)
(664 -1.03505e-12 0)
(664 -6.43607e-13 0)
(664 -9.52824e-14 0)
(664 6.51497e-13 0)
(664 1.83807e-12 0)
(664 3.76786e-12 0)
(664 6.83106e-12 0)
(664 1.1759e-11 0)
(664 1.99064e-11 0)
(664 3.35265e-11 0)
(664 5.61891e-11 0)
(664 9.37325e-11 0)
(664 1.55965e-10 0)
(664 2.59313e-10 0)
(664 4.31162e-10 0)
(664 7.17063e-10 0)
(664 1.19309e-09 0)
(664 1.98613e-09 0)
(664 3.30794e-09 0)
(664 5.51267e-09 0)
(664 9.193e-09 0)
(664 1.53416e-08 0)
(664 2.56222e-08 0)
(664 4.2826e-08 0)
(664 7.16408e-08 0)
(664 1.19948e-07 0)
(664 2.0101e-07 0)
(664 3.37176e-07 0)
(664 5.66145e-07 0)
(664 9.51588e-07 0)
(664 1.60118e-06 0)
(664 2.69726e-06 0)
(664 4.54903e-06 0)
(664 7.68157e-06 0)
(664 1.29879e-05 0)
(663.999 2.1989e-05 0)
(663.999 3.72802e-05 0)
(663.999 6.32962e-05 0)
(663.998 0.000107629 0)
(663.996 0.000183297 0)
(663.994 0.000312668 0)
(663.99 0.000534237 0)
(663.983 0.00091439 0)
(663.972 0.00156783 0)
(663.954 0.00269313 0)
(663.924 0.00463476 0)
(663.875 0.00799153 0)
(663.794 0.0138065 0)
(663.66 0.0239005 0)
(663.438 0.0414582 0)
(663.072 0.0720648 0)
(662.466 0.125528 0)
(661.462 0.219139 0)
(659.797 0.383365 0)
(657.035 0.672335 0)
(652.449 1.18145 0)
(644.854 2.08262 0)
(632.299 3.67414 0)
(611.875 6.51 0)
(579.819 11.4628 0)
(664 1.95053e-14 0)
(664 6.48513e-14 0)
(664 8.31714e-14 0)
(664 3.90667e-14 0)
(664 -3.90741e-14 0)
(664 -8.78358e-14 0)
(664 -9.13605e-14 0)
(664 -4.01343e-14 0)
(664 -1.70599e-14 0)
(664 -3.18517e-14 0)
(664 -8.17663e-14 0)
(664 -1.60365e-13 0)
(664 -2.9581e-13 0)
(664 -3.92055e-13 0)
(664 -3.96819e-13 0)
(664 -3.96048e-13 0)
(664 -4.25641e-13 0)
(664 -5.71147e-13 0)
(664 -7.7954e-13 0)
(664 -9.11295e-13 0)
(664 -9.74052e-13 0)
(664 -1.0149e-12 0)
(664 -1.02833e-12 0)
(664 -9.96061e-13 0)
(664 -9.74516e-13 0)
(664 -9.70758e-13 0)
(664 -9.46693e-13 0)
(664 -8.74609e-13 0)
(664 -7.66774e-13 0)
(664 -6.18128e-13 0)
(664 -4.93265e-13 0)
(664 -4.14508e-13 0)
(664 -3.86431e-13 0)
(664 -3.53756e-13 0)
(664 -2.52827e-13 0)
(664 -1.6871e-13 0)
(664 -1.51912e-13 0)
(664 -1.44179e-13 0)
(664 -1.6027e-13 0)
(664 -2.30657e-13 0)
(664 -2.18792e-13 0)
(664 -1.60372e-13 0)
(664 -1.71941e-13 0)
(664 -2.14264e-13 0)
(664 -3.33954e-13 0)
(664 -4.70912e-13 0)
(664 -5.66623e-13 0)
(664 -6.82334e-13 0)
(664 -7.90394e-13 0)
(664 -8.87963e-13 0)
(664 -9.22573e-13 0)
(664 -8.68857e-13 0)
(664 -8.2725e-13 0)
(664 -7.64333e-13 0)
(664 -7.47072e-13 0)
(664 -7.71818e-13 0)
(664 -7.92139e-13 0)
(664 -7.39591e-13 0)
(664 -6.93759e-13 0)
(664 -7.43969e-13 0)
(664 -8.90652e-13 0)
(664 -1.12322e-12 0)
(664 -1.2732e-12 0)
(664 -1.20101e-12 0)
(664 -9.82891e-13 0)
(664 -8.14217e-13 0)
(664 -7.3728e-13 0)
(664 -6.58761e-13 0)
(664 -6.78586e-13 0)
(664 -7.52525e-13 0)
(664 -7.91118e-13 0)
(664 -8.39955e-13 0)
(664 -9.02114e-13 0)
(664 -9.21973e-13 0)
(664 -9.60267e-13 0)
(664 -9.64765e-13 0)
(664 -9.57064e-13 0)
(664 -9.23057e-13 0)
(664 -8.86498e-13 0)
(664 -8.37372e-13 0)
(664 -8.21812e-13 0)
(664 -8.65035e-13 0)
(664 -9.95377e-13 0)
(664 -1.10474e-12 0)
(664 -1.15721e-12 0)
(664 -1.14699e-12 0)
(664 -1.17416e-12 0)
(664 -1.18968e-12 0)
(664 -1.22147e-12 0)
(664 -1.28677e-12 0)
(664 -1.38546e-12 0)
(664 -1.49846e-12 0)
(664 -1.58791e-12 0)
(664 -1.67721e-12 0)
(664 -1.75316e-12 0)
(664 -1.79231e-12 0)
(664 -1.74012e-12 0)
(664 -1.58215e-12 0)
(664 -1.4313e-12 0)
(664 -1.30922e-12 0)
(664 -1.24611e-12 0)
(664 -1.1904e-12 0)
(664 -1.1455e-12 0)
(664 -1.12942e-12 0)
(664 -1.1085e-12 0)
(664 -1.05341e-12 0)
(664 -9.46277e-13 0)
(664 -9.25448e-13 0)
(664 -9.89057e-13 0)
(664 -1.09109e-12 0)
(664 -1.2208e-12 0)
(664 -1.31333e-12 0)
(664 -1.34388e-12 0)
(664 -1.39967e-12 0)
(664 -1.45302e-12 0)
(664 -1.50283e-12 0)
(664 -1.50582e-12 0)
(664 -1.45046e-12 0)
(664 -1.36648e-12 0)
(664 -1.2757e-12 0)
(664 -1.18078e-12 0)
(664 -1.11843e-12 0)
(664 -1.11804e-12 0)
(664 -1.15453e-12 0)
(664 -1.12726e-12 0)
(664 -1.00383e-12 0)
(664 -7.4932e-13 0)
(664 -5.61703e-13 0)
(664 -4.49332e-13 0)
(664 -3.92361e-13 0)
(664 -4.367e-13 0)
(664 -5.02919e-13 0)
(664 -5.89434e-13 0)
(664 -7.25422e-13 0)
(664 -7.81337e-13 0)
(664 -7.43302e-13 0)
(664 -8.17079e-13 0)
(664 -9.85863e-13 0)
(664 -1.09404e-12 0)
(664 -1.07859e-12 0)
(664 -1.05723e-12 0)
(664 -1.06675e-12 0)
(664 -1.04838e-12 0)
(664 -9.80165e-13 0)
(664 -9.00107e-13 0)
(664 -8.82952e-13 0)
(664 -9.77403e-13 0)
(664 -1.09028e-12 0)
(664 -1.19347e-12 0)
(664 -1.22509e-12 0)
(664 -1.22639e-12 0)
(664 -1.28722e-12 0)
(664 -1.42105e-12 0)
(664 -1.51188e-12 0)
(664 -1.50679e-12 0)
(664 -1.51337e-12 0)
(664 -1.44838e-12 0)
(664 -1.30255e-12 0)
(664 -1.15119e-12 0)
(664 -1.00825e-12 0)
(664 -9.54237e-13 0)
(664 -9.87366e-13 0)
(664 -1.08321e-12 0)
(664 -1.13935e-12 0)
(664 -1.17406e-12 0)
(664 -1.20562e-12 0)
(664 -1.2576e-12 0)
(664 -1.2188e-12 0)
(664 -1.09103e-12 0)
(664 -1.04785e-12 0)
(664 -1.03466e-12 0)
(664 -1.051e-12 0)
(664 -1.19695e-12 0)
(664 -1.38788e-12 0)
(664 -1.43608e-12 0)
(664 -1.28644e-12 0)
(664 -1.16919e-12 0)
(664 -1.06666e-12 0)
(664 -9.73827e-13 0)
(664 -9.62693e-13 0)
(664 -1.03221e-12 0)
(664 -1.15487e-12 0)
(664 -1.31559e-12 0)
(664 -1.44134e-12 0)
(664 -1.46748e-12 0)
(664 -1.43318e-12 0)
(664 -1.49279e-12 0)
(664 -1.63765e-12 0)
(664 -1.77646e-12 0)
(664 -2.0307e-12 0)
(664 -2.31986e-12 0)
(664 -2.50296e-12 0)
(664 -2.49523e-12 0)
(664 -2.40013e-12 0)
(664 -2.2728e-12 0)
(664 -2.1497e-12 0)
(664 -1.98932e-12 0)
(664 -1.75413e-12 0)
(664 -1.54804e-12 0)
(664 -1.47562e-12 0)
(664 -1.40677e-12 0)
(664 -1.26145e-12 0)
(664 -1.08367e-12 0)
(664 -9.14112e-13 0)
(664 -7.66999e-13 0)
(664 -7.07516e-13 0)
(664 -8.04576e-13 0)
(664 -1.01009e-12 0)
(664 -1.19812e-12 0)
(664 -1.34617e-12 0)
(664 -1.48876e-12 0)
(664 -1.56333e-12 0)
(664 -1.47502e-12 0)
(664 -1.21477e-12 0)
(664 -8.75421e-13 0)
(664 -7.23073e-13 0)
(664 -7.456e-13 0)
(664 -8.1656e-13 0)
(664 -9.01046e-13 0)
(664 -9.63816e-13 0)
(664 -9.75902e-13 0)
(664 -9.35464e-13 0)
(664 -8.54022e-13 0)
(664 -7.72599e-13 0)
(664 -8.46309e-13 0)
(664 -9.79472e-13 0)
(664 -1.04188e-12 0)
(664 -1.07599e-12 0)
(664 -1.12925e-12 0)
(664 -1.13472e-12 0)
(664 -1.05207e-12 0)
(664 -9.58883e-13 0)
(664 -7.97478e-13 0)
(664 -5.92694e-13 0)
(664 -4.89076e-13 0)
(664 -5.1528e-13 0)
(664 -5.2847e-13 0)
(664 -4.6164e-13 0)
(664 -2.51468e-13 0)
(664 1.10909e-13 0)
(664 6.44854e-13 0)
(664 1.39413e-12 0)
(664 2.4495e-12 0)
(664 4.15623e-12 0)
(664 7.01462e-12 0)
(664 1.18486e-11 0)
(664 1.99734e-11 0)
(664 3.36026e-11 0)
(664 5.61888e-11 0)
(664 9.37442e-11 0)
(664 1.56147e-10 0)
(664 2.59663e-10 0)
(664 4.31135e-10 0)
(664 7.15217e-10 0)
(664 1.1862e-09 0)
(664 1.96762e-09 0)
(664 3.26502e-09 0)
(664 5.41986e-09 0)
(664 9.00018e-09 0)
(664 1.49521e-08 0)
(664 2.4852e-08 0)
(664 4.1328e-08 0)
(664 6.87639e-08 0)
(664 1.14478e-07 0)
(664 1.90693e-07 0)
(664 3.17841e-07 0)
(664 5.30098e-07 0)
(664 8.84673e-07 0)
(664 1.4774e-06 0)
(664 2.46896e-06 0)
(664 4.12894e-06 0)
(664 6.91008e-06 0)
(664 1.15733e-05 0)
(664 1.93988e-05 0)
(664 3.25418e-05 0)
(664 5.46354e-05 0)
(663.999 9.1808e-05 0)
(663.999 0.000154409 0)
(663.998 0.000259935 0)
(663.997 0.000437992 0)
(663.995 0.000738736 0)
(663.991 0.00124723 0)
(663.985 0.00210789 0)
(663.976 0.00356622 0)
(663.961 0.00603999 0)
(663.937 0.0102411 0)
(663.898 0.0173838 0)
(663.834 0.0295423 0)
(663.729 0.0502638 0)
(663.56 0.0856214 0)
(663.284 0.146028 0)
(662.837 0.249352 0)
(662.112 0.426308 0)
(660.939 0.729665 0)
(659.045 1.25039 0)
(655.999 2.1443 0)
(651.121 3.68061 0)
(643.404 6.31026 0)
(631.314 10.8078 0)
(613.718 18.3232 0)
(664 2.32541e-16 0)
(664 -1.84988e-14 0)
(664 -2.30143e-14 0)
(664 -3.72013e-14 0)
(664 2.33808e-14 0)
(664 4.14789e-14 0)
(664 -2.35835e-14 0)
(664 -1.06135e-13 0)
(664 -1.4214e-13 0)
(664 -1.81865e-13 0)
(664 -1.90769e-13 0)
(664 -1.5236e-13 0)
(664 -8.90111e-14 0)
(664 -1.16231e-13 0)
(664 -2.23223e-13 0)
(664 -2.83654e-13 0)
(664 -3.2853e-13 0)
(664 -3.49078e-13 0)
(664 -3.86487e-13 0)
(664 -4.59911e-13 0)
(664 -5.60284e-13 0)
(664 -6.85911e-13 0)
(664 -8.24607e-13 0)
(664 -8.81835e-13 0)
(664 -8.52938e-13 0)
(664 -7.54988e-13 0)
(664 -6.38163e-13 0)
(664 -5.69773e-13 0)
(664 -5.64534e-13 0)
(664 -5.81667e-13 0)
(664 -5.77089e-13 0)
(664 -5.81362e-13 0)
(664 -6.07391e-13 0)
(664 -5.70531e-13 0)
(664 -5.67759e-13 0)
(664 -6.44553e-13 0)
(664 -7.34514e-13 0)
(664 -7.79795e-13 0)
(664 -7.9161e-13 0)
(664 -7.31743e-13 0)
(664 -6.62855e-13 0)
(664 -6.61184e-13 0)
(664 -6.37483e-13 0)
(664 -6.02479e-13 0)
(664 -6.428e-13 0)
(664 -7.64222e-13 0)
(664 -8.16328e-13 0)
(664 -7.61197e-13 0)
(664 -7.24868e-13 0)
(664 -7.2106e-13 0)
(664 -7.13722e-13 0)
(664 -7.16947e-13 0)
(664 -7.54591e-13 0)
(664 -8.69934e-13 0)
(664 -1.0496e-12 0)
(664 -1.2217e-12 0)
(664 -1.21357e-12 0)
(664 -1.05491e-12 0)
(664 -8.20712e-13 0)
(664 -6.09358e-13 0)
(664 -5.62745e-13 0)
(664 -6.38166e-13 0)
(664 -6.65434e-13 0)
(664 -6.71431e-13 0)
(664 -6.42689e-13 0)
(664 -5.60396e-13 0)
(664 -3.901e-13 0)
(664 -2.40044e-13 0)
(664 -1.7197e-13 0)
(664 -1.96968e-13 0)
(664 -3.1773e-13 0)
(664 -4.35634e-13 0)
(664 -4.78599e-13 0)
(664 -4.80677e-13 0)
(664 -4.96598e-13 0)
(664 -4.8958e-13 0)
(664 -4.06107e-13 0)
(664 -2.75529e-13 0)
(664 -1.64349e-13 0)
(664 -1.01618e-13 0)
(664 -1.15551e-13 0)
(664 -2.61502e-13 0)
(664 -4.29382e-13 0)
(664 -5.49947e-13 0)
(664 -6.4265e-13 0)
(664 -8.42417e-13 0)
(664 -1.10833e-12 0)
(664 -1.27073e-12 0)
(664 -1.29498e-12 0)
(664 -1.24613e-12 0)
(664 -1.22436e-12 0)
(664 -1.18688e-12 0)
(664 -1.14978e-12 0)
(664 -1.1385e-12 0)
(664 -1.09918e-12 0)
(664 -1.04714e-12 0)
(664 -9.65069e-13 0)
(664 -8.90559e-13 0)
(664 -9.0255e-13 0)
(664 -9.03533e-13 0)
(664 -8.75515e-13 0)
(664 -8.79874e-13 0)
(664 -9.17906e-13 0)
(664 -8.88886e-13 0)
(664 -8.91754e-13 0)
(664 -9.00132e-13 0)
(664 -8.83009e-13 0)
(664 -8.99646e-13 0)
(664 -9.17901e-13 0)
(664 -9.44856e-13 0)
(664 -9.33819e-13 0)
(664 -9.07352e-13 0)
(664 -9.03833e-13 0)
(664 -9.122e-13 0)
(664 -9.05577e-13 0)
(664 -9.109e-13 0)
(664 -8.93218e-13 0)
(664 -8.78639e-13 0)
(664 -8.83735e-13 0)
(664 -8.13436e-13 0)
(664 -6.7495e-13 0)
(664 -6.26104e-13 0)
(664 -6.72584e-13 0)
(664 -6.78678e-13 0)
(664 -7.21495e-13 0)
(664 -8.726e-13 0)
(664 -1.05195e-12 0)
(664 -1.22391e-12 0)
(664 -1.35844e-12 0)
(664 -1.43175e-12 0)
(664 -1.49595e-12 0)
(664 -1.51976e-12 0)
(664 -1.43945e-12 0)
(664 -1.38196e-12 0)
(664 -1.38566e-12 0)
(664 -1.3774e-12 0)
(664 -1.40758e-12 0)
(664 -1.44659e-12 0)
(664 -1.39795e-12 0)
(664 -1.29536e-12 0)
(664 -1.13272e-12 0)
(664 -1.00633e-12 0)
(664 -9.55615e-13 0)
(664 -9.6349e-13 0)
(664 -1.0772e-12 0)
(664 -1.28777e-12 0)
(664 -1.44453e-12 0)
(664 -1.55678e-12 0)
(664 -1.59667e-12 0)
(664 -1.52879e-12 0)
(664 -1.40077e-12 0)
(664 -1.25133e-12 0)
(664 -1.07199e-12 0)
(664 -9.47426e-13 0)
(664 -9.05199e-13 0)
(664 -9.71682e-13 0)
(664 -1.06125e-12 0)
(664 -1.08162e-12 0)
(664 -1.06155e-12 0)
(664 -1.00464e-12 0)
(664 -9.42457e-13 0)
(664 -9.80955e-13 0)
(664 -1.106e-12 0)
(664 -1.20317e-12 0)
(664 -1.20154e-12 0)
(664 -1.12384e-12 0)
(664 -1.05284e-12 0)
(664 -1.05733e-12 0)
(664 -1.03669e-12 0)
(664 -9.67526e-13 0)
(664 -9.24418e-13 0)
(664 -8.5383e-13 0)
(664 -7.45018e-13 0)
(664 -6.60938e-13 0)
(664 -6.60204e-13 0)
(664 -6.92525e-13 0)
(664 -7.51508e-13 0)
(664 -8.53276e-13 0)
(664 -1.03622e-12 0)
(664 -1.21656e-12 0)
(664 -1.32445e-12 0)
(664 -1.34546e-12 0)
(664 -1.3086e-12 0)
(664 -1.26498e-12 0)
(664 -1.26999e-12 0)
(664 -1.22224e-12 0)
(664 -1.01126e-12 0)
(664 -7.50249e-13 0)
(664 -5.93129e-13 0)
(664 -5.31756e-13 0)
(664 -4.75929e-13 0)
(664 -4.44602e-13 0)
(664 -4.49002e-13 0)
(664 -4.69069e-13 0)
(664 -5.09118e-13 0)
(664 -5.96364e-13 0)
(664 -6.69087e-13 0)
(664 -7.57716e-13 0)
(664 -9.19467e-13 0)
(664 -1.08438e-12 0)
(664 -1.27017e-12 0)
(664 -1.37501e-12 0)
(664 -1.41944e-12 0)
(664 -1.44305e-12 0)
(664 -1.36898e-12 0)
(664 -1.13165e-12 0)
(664 -8.02732e-13 0)
(664 -5.36907e-13 0)
(664 -4.15229e-13 0)
(664 -4.30003e-13 0)
(664 -5.43708e-13 0)
(664 -6.50757e-13 0)
(664 -6.72826e-13 0)
(664 -6.31429e-13 0)
(664 -6.94431e-13 0)
(664 -8.64053e-13 0)
(664 -9.62658e-13 0)
(664 -1.00618e-12 0)
(664 -1.10891e-12 0)
(664 -1.22062e-12 0)
(664 -1.29245e-12 0)
(664 -1.36113e-12 0)
(664 -1.4367e-12 0)
(664 -1.58373e-12 0)
(664 -1.78752e-12 0)
(664 -1.91735e-12 0)
(664 -1.87133e-12 0)
(664 -1.71479e-12 0)
(664 -1.48701e-12 0)
(664 -1.20782e-12 0)
(664 -9.62803e-13 0)
(664 -7.12413e-13 0)
(664 -4.21207e-13 0)
(664 -9.72144e-14 0)
(664 1.34445e-13 0)
(664 2.60112e-13 0)
(664 2.43624e-13 0)
(664 2.23086e-13 0)
(664 2.13645e-13 0)
(664 3.45368e-13 0)
(664 8.2581e-13 0)
(664 1.77374e-12 0)
(664 3.30101e-12 0)
(664 5.83986e-12 0)
(664 1.00921e-11 0)
(664 1.71444e-11 0)
(664 2.89568e-11 0)
(664 4.8669e-11 0)
(664 8.13814e-11 0)
(664 1.35415e-10 0)
(664 2.24802e-10 0)
(664 3.72541e-10 0)
(664 6.1641e-10 0)
(664 1.01892e-09 0)
(664 1.6836e-09 0)
(664 2.78172e-09 0)
(664 4.59638e-09 0)
(664 7.59595e-09 0)
(664 1.25557e-08 0)
(664 2.07591e-08 0)
(664 3.43308e-08 0)
(664 5.67902e-08 0)
(664 9.39683e-08 0)
(664 1.55529e-07 0)
(664 2.57492e-07 0)
(664 4.26423e-07 0)
(664 7.06381e-07 0)
(664 1.17047e-06 0)
(664 1.94001e-06 0)
(664 3.2164e-06 0)
(664 5.33402e-06 0)
(664 8.84822e-06 0)
(664 1.46816e-05 0)
(664 2.43669e-05 0)
(664 4.04514e-05 0)
(664 6.71692e-05 0)
(663.999 0.000111558 0)
(663.999 0.00018532 0)
(663.998 0.00030791 0)
(663.997 0.000511677 0)
(663.996 0.000850409 0)
(663.993 0.00141354 0)
(663.989 0.00234973 0)
(663.982 0.00390611 0)
(663.971 0.00649332 0)
(663.953 0.0107935 0)
(663.923 0.0179393 0)
(663.876 0.0298104 0)
(663.801 0.0495236 0)
(663.68 0.0822431 0)
(663.485 0.136515 0)
(663.173 0.226461 0)
(662.673 0.375373 0)
(661.876 0.621584 0)
(660.606 1.02791 0)
(658.592 1.69691 0)
(655.41 2.79416 0)
(650.44 4.58511 0)
(642.712 7.47767 0)
(631.467 12.0911 0)
(664 -1.7363e-14 0)
(664 -3.26463e-14 0)
(664 -2.33658e-14 0)
(664 1.56772e-14 0)
(664 4.21611e-14 0)
(664 1.29963e-14 0)
(664 -7.44108e-14 0)
(664 -1.89477e-13 0)
(664 -2.77062e-13 0)
(664 -3.10526e-13 0)
(664 -2.66054e-13 0)
(664 -2.24122e-13 0)
(664 -1.75596e-13 0)
(664 -1.83836e-13 0)
(664 -2.24445e-13 0)
(664 -2.27455e-13 0)
(664 -2.23812e-13 0)
(664 -1.46317e-13 0)
(664 -6.18524e-14 0)
(664 -4.45929e-14 0)
(664 -1.38843e-13 0)
(664 -1.94777e-13 0)
(664 -1.42228e-13 0)
(664 -5.63274e-14 0)
(664 2.87111e-14 0)
(664 -1.178e-14 0)
(664 -7.42983e-14 0)
(664 -1.27461e-13 0)
(664 -2.27466e-13 0)
(664 -4.05182e-13 0)
(664 -4.84565e-13 0)
(664 -4.83132e-13 0)
(664 -4.60211e-13 0)
(664 -4.42058e-13 0)
(664 -3.46678e-13 0)
(664 -1.73012e-13 0)
(664 3.79812e-15 0)
(664 1.23682e-13 0)
(664 1.74681e-13 0)
(664 1.02106e-13 0)
(664 -4.37673e-14 0)
(664 -1.61032e-13 0)
(664 -1.80718e-13 0)
(664 -1.99767e-13 0)
(664 -3.08607e-13 0)
(664 -4.22023e-13 0)
(664 -4.34446e-13 0)
(664 -4.37717e-13 0)
(664 -4.96516e-13 0)
(664 -5.8999e-13 0)
(664 -6.96631e-13 0)
(664 -7.7788e-13 0)
(664 -8.38126e-13 0)
(664 -9.24738e-13 0)
(664 -1.03381e-12 0)
(664 -1.04016e-12 0)
(664 -1.00681e-12 0)
(664 -1.01953e-12 0)
(664 -1.07484e-12 0)
(664 -1.08701e-12 0)
(664 -1.0005e-12 0)
(664 -8.01695e-13 0)
(664 -6.34721e-13 0)
(664 -6.27084e-13 0)
(664 -7.92195e-13 0)
(664 -9.26309e-13 0)
(664 -9.49635e-13 0)
(664 -9.11679e-13 0)
(664 -8.47421e-13 0)
(664 -8.37432e-13 0)
(664 -8.18826e-13 0)
(664 -8.04689e-13 0)
(664 -7.3145e-13 0)
(664 -6.79173e-13 0)
(664 -6.47798e-13 0)
(664 -7.26564e-13 0)
(664 -8.71235e-13 0)
(664 -1.05995e-12 0)
(664 -1.15607e-12 0)
(664 -1.21748e-12 0)
(664 -1.26254e-12 0)
(664 -1.25072e-12 0)
(664 -1.23177e-12 0)
(664 -1.19428e-12 0)
(664 -1.16998e-12 0)
(664 -1.18792e-12 0)
(664 -1.1437e-12 0)
(664 -9.99717e-13 0)
(664 -8.86421e-13 0)
(664 -8.36802e-13 0)
(664 -8.11734e-13 0)
(664 -7.47624e-13 0)
(664 -7.27494e-13 0)
(664 -7.06992e-13 0)
(664 -7.7684e-13 0)
(664 -8.79694e-13 0)
(664 -1.01922e-12 0)
(664 -1.19177e-12 0)
(664 -1.26023e-12 0)
(664 -1.20899e-12 0)
(664 -1.13326e-12 0)
(664 -1.04898e-12 0)
(664 -9.59338e-13 0)
(664 -8.76002e-13 0)
(664 -7.94101e-13 0)
(664 -7.72113e-13 0)
(664 -8.82059e-13 0)
(664 -1.0468e-12 0)
(664 -1.18568e-12 0)
(664 -1.25105e-12 0)
(664 -1.22618e-12 0)
(664 -1.18641e-12 0)
(664 -1.20429e-12 0)
(664 -1.23193e-12 0)
(664 -1.20143e-12 0)
(664 -1.04322e-12 0)
(664 -8.95907e-13 0)
(664 -8.07396e-13 0)
(664 -8.14145e-13 0)
(664 -9.26842e-13 0)
(664 -1.0861e-12 0)
(664 -1.20716e-12 0)
(664 -1.16575e-12 0)
(664 -1.05678e-12 0)
(664 -9.26544e-13 0)
(664 -7.93806e-13 0)
(664 -7.25547e-13 0)
(664 -7.18555e-13 0)
(664 -8.00808e-13 0)
(664 -8.51165e-13 0)
(664 -8.97382e-13 0)
(664 -9.76116e-13 0)
(664 -1.11516e-12 0)
(664 -1.31703e-12 0)
(664 -1.60903e-12 0)
(664 -1.82805e-12 0)
(664 -1.78064e-12 0)
(664 -1.57126e-12 0)
(664 -1.38996e-12 0)
(664 -1.36698e-12 0)
(664 -1.35828e-12 0)
(664 -1.29616e-12 0)
(664 -1.28942e-12 0)
(664 -1.29485e-12 0)
(664 -1.29755e-12 0)
(664 -1.25416e-12 0)
(664 -1.12668e-12 0)
(664 -9.91132e-13 0)
(664 -8.73314e-13 0)
(664 -8.10837e-13 0)
(664 -8.29083e-13 0)
(664 -8.53987e-13 0)
(664 -9.41425e-13 0)
(664 -1.09647e-12 0)
(664 -1.23914e-12 0)
(664 -1.29206e-12 0)
(664 -1.28538e-12 0)
(664 -1.28444e-12 0)
(664 -1.29659e-12 0)
(664 -1.31235e-12 0)
(664 -1.29431e-12 0)
(664 -1.28865e-12 0)
(664 -1.24019e-12 0)
(664 -1.19424e-12 0)
(664 -1.19856e-12 0)
(664 -1.11702e-12 0)
(664 -1.01502e-12 0)
(664 -1.06867e-12 0)
(664 -1.26085e-12 0)
(664 -1.42626e-12 0)
(664 -1.52192e-12 0)
(664 -1.55611e-12 0)
(664 -1.6055e-12 0)
(664 -1.74318e-12 0)
(664 -1.88344e-12 0)
(664 -2.03556e-12 0)
(664 -2.22769e-12 0)
(664 -2.3955e-12 0)
(664 -2.48761e-12 0)
(664 -2.54479e-12 0)
(664 -2.61422e-12 0)
(664 -2.63528e-12 0)
(664 -2.55161e-12 0)
(664 -2.41801e-12 0)
(664 -2.31098e-12 0)
(664 -2.19547e-12 0)
(664 -2.02377e-12 0)
(664 -1.79931e-12 0)
(664 -1.51839e-12 0)
(664 -1.22509e-12 0)
(664 -1.09213e-12 0)
(664 -1.03184e-12 0)
(664 -9.3907e-13 0)
(664 -8.26784e-13 0)
(664 -7.69682e-13 0)
(664 -7.78094e-13 0)
(664 -8.49083e-13 0)
(664 -9.86914e-13 0)
(664 -1.08554e-12 0)
(664 -1.05113e-12 0)
(664 -9.94598e-13 0)
(664 -1.06675e-12 0)
(664 -1.15637e-12 0)
(664 -1.22313e-12 0)
(664 -1.25976e-12 0)
(664 -1.3044e-12 0)
(664 -1.29908e-12 0)
(664 -1.1989e-12 0)
(664 -1.13181e-12 0)
(664 -1.03257e-12 0)
(664 -8.97473e-13 0)
(664 -8.00176e-13 0)
(664 -7.64302e-13 0)
(664 -8.61754e-13 0)
(664 -9.914e-13 0)
(664 -1.09349e-12 0)
(664 -1.11805e-12 0)
(664 -1.01656e-12 0)
(664 -8.64299e-13 0)
(664 -7.65405e-13 0)
(664 -6.2584e-13 0)
(664 -4.18225e-13 0)
(664 -2.22455e-13 0)
(664 -1.01718e-13 0)
(664 -6.06609e-14 0)
(664 -9.49907e-14 0)
(664 -1.96698e-13 0)
(664 -2.60621e-13 0)
(664 -2.58758e-13 0)
(664 -2.55245e-13 0)
(664 -2.77446e-13 0)
(664 -3.11232e-13 0)
(664 -3.49397e-13 0)
(664 -4.74181e-13 0)
(664 -5.89679e-13 0)
(664 -6.37621e-13 0)
(664 -6.25737e-13 0)
(664 -5.47654e-13 0)
(664 -3.72927e-13 0)
(664 -5.70474e-16 0)
(664 6.65109e-13 0)
(664 1.82962e-12 0)
(664 3.81008e-12 0)
(664 7.02523e-12 0)
(664 1.2307e-11 0)
(664 2.09307e-11 0)
(664 3.49059e-11 0)
(664 5.77895e-11 0)
(664 9.53957e-11 0)
(664 1.5718e-10 0)
(664 2.58576e-10 0)
(664 4.25097e-10 0)
(664 6.98821e-10 0)
(664 1.14885e-09 0)
(664 1.88898e-09 0)
(664 3.10615e-09 0)
(664 5.10754e-09 0)
(664 8.39876e-09 0)
(664 1.38116e-08 0)
(664 2.27143e-08 0)
(664 3.73578e-08 0)
(664 6.14454e-08 0)
(664 1.0107e-07 0)
(664 1.66257e-07 0)
(664 2.73502e-07 0)
(664 4.49941e-07 0)
(664 7.40226e-07 0)
(664 1.21781e-06 0)
(664 2.00355e-06 0)
(664 3.29623e-06 0)
(664 5.4228e-06 0)
(664 8.92097e-06 0)
(664 1.46749e-05 0)
(664 2.41382e-05 0)
(664 3.96998e-05 0)
(664 6.52856e-05 0)
(664 0.000107344 0)
(663.999 0.000176466 0)
(663.999 0.000290033 0)
(663.998 0.000476567 0)
(663.997 0.000782837 0)
(663.995 0.0012855 0)
(663.992 0.0021101 0)
(663.987 0.00346212 0)
(663.979 0.00567757 0)
(663.966 0.00930543 0)
(663.946 0.0152416 0)
(663.913 0.0249464 0)
(663.861 0.0407971 0)
(663.779 0.0666571 0)
(663.647 0.108794 0)
(663.439 0.177353 0)
(663.108 0.288714 0)
(662.584 0.469245 0)
(661.755 0.761162 0)
(660.451 1.23186 0)
(658.403 1.9874 0)
(655.213 3.19464 0)
(650.244 5.10341 0)
(642.951 8.0974 0)
(664 1.95051e-14 0)
(664 6.45843e-14 0)
(664 1.0588e-13 0)
(664 1.14325e-13 0)
(664 8.57194e-14 0)
(664 3.71499e-14 0)
(664 4.9225e-14 0)
(664 1.14526e-13 0)
(664 1.7221e-13 0)
(664 2.09519e-13 0)
(664 1.4187e-13 0)
(664 3.20511e-14 0)
(664 -1.87258e-14 0)
(664 3.52532e-14 0)
(664 1.30956e-13 0)
(664 1.6114e-13 0)
(664 1.26185e-13 0)
(664 4.64351e-14 0)
(664 -2.85853e-14 0)
(664 -6.08482e-15 0)
(664 1.71236e-13 0)
(664 3.7403e-13 0)
(664 4.61952e-13 0)
(664 4.41025e-13 0)
(664 2.78921e-13 0)
(664 1.86079e-14 0)
(664 -2.46822e-13 0)
(664 -4.03056e-13 0)
(664 -4.02902e-13 0)
(664 -3.7405e-13 0)
(664 -3.53315e-13 0)
(664 -3.10071e-13 0)
(664 -2.46172e-13 0)
(664 -2.34949e-13 0)
(664 -1.73005e-13 0)
(664 -6.74157e-14 0)
(664 4.16088e-14 0)
(664 1.22044e-13 0)
(664 1.55932e-13 0)
(664 8.83245e-14 0)
(664 -3.80118e-14 0)
(664 -1.00808e-13 0)
(664 -1.74845e-13 0)
(664 -3.0873e-13 0)
(664 -4.31222e-13 0)
(664 -4.97197e-13 0)
(664 -5.71784e-13 0)
(664 -6.98259e-13 0)
(664 -8.21981e-13 0)
(664 -9.15163e-13 0)
(664 -1.02353e-12 0)
(664 -1.10186e-12 0)
(664 -1.05412e-12 0)
(664 -9.67143e-13 0)
(664 -8.70841e-13 0)
(664 -7.38663e-13 0)
(664 -7.4687e-13 0)
(664 -8.17318e-13 0)
(664 -8.87082e-13 0)
(664 -9.31928e-13 0)
(664 -8.84626e-13 0)
(664 -8.40782e-13 0)
(664 -8.37227e-13 0)
(664 -8.6363e-13 0)
(664 -8.98771e-13 0)
(664 -9.36626e-13 0)
(664 -1.00765e-12 0)
(664 -1.04007e-12 0)
(664 -1.02328e-12 0)
(664 -8.7473e-13 0)
(664 -6.78751e-13 0)
(664 -4.87538e-13 0)
(664 -3.8905e-13 0)
(664 -3.4391e-13 0)
(664 -3.16264e-13 0)
(664 -2.54943e-13 0)
(664 -2.48226e-13 0)
(664 -3.17433e-13 0)
(664 -4.73633e-13 0)
(664 -6.28374e-13 0)
(664 -7.17598e-13 0)
(664 -6.95934e-13 0)
(664 -6.47195e-13 0)
(664 -7.09158e-13 0)
(664 -7.5789e-13 0)
(664 -7.02454e-13 0)
(664 -6.06801e-13 0)
(664 -5.61612e-13 0)
(664 -5.44209e-13 0)
(664 -5.43407e-13 0)
(664 -5.6475e-13 0)
(664 -6.8477e-13 0)
(664 -8.4575e-13 0)
(664 -1.03373e-12 0)
(664 -1.17591e-12 0)
(664 -1.25462e-12 0)
(664 -1.30741e-12 0)
(664 -1.31419e-12 0)
(664 -1.29888e-12 0)
(664 -1.30609e-12 0)
(664 -1.28884e-12 0)
(664 -1.27444e-12 0)
(664 -1.2133e-12 0)
(664 -1.1954e-12 0)
(664 -1.18029e-12 0)
(664 -1.1421e-12 0)
(664 -1.07838e-12 0)
(664 -1.05076e-12 0)
(664 -1.05276e-12 0)
(664 -9.72222e-13 0)
(664 -9.07487e-13 0)
(664 -8.96944e-13 0)
(664 -9.73209e-13 0)
(664 -1.00811e-12 0)
(664 -9.09046e-13 0)
(664 -8.36398e-13 0)
(664 -8.22601e-13 0)
(664 -8.81486e-13 0)
(664 -9.43462e-13 0)
(664 -1.01528e-12 0)
(664 -1.07983e-12 0)
(664 -1.04751e-12 0)
(664 -9.11471e-13 0)
(664 -7.2906e-13 0)
(664 -6.16818e-13 0)
(664 -5.98551e-13 0)
(664 -6.68031e-13 0)
(664 -7.00545e-13 0)
(664 -7.09085e-13 0)
(664 -7.44916e-13 0)
(664 -7.74221e-13 0)
(664 -8.59766e-13 0)
(664 -1.02657e-12 0)
(664 -1.15664e-12 0)
(664 -1.17664e-12 0)
(664 -1.15342e-12 0)
(664 -1.10915e-12 0)
(664 -1.04706e-12 0)
(664 -1.006e-12 0)
(664 -9.73351e-13 0)
(664 -1.01362e-12 0)
(664 -1.11197e-12 0)
(664 -1.20798e-12 0)
(664 -1.26551e-12 0)
(664 -1.31549e-12 0)
(664 -1.3612e-12 0)
(664 -1.48499e-12 0)
(664 -1.57118e-12 0)
(664 -1.61028e-12 0)
(664 -1.61692e-12 0)
(664 -1.51208e-12 0)
(664 -1.35406e-12 0)
(664 -1.20533e-12 0)
(664 -1.06325e-12 0)
(664 -9.76197e-13 0)
(664 -8.84309e-13 0)
(664 -7.01648e-13 0)
(664 -5.57432e-13 0)
(664 -4.84073e-13 0)
(664 -4.77946e-13 0)
(664 -5.06664e-13 0)
(664 -5.58155e-13 0)
(664 -6.08281e-13 0)
(664 -6.41687e-13 0)
(664 -7.33928e-13 0)
(664 -8.76087e-13 0)
(664 -9.98054e-13 0)
(664 -1.04146e-12 0)
(664 -1.09235e-12 0)
(664 -1.08548e-12 0)
(664 -1.01046e-12 0)
(664 -1.02092e-12 0)
(664 -1.13701e-12 0)
(664 -1.2094e-12 0)
(664 -1.23922e-12 0)
(664 -1.27502e-12 0)
(664 -1.31997e-12 0)
(664 -1.33771e-12 0)
(664 -1.36895e-12 0)
(664 -1.40494e-12 0)
(664 -1.49599e-12 0)
(664 -1.69843e-12 0)
(664 -1.95032e-12 0)
(664 -2.08697e-12 0)
(664 -2.07755e-12 0)
(664 -2.04502e-12 0)
(664 -1.98958e-12 0)
(664 -1.90437e-12 0)
(664 -1.70715e-12 0)
(664 -1.44092e-12 0)
(664 -1.10642e-12 0)
(664 -7.25306e-13 0)
(664 -4.19888e-13 0)
(664 -2.74603e-13 0)
(664 -2.97353e-13 0)
(664 -4.19561e-13 0)
(664 -5.86986e-13 0)
(664 -8.28761e-13 0)