/*--------------------------------*- C++ -*----------------------------------*\
| =========                 |                                                 |
| \\      /  F ield         | OpenFOAM: The Open Source CFD Toolbox           |
|  \\    /   O peration     | Version:  2412                                  |
|   \\  /    A nd           | Website:  www.openfoam.com                      |
|    \\/     M anipulation  |                                                 |
\*---------------------------------------------------------------------------*/
FoamFile
{
    version     2.0;
    format      ascii;
    arch        "LSB;label=32;scalar=64";
    class       volScalarField;
    location    "1";
    object      p;
}
// * * * * * * * * * * * * * * * * * * * * * * * * * * * * * * * * * * * * * //

dimensions      [1 -1 -2 0 0 0 0];

internalField   nonuniform List<scalar> 
5250
(
1
1.00001
1.00003
1.00009
1.00018
1.00052
1.00107
1.00306
1.00616
1.01832
1.03515
1.11781
1.21957
1.81722
2.97435
7.25477
12.5529
11.5847
11.2395
11.3735
11.6807
11.8987
12.0269
12.1189
12.1777
1
1.00001
1.00003
1.00009
1.00018
1.00052
1.00105
1.00302
1.00608
1.01805
1.03478
1.11562
1.21659
1.80022
2.93346
7.12056
12.5523
11.5894
11.2365
11.3692
11.6737
11.8894
12.0168
12.1095
12.1693
1
1.00001
1.00003
1.00008
1.00018
1.0005
1.00103
1.00294
1.00593
1.01751
1.0341
1.11113
1.21088
1.76508
2.84802
6.82795
12.5396
11.5919
11.2201
11.3453
11.6376
11.8461
11.9692
12.0597
12.1188
1
1.00001
1.00003
1.00008
1.00017
1.00048
1.00099
1.00283
1.00572
1.01677
1.033
1.10526
1.20242
1.71813
2.72946
6.40754
12.4852
11.5855
11.1877
11.2984
11.5684
11.767
11.8828
11.9694
12.0285
1
1.00001
1.00003
1.00008
1.00016
1.00046
1.00094
1.00269
1.00545
1.01593
1.03142
1.09932
1.19159
1.66911
2.59715
5.92267
12.3326
11.5513
11.1386
11.2292
11.4661
11.6543
11.7619
11.843
11.901
1
1.00001
1.00002
1.00007
1.00015
1.00043
1.00089
1.00253
1.00513
1.01497
1.0296
1.09303
1.17991
1.6223
2.47925
5.55892
11.9582
11.4511
11.0666
11.1328
11.3245
11.501
11.5978
11.6705
11.7283
1
1.00001
1.00002
1.00007
1.00014
1.0004
1.00081
1.00233
1.00472
1.01379
1.0273
1.0862
1.16466
1.57663
2.35768
5.18926
11.4459
11.2768
10.9685
11.0048
11.1415
11.3018
11.3816
11.4376
11.4834
1
1.00001
1.00002
1.00006
1.00012
1.00035
1.00072
1.00206
1.00416
1.0124
1.02349
1.07961
1.14272
1.52831
2.21567
4.8065
10.7989
11.0488
10.8831
10.853
10.923
11.0542
11.1031
11.1249
11.1364
1
1.00001
1.00002
1.00005
1.0001
1.0003
1.00061
1.00178
1.00353
1.01096
1.0198
1.07192
1.12241
1.47768
2.05344
4.4056
9.95763
10.8993
10.7562
10.6477
10.68
10.7506
10.7435
10.6952
10.5933
1
1.00001
1.00001
1.00004
1.00009
1.00025
1.00051
1.0015
1.0029
1.00939
1.01625
1.06217
1.10239
1.41905
1.88854
3.95205
8.9223
10.7914
10.6319
10.4185
10.4059
10.3904
10.3039
10.0908
9.68074
1
1
1.00001
1.00003
1.00009
1.00018
1.00052
1.00104
1.0032
1.00584
1.02068
1.03478
1.1357
1.2404
1.95327
3.26118
7.76918
10.7259
10.529
10.1979
10.1077
9.99744
9.73442
9.12321
7.54585
1
1
1.00001
1.00003
1.00006
1.00018
1.00037
1.00106
1.00208
1.00661
1.01155
1.04353
1.07163
1.28571
1.58655
2.94972
6.29749
10.5984
10.4153
10.0168
9.80826
9.60052
9.17874
8.34518
6.70213
1
1
1.00001
1.00003
1.00006
1.00016
1.00032
1.00092
1.00188
1.00545
1.01092
1.03336
1.06264
1.21573
1.43935
2.47021
4.80698
10.2303
10.1775
9.88761
9.52249
9.20757
8.69817
7.83494
6.49786
1
1
1.00001
1.00002
1.00004
1.00013
1.00026
1.00075
1.00152
1.00439
1.00881
1.02677
1.05001
1.1752
1.32893
2.215
3.94659
9.17629
9.85273
9.66086
9.25478
8.8545
8.32261
7.52457
6.45296
1
1
1.00001
1.00002
1.00004
1.0001
1.00021
1.00059
1.0012
1.00347
1.00683
1.02133
1.03822
1.14063
1.24831
1.97072
3.26192
7.59194
9.57101
9.42581
9.04728
8.56823
8.03551
7.32295
6.42885
1
1
1
1.00001
1.00003
1.00008
1.00017
1.00047
1.00096
1.00276
1.00559
1.0165
1.03213
1.10478
1.19708
1.7092
2.66513
5.91048
9.33424
9.24259
8.90972
8.35942
7.82081
7.17671
6.40395
1
1
1
1.00001
1.00002
1.00006
1.00013
1.00036
1.00074
1.0021
1.00427
1.01243
1.02482
1.0763
1.15087
1.49776
2.15736
4.34575
8.77574
8.99292
8.76181
8.23802
7.67086
7.06912
6.38599
1
1
1
1.00001
1.00002
1.00005
1.00009
1.00026
1.00053
1.00153
1.00307
1.00913
1.01737
1.05792
1.10315
1.37804
1.81477
3.55664
7.4913
8.68036
8.53568
8.13909
7.55909
6.98752
6.37744
1
1
1
1.00001
1.00001
1.00003
1.00007
1.00019
1.00039
1.00111
1.00225
1.00661
1.01264
1.04184
1.07279
1.2737
1.55366
2.81321
5.64424
8.35531
8.3144
8.06185
7.52125
6.93967
6.36774
1
1
1
1
1.00001
1.00002
1.00006
1.00012
1.00034
1.00068
1.00196
1.00398
1.01161
1.02317
1.0706
1.14279
1.45003
2.05163
3.91855
7.66071
8.11502
7.94857
7.51671
6.92832
6.36885
1
1
1
1
1.00001
1.00001
1.00004
1.00008
1.00024
1.00048
1.00137
1.00279
1.00805
1.01605
1.04903
1.0936
1.31194
1.69207
3.0638
6.19316
7.84247
7.77017
7.49238
6.93796
6.37724
1
1
1
1
1
1.00001
1.00002
1.00007
1.00013
1.00038
1.00077
1.00222
1.00446
1.01312
1.02584
1.08001
1.16049
1.51166
2.19813
4.2839
7.33742
7.55851
7.4066
6.98995
6.40481
1
1
1
1
1
1.00001
1.00002
1.00004
1.0001
1.00021
1.00059
1.00119
1.00345
1.00668
1.02125
1.03743
1.1359
1.24324
1.89451
3.00247
6.23461
7.34443
7.26758
7.00003
6.46623
1
1
1
1
1
1
1.00001
1.00003
1.00006
1.00016
1.00033
1.00092
1.00185
1.00543
1.01014
1.034
1.05836
1.21595
1.41897
2.3631
4.2689
6.8795
7.09826
6.96248
6.60165
1
1
1
1
1
1
1.00001
1.00002
1.00004
1.00009
1.00025
1.00051
1.00146
1.00296
1.00854
1.01707
1.05181
1.10116
1.32457
1.73306
3.03163
5.82525
6.88461
6.84852
6.64155
1
1
1
1
1
1
1
1.00001
1.00003
1.00006
1.00016
1.00032
1.00091
1.00184
1.00526
1.01047
1.03149
1.05987
1.19517
1.40298
2.21722
3.92641
6.39614
6.71304
6.60584
1
1
1
1
1
1
1
1.00001
1.00001
1.00004
1.00008
1.00023
1.00048
1.00135
1.00273
1.00786
1.01573
1.04699
1.0942
1.29003
1.6549
2.78811
5.24807
6.46008
6.46498
1
1
1
1
1
1
1
1
1.00001
1.00002
1.00006
1.00012
1.00034
1.00069
1.00194
1.00391
1.01125
1.02252
1.06647
1.13613
1.40406
1.9164
3.3282
5.87343
6.32157
1
1
1
1
1
1
1
1
1.00001
1.00001
1.00003
1.00008
1.00017
1.00047
1.00096
1.00272
1.00539
1.01619
1.02954
1.10129
1.18013
1.63211
2.36323
4.52549
5.9864
1
1
1
1
1
1
1
1
1
1.00001
1.00002
1.00005
1.0001
1.00028
1.00058
1.00163
1.00331
1.0094
1.01914
1.05472
1.11493
1.32925
1.74063
2.89622
5.17663
1
1
1
1
1
1
1
1
1
1
1.00001
1.00002
1.00006
1.00013
1.00037
1.00075
1.00212
1.00426
1.01236
1.02373
1.07504
1.14158
1.45448
1.99401
3.52943
1
1
1
1
1
1
1
1
1
1
1.00001
1.00001
1.00004
1.00008
1.00021
1.00043
1.0012
1.00243
1.00688
1.0139
1.0401
1.08281
1.2407
1.53796
2.42376
1
1
1
1
1
1
1
1
1
1
1
1.00001
1.00002
1.00005
1.0001
1.00027
1.00055
1.00155
1.00314
1.00888
1.01809
1.05136
1.10873
1.30485
1.68621
1
1
1
1
1
1
1
1
1
1
1
1
1.00001
1.00002
1.00006
1.00012
1.00034
1.0007
1.00193
1.0039
1.01112
1.02171
1.06582
1.12722
1.38841
1
1
1
1
1
1
1
1
1
1
1
1
1.00001
1.00001
1.00003
1.00007
1.00018
1.00037
1.00102
1.00207
1.00578
1.0117
1.03326
1.06826
1.1967
1
1
1
1
1
1
1
1
1
1
1
1
1
1.00001
1.00002
1.00003
1.00009
1.00019
1.00052
1.00105
1.00293
1.0059
1.01697
1.03262
1.10255
1
1
1
1
1
1
1
1
1
1
1
1
1
1
1.00001
1.00002
1.00004
1.00011
1.00022
1.00062
1.00126
1.00349
1.00707
1.02005
1.03986
1
1
1
1
1
1
1
1
1
1
1
1
1
1
1
1.00001
1.00002
1.00006
1.00011
1.00031
1.00063
1.00174
1.00352
1.0098
1.01974
1
1
1
1
1
1
1
1
1
1
1
1
1
1
1
1
1.00001
1.00002
1.00006
1.00013
1.00035
1.00071
1.00196
1.00394
1.0112
1
1
1
1
1
1
1
1
1
1
1
1
1
1
1
1
1
1.00001
1.00003
1.00007
1.00015
1.0004
1.00081
1.00222
1.00445
1
1
1
1
1
1
1
1
1
1
1
1
1
1
1
1
1
1.00001
1.00001
1.00003
1.00007
1.00019
1.00038
1.00106
1.00215
1
1
1
1
1
1
1
1
1
1
1
1
1
1
1
1
1
1
1.00001
1.00001
1.00004
1.00007
1.0002
1.00041
1.00114
1
1
1
1
1
1
1
1
1
1
1
1
1
1
1
1
1
1
1
1.00001
1.00001
1.00004
1.00008
1.00022
1.00044
1
1
1
1
1
1
1
1
1
1
1
1
1
1
1
1
1
1
1
1
1.00001
1.00001
1.00004
1.00008
1.00022
1
1
1
1
1
1
1
1
1
1
1
1
1
1
1
1
1
1
1
1
1
1.00001
1.00002
1.00004
1.0001
1
1
1
1
1
1
1
1
1
1
1
1
1
1
1
1
1
1
1
1
1
1
1.00001
1.00002
1.00003
1
1
1
1
1
1
1
1
1
1
1
1
1
1
1
1
1
1
1
1
1
1
1
1.00001
1.00001
1
1
1
1
1
1
1
1
1
1
1
1
1
1
1
1
1
1
1
1
1
1
1
1
1.00001
1
1
1
1
1
1
1
1
1
1
1
1
1
1
1
1
1
1
1
1
1
1
1
1
1
1
1
1
1
1
1
1
1
1
1
1
1
1
1
1
1
1
1
1
1
1
1
1
1
1
3.10666
1.58671
1.06739
0.930502
0.947589
1.00558
1.12984
1.24828
1.2908
1.28825
1.27917
1.26028
1.24754
1.24313
1.24245
1.24102
1.23792
1.23161
1.22328
1.21422
1.20511
1.19621
1.18743
1.17856
1.16943
1.15997
1.15016
1.14003
1.12964
1.11906
1.10837
1.09762
1.08687
1.07617
1.06555
1.05503
1.04466
1.03443
1.02437
1.01451
1.00484
0.995386
0.986161
0.977171
0.96842
0.959926
0.951684
0.943671
0.935932
0.928442
0.921249
0.91433
0.907649
0.901255
0.895157
0.889355
0.883857
0.878643
0.873726
0.869122
0.864847
0.860864
0.857171
0.853737
0.85059
0.84775
0.84523
0.843016
0.841124
0.839495
0.838302
0.837408
0.836704
0.836355
0.836325
0.836365
0.836515
0.836899
0.837716
0.838818
0.840014
0.841281
0.842669
0.844422
0.846016
0.847626
0.849473
0.851511
0.85378
0.855597
0.857602
0.859984
0.861644
0.865061
0.866514
0.870315
0.871974
0.876844
0.880285
0.889143
3.78932
2.36746
1.74431
1.46985
1.3344
1.24673
1.19755
1.199
1.2074
1.22649
1.25736
1.27152
1.27008
1.26547
1.25574
1.2445
1.23537
1.2279
1.22108
1.21413
1.20643
1.19794
1.18891
1.17952
1.16987
1.16003
1.15
1.13977
1.12937
1.11881
1.10814
1.09741
1.08669
1.076
1.06538
1.05487
1.04449
1.03428
1.02422
1.01436
1.00471
0.995267
0.986063
0.977092
0.968338
0.959869
0.951629
0.94361
0.935852
0.928382
0.921165
0.914216
0.907528
0.901127
0.895019
0.889199
0.883708
0.878497
0.873576
0.868874
0.864602
0.860669
0.856896
0.853461
0.85041
0.8477
0.845263
0.84311
0.841292
0.839629
0.838493
0.837533
0.836807
0.83645
0.836421
0.83646
0.836604
0.836975
0.837767
0.838873
0.840068
0.841349
0.842778
0.844382
0.846039
0.847667
0.849443
0.851532
0.853503
0.855515
0.857627
0.859957
0.86222
0.864819
0.866736
0.870208
0.872207
0.876607
0.879744
0.887338
4.61297
3.28498
2.44728
1.91194
1.5673
1.34701
1.21468
1.16352
1.16601
1.17662
1.20037
1.23113
1.25166
1.25176
1.25037
1.24622
1.23751
1.22754
1.2187
1.21052
1.20243
1.19412
1.1855
1.17656
1.16729
1.1577
1.1478
1.13765
1.12731
1.11683
1.10627
1.09568
1.08511
1.07457
1.06408
1.05368
1.0434
1.03326
1.02327
1.01344
1.00384
0.994443
0.985267
0.976352
0.967642
0.95914
0.950921
0.942955
0.935225
0.927751
0.920542
0.913606
0.906929
0.900548
0.894462
0.888669
0.883187
0.877995
0.873088
0.868508
0.864246
0.860282
0.856684
0.853278
0.850059
0.847122
0.844708
0.84252
0.840632
0.839104
0.837793
0.836911
0.836302
0.835949
0.835924
0.835967
0.83612
0.836505
0.837316
0.838446
0.839649
0.840997
0.842431
0.844049
0.845709
0.847465
0.849309
0.851323
0.853449
0.855549
0.857607
0.859893
0.862032
0.864791
0.866694
0.870211
0.872198
0.876472
0.879339
0.885924
5.05632
3.85391
2.96409
2.34371
1.92484
1.63933
1.45315
1.33292
1.25553
1.21708
1.21127
1.21378
1.22096
1.23552
1.24526
1.24516
1.24367
1.23935
1.23022
1.21863
1.20759
1.19728
1.18757
1.17813
1.16861
1.15883
1.14876
1.13843
1.12793
1.11735
1.10673
1.09612
1.08556
1.07504
1.06456
1.05416
1.04387
1.03375
1.02373
1.01385
1.00419
0.994768
0.985602
0.976638
0.967817
0.959306
0.951158
0.94314
0.93536
0.927887
0.920667
0.913728
0.907028
0.900615
0.894542
0.88875
0.883252
0.87804
0.873135
0.868532
0.864241
0.860288
0.856514
0.8531
0.850077
0.847344
0.844909
0.842751
0.840926
0.839343
0.838126
0.837208
0.836453
0.836213
0.836181
0.836218
0.836357
0.836716
0.837483
0.838621
0.839793
0.841207
0.842537
0.844292
0.845775
0.847723
0.849463
0.851549
0.853529
0.855608
0.857752
0.860201
0.862237
0.865159
0.867041
0.870552
0.872535
0.876646
0.879298
0.885084
5.32092
4.27132
3.41712
2.76921
2.29369
1.94622
1.6926
1.50586
1.37533
1.28205
1.22649
1.20122
1.20101
1.20275
1.20736
1.21657
1.22088
1.22064
1.2191
1.21504
1.2066
1.19591
1.18514
1.17454
1.16415
1.1539
1.14375
1.13364
1.12351
1.11336
1.10317
1.09291
1.08265
1.07244
1.06214
1.05187
1.04177
1.03173
1.02184
1.01211
1.00247
0.993044
0.983967
0.975029
0.966267
0.957816
0.94961
0.941638
0.933949
0.92648
0.919334
0.912451
0.905821
0.899479
0.893426
0.887664
0.882195
0.877016
0.872134
0.867571
0.863316
0.85934
0.855711
0.85234
0.849221
0.846432
0.843953
0.841802
0.83997
0.838403
0.837207
0.836294
0.835602
0.835323
0.835317
0.835368
0.835536
0.835952
0.836777
0.837873
0.839122
0.840597
0.841908
0.843736
0.845245
0.847338
0.84911
0.851287
0.853282
0.855611
0.857641
0.860272
0.862184
0.865308
0.867164
0.870799
0.872764
0.876868
0.879364
0.884803
5.49052
4.5864
3.79523
3.15163
2.64784
2.2596
1.96294
1.73668
1.56584
1.43679
1.34378
1.27544
1.23369
1.21108
1.20335
1.20386
1.20552
1.20907
1.21057
1.21005
1.20801
1.20323
1.19335
1.18126
1.16892
1.15701
1.14571
1.13496
1.12458
1.11437
1.10424
1.09416
1.08402
1.07377
1.06354
1.05335
1.04323
1.03316
1.02316
1.01336
1.00376
0.994264
0.985015
0.976012
0.967227
0.9587
0.950412
0.942429
0.934704
0.927244
0.920065
0.913156
0.906515
0.900155
0.894083
0.888299
0.882807
0.877605
0.872702
0.868107
0.863808
0.859806
0.856091
0.852674
0.849591
0.846818
0.844343
0.842194
0.840355
0.838789
0.837577
0.83666
0.835958
0.83565
0.835643
0.835687
0.835848
0.836249
0.837086
0.838201
0.839469
0.840995
0.842391
0.844206
0.845778
0.848012
0.849796
0.852166
0.854123
0.856714
0.858653
0.861501
0.863373
0.86666
0.868522
0.872213
0.874153
0.878203
0.880567
0.885716
5.61191
4.82497
4.10219
3.48248
2.97188
2.56044
2.23241
1.97258
1.767
1.60438
1.47668
1.37745
1.30261
1.24889
1.21616
1.19864
1.19097
1.18917
1.18922
1.18922
1.1889
1.18757
1.18418
1.17709
1.16669
1.15531
1.14375
1.13243
1.12147
1.11088
1.10061
1.09053
1.08057
1.07065
1.06075
1.05084
1.04094
1.03106
1.02123
1.01151
1.00195
0.992529
0.983307
0.97438
0.965678
0.957192
0.948919
0.940984
0.933316
0.925908
0.918763
0.911884
0.905272
0.898935
0.892875
0.887097
0.881604
0.8764
0.871499
0.866903
0.862599
0.858603
0.854927
0.851522
0.848436
0.845694
0.843234
0.841089
0.839259
0.837701
0.836506
0.835613
0.834929
0.834684
0.834689
0.834763
0.834982
0.835457
0.836362
0.837676
0.839091
0.840744
0.84244
0.844466
0.846258
0.848816
0.850888
0.853686
0.855794
0.858677
0.86078
0.864075
0.866039
0.869652
0.871559
0.8754
0.877282
0.881334
0.883605
0.888721
5.70106
5.00613
4.34902
3.76331
3.26048
2.83992
2.49306
2.2092
1.97819
1.79041
1.6384
1.51598
1.41781
1.34121
1.28157
1.23695
1.20835
1.19104
1.18206
1.1781
1.17631
1.1757
1.17446
1.17184
1.16652
1.15831
1.14829
1.13722
1.12575
1.11432
1.10323
1.09253
1.08219
1.07213
1.06223
1.05242
1.04265
1.03288
1.02314
1.01345
1.00389
0.994463
0.985185
0.976151
0.967433
0.958919
0.950604
0.942521
0.934826
0.927386
0.920198
0.913269
0.906609
0.900224
0.894118
0.888291
0.882747
0.877496
0.872543
0.867887
0.863527
0.859474
0.855718
0.852254
0.849124
0.846333
0.843838
0.841642
0.839787
0.838216
0.837018
0.836131
0.835484
0.835324
0.835357
0.835498
0.835856
0.836593
0.837895
0.839553
0.841597
0.843795
0.846249
0.849046
0.851715
0.854941
0.857691
0.86147
0.864267
0.868308
0.870895
0.875043
0.877236
0.881319
0.883204
0.887061
0.888662
0.892284
0.894231
0.8991
5.76309
5.14285
4.54437
3.99587
3.5106
3.09219
2.73694
2.43839
2.18883
1.98097
1.8082
1.66496
1.54635
1.44871
1.36862
1.30487
1.25442
1.21644
1.19142
1.17563
1.1663
1.16127
1.15812
1.1557
1.15295
1.14853
1.14216
1.13395
1.12427
1.11369
1.10273
1.09178
1.08105
1.07062
1.06047
1.05055
1.0408
1.03118
1.02162
1.01212
1.00272
0.993427
0.984231
0.975231
0.966536
0.958041
0.94972
0.941614
0.9339
0.926469
0.919285
0.912353
0.905683
0.89929
0.893173
0.887326
0.881756
0.876476
0.871496
0.866819
0.862436
0.858352
0.854585
0.851135
0.848011
0.845195
0.842683
0.84053
0.838721
0.837216
0.836112
0.835331
0.835014
0.835091
0.835354
0.835942
0.837121
0.838976
0.841424
0.844468
0.848017
0.852234
0.856863
0.862126
0.867462
0.873507
0.879114
0.885619
0.890671
0.897255
0.901244
0.907017
0.909684
0.914373
0.915972
0.919343
0.920166
0.922371
0.923307
0.927454
5.80623
5.24599
4.7007
4.18989
3.7267
3.31686
2.96048
2.65397
2.3923
2.16989
1.98122
1.82135
1.68599
1.57181
1.47585
1.39604
1.32986
1.2767
1.23377
1.20073
1.17758
1.162
1.15202
1.14597
1.14179
1.13835
1.13458
1.12961
1.12308
1.11501
1.10566
1.09544
1.08476
1.074
1.06337
1.053
1.04292
1.0331
1.02346
1.01398
1.00463
0.995387
0.986221
0.977206
0.968483
0.959945
0.951531
0.943341
0.935565
0.928074
0.920854
0.913888
0.907174
0.90076
0.894643
0.888765
0.883144
0.877816
0.872793
0.868058
0.8636
0.859446
0.855623
0.852122
0.848958
0.846133
0.843629
0.841548
0.839843
0.838583
0.837721
0.83779
0.83816
0.838915
0.840582
0.843544
0.847708
0.853187
0.860091
0.868499
0.87829
0.889413
0.901351
0.914262
0.927055
0.940445
0.95241
0.964917
0.974354
0.985198
0.991401
0.999028
1.0018
1.00577
1.00596
1.00584
1.00465
1.00276
0.998396
1.00173
5.84901
5.33243
4.82927
4.35364
3.91431
3.51709
3.16433
2.85482
2.58564
2.35271
2.15183
1.97888
1.83011
1.70237
1.59273
1.49898
1.41895
1.35143
1.29479
1.24841
1.21082
1.18158
1.16026
1.14538
1.13518
1.12826
1.12305
1.11847
1.11378
1.1082
1.10142
1.09341
1.0843
1.0744
1.06408
1.05364
1.0433
1.03314
1.02321
1.01352
1.00407
0.994824
0.98574
0.976828
0.968165
0.959723
0.951395
0.943257
0.935461
0.92793
0.920685
0.913711
0.906923
0.900367
0.89425
0.888419
0.882673
0.877299
0.872265
0.867467
0.862912
0.858673
0.854847
0.851349
0.84822
0.84549
0.843202
0.841519
0.840394
0.840565
0.841334
0.842921
0.846351
0.852083
0.860379
0.871506
0.885818
0.90332
0.923849
0.947199
0.972874
1.00008
1.02782
1.05583
1.08168
1.10707
1.12844
1.14975
1.16507
1.18002
1.18809
1.19471
1.19578
1.19483
1.19139
1.18636
1.1749
1.16656
1.14862
1.15526
5.89286
5.4136
4.94909
4.50019
4.08079
3.69693
3.35037
3.04124
2.76802
2.52795
2.31801
2.13475
1.97508
1.83604
1.71505
1.60989
1.5186
1.43967
1.37166
1.31364
1.26452
1.22378
1.19055
1.16415
1.14405
1.12949
1.119
1.11146
1.10557
1.10045
1.09531
1.08955
1.08282
1.07506
1.0663
1.05675
1.04665
1.03632
1.02601
1.01591
1.0061
0.996603
0.987428
0.978563
0.969987
0.961642
0.95349
0.945542
0.937812
0.93031
0.923044
0.915994
0.90915
0.902584
0.896336
0.890311
0.88447
0.878994
0.873936
0.869066
0.864412
0.860102
0.85636
0.853071
0.850352
0.848401
0.847528
0.848127
0.850058
0.853902
0.861089
0.872748
0.889452
0.911796
0.940264
0.974618
1.01524
1.06093
1.10987
1.1631
1.21929
1.27378
1.32224
1.36383
1.39763
1.42371
1.4427
1.45634
1.46327
1.46804
1.46783
1.46612
1.46224
1.45829
1.44933
1.44157
1.42407
1.41365
1.39048
1.40104
5.95512
5.49236
5.05388
4.63286
4.23234
3.86052
3.52098
3.21425
2.93951
2.69495
2.4784
2.28714
2.11865
1.97029
1.83978
1.725
1.62409
1.53549
1.4578
1.38991
1.33089
1.27997
1.23644
1.19987
1.16983
1.14557
1.12663
1.1124
1.10179
1.09374
1.0873
1.08159
1.07596
1.06987
1.06297
1.05517
1.04655
1.03725
1.02749
1.01751
1.00758
0.997765
0.988352
0.979299
0.970588
0.962185
0.954056
0.946169
0.938501
0.931043
0.923793
0.916727
0.90984
0.903194
0.896838
0.890708
0.884753
0.879194
0.874121
0.869256
0.864687
0.860628
0.857573
0.855324
0.855425
0.856705
0.860423
0.868212
0.881947
0.903322
0.934076
0.974143
1.02493
1.08567
1.15746
1.24218
1.32716
1.40395
1.46704
1.51264
1.54057
1.55739
1.56506
1.56863
1.56815
1.56649
1.56329
1.55975
1.5542
1.55014
1.54378
1.53959
1.53252
1.52857
1.5209
1.51631
1.50672
1.50314
1.49583
1.49984
6.06609
5.58909
5.15641
4.753
4.3708
4.01139
3.67895
3.37562
3.10101
2.85391
2.63272
2.43534
2.25971
2.10362
1.96503
1.84202
1.73283
1.63594
1.54999
1.47381
1.40644
1.34705
1.29501
1.24973
1.21076
1.17772
1.15031
1.12783
1.11
1.09605
1.08537
1.07705
1.07023
1.06422
1.05832
1.05225
1.04533
1.03757
1.02911
1.02011
1.01075
1.0013
0.991768
0.982389
0.973285
0.964545
0.956144
0.94808
0.940319
0.932834
0.925596
0.918565
0.911718
0.905111
0.898777
0.892653
0.886722
0.881307
0.876491
0.87213
0.868679
0.866826
0.867882
0.871366
0.878537
0.892634
0.917065
0.954501
1.00527
1.07235
1.15445
1.25975
1.3733
1.47149
1.54705
1.59037
1.61219
1.6223
1.62531
1.62412
1.62096
1.61628
1.60952
1.60362
1.59581
1.58952
1.58178
1.57559
1.56804
1.56258
1.55517
1.55049
1.54333
1.53903
1.53186
1.52776
1.52008
1.51641
1.51
1.51107
6.19809
5.6961
5.25937
4.8643
4.4965
4.15026
3.82634
3.52724
3.25379
3.00549
2.78114
2.57915
2.39781
2.2353
2.08983
1.95969
1.84328
1.73913
1.64594
1.56255
1.48796
1.42132
1.36194
1.30921
1.26268
1.2219
1.18654
1.15637
1.13096
1.11007
1.09313
1.07963
1.06889
1.06024
1.05303
1.04647
1.0403
1.03392
1.02701
1.01946
1.01129
1.00264
0.993649
0.984518
0.975413
0.966447
0.957765
0.949406
0.941383
0.933698
0.926321
0.919268
0.912478
0.905998
0.899849
0.89396
0.888469
0.884068
0.88058
0.87981
0.881673
0.887579
0.899905
0.922821
0.963052
1.02053
1.09913
1.20104
1.33517
1.46819
1.57314
1.63497
1.66363
1.67666
1.67935
1.67725
1.67109
1.6629
1.65319
1.64332
1.63301
1.62414
1.61455
1.60647
1.5976
1.59037
1.58205
1.57546
1.56759
1.56188
1.55431
1.5494
1.54237
1.53805
1.5312
1.52725
1.52004
1.51653
1.50995
1.51089
6.32089
5.82251
5.37255
4.97617
4.61506
4.27893
3.96448
3.67026
3.39873
3.15007
2.92358
2.71808
2.53215
2.36431
2.21299
2.0767
1.95399
1.84348
1.74392
1.65419
1.5733
1.50037
1.43468
1.37559
1.32261
1.27528
1.2333
1.19627
1.16397
1.13622
1.11265
1.09296
1.07683
1.0637
1.05306
1.04421
1.03674
1.03008
1.02369
1.01718
1.01027
1.00288
0.995045
0.986855
0.978422
0.969883
0.961368
0.95299
0.944833
0.936956
0.929451
0.922204
0.915409
0.909085
0.903412
0.898656
0.895615
0.896526
0.900364
0.909122
0.928051
0.965477
1.02471
1.10896
1.22227
1.3773
1.53124
1.64503
1.70102
1.72644
1.73588
1.73447
1.72826
1.71759
1.70451
1.69113
1.67822
1.66626
1.65457
1.64364
1.63251
1.62208
1.61134
1.60151
1.59154
1.58254
1.57331
1.56544
1.55699
1.55053
1.54278
1.53736
1.53061
1.52617
1.51994
1.51637
1.51004
1.50701
1.50118
1.50155
6.32215
5.98325
5.51063
5.09932
4.73379
4.40015
4.09071
3.80374
3.5356
3.28761
3.05999
2.85199
2.6625
2.4903
2.33406
2.1925
2.06429
1.9482
1.84302
1.74768
1.6612
1.58272
1.51148
1.44685
1.38827
1.33529
1.28753
1.24468
1.20646
1.17258
1.14286
1.11714
1.09509
1.07644
1.06091
1.04808
1.03744
1.02849
1.02077
1.01381
1.00723
1.00067
0.993904
0.986797
0.979366
0.971645
0.963716
0.955685
0.947665
0.939795
0.932195
0.925047
0.918712
0.913565
0.911021
0.912748
0.918804
0.931869
0.959419
1.01276
1.09474
1.20855
1.37711
1.55604
1.69546
1.75874
1.78833
1.79799
1.79449
1.78355
1.76898
1.75231
1.73582
1.72032
1.70535
1.69069
1.67583
1.66129
1.64659
1.63243
1.61833
1.60505
1.59196
1.58002
1.56825
1.55783
1.54744
1.53866
1.5296
1.52246
1.51474
1.50893
1.50239
1.49798
1.49245
1.48919
1.48397
1.48145
1.47726
1.47677
6.26652
6.06456
5.65072
5.22311
4.85172
4.5168
4.21058
3.92678
3.66361
3.41842
3.19091
2.98137
2.78921
2.61349
2.45313
2.30705
2.17405
2.05303
1.94286
1.8425
1.75102
1.66755
1.59133
1.52174
1.45818
1.40022
1.34743
1.29948
1.25608
1.21699
1.18196
1.15076
1.12323
1.09921
1.07843
1.06066
1.04561
1.03304
1.02249
1.01353
1.00571
0.998661
0.992034
0.985561
0.979004
0.972244
0.965284
0.958131
0.95091
0.94394
0.937453
0.93244
0.930658
0.932967
0.941109
0.958419
0.996264
1.06615
1.17231
1.33379
1.53897
1.72307
1.80981
1.84957
1.86445
1.86074
1.84871
1.83059
1.80957
1.78974
1.77086
1.75241
1.73364
1.71474
1.69547
1.67643
1.6574
1.63911
1.62115
1.60427
1.58786
1.57276
1.55814
1.54501
1.53229
1.52114
1.51024
1.50098
1.49183
1.48431
1.47675
1.47074
1.46455
1.46005
1.45514
1.45172
1.4478
1.4446
1.4434
1.44059
6.12494
6.03292
5.79325
5.36319
4.97504
4.63847
4.33235
4.04846
3.7862
3.54333
3.31756
3.10743
2.91332
2.73471
2.57081
2.42076
2.28351
2.15806
2.04338
1.93846
1.8424
1.75435
1.67358
1.59944
1.53138
1.46891
1.41161
1.35914
1.31118
1.26747
1.22775
1.19184
1.15953
1.13061
1.10491
1.08229
1.06257
1.0455
1.03088
1.01852
1.00806
0.99911
0.99128
0.984239
0.977716
0.971452
0.96538
0.959478
0.954351
0.949977
0.950435
0.953904
0.963507
0.985501
1.03238
1.12092
1.24785
1.46684
1.69425
1.84962
1.906
1.93474
1.93378
1.92448
1.90343
1.87893
1.85512
1.83214
1.8093
1.78624
1.76249
1.73847
1.71435
1.69072
1.66745
1.64516
1.62353
1.60324
1.58373
1.56576
1.54854
1.53294
1.518
1.5047
1.49193
1.48076
1.46994
1.46071
1.45184
1.44422
1.43692
1.43082
1.42506
1.42025
1.41592
1.41195
1.4092
1.40554
1.40433
1.40174
5.92655
5.91886
5.79933
5.52554
5.12638
4.76933
4.45596
4.17286
3.90968
3.6649
3.4388
3.22952
3.03456
2.85386
2.68714
2.53371
2.39273
2.26329
2.14449
2.03538
1.93509
1.8428
1.7578
1.67945
1.60721
1.54058
1.47917
1.42258
1.37052
1.32268
1.27883
1.23871
1.20217
1.16896
1.13894
1.11192
1.08775
1.06631
1.04749
1.03105
1.01686
1.00475
0.994463
0.985668
0.978136
0.97158
0.966796
0.964211
0.965502
0.971088
0.981977
1.01157
1.06466
1.1711
1.32368
1.58437
1.83606
1.94962
1.99989
2.01544
2.0067
1.98616
1.96123
1.933
1.90589
1.87913
1.85153
1.82291
1.79371
1.76453
1.73563
1.70753
1.68026
1.65431
1.6294
1.60609
1.58384
1.56332
1.54378
1.52598
1.50902
1.49376
1.4792
1.46622
1.45386
1.44293
1.43255
1.42344
1.41483
1.40731
1.40031
1.39416
1.38864
1.38364
1.37954
1.37548
1.37263
1.36923
1.36786
1.36504
5.45267
5.79517
5.758
5.61216
5.30045
4.92107
4.58912
4.29658
4.03214
3.78839
3.56088
3.3488
3.15235
2.97021
2.80138
2.64526
2.50118
2.36834
2.24587
2.13294
2.02875
1.93253
1.84359
1.76132
1.68516
1.61467
1.54942
1.48907
1.43322
1.38163
1.33404
1.2902
1.24986
1.21284
1.17895
1.14802
1.11992
1.0945
1.07164
1.05126
1.03326
1.0175
1.00388
0.992379
0.983511
0.97788
0.979365
0.984307
0.999173
1.02602
1.08993
1.20804
1.37841
1.66864
1.94185
2.03771
2.08925
2.09081
2.0794
2.05306
2.02157
1.99178
1.96147
1.92989
1.89668
1.86251
1.82801
1.79394
1.76065
1.72858
1.69782
1.66868
1.64096
1.61504
1.59043
1.56764
1.54598
1.52612
1.5072
1.49001
1.47361
1.45883
1.44471
1.43208
1.42004
1.40932
1.39917
1.39017
1.38172
1.37424
1.36733
1.36119
1.3557
1.35073
1.34657
1.34255
1.33969
1.33622
1.33482
1.33187
4.30397
5.48673
5.65508
5.59205
5.42214
5.07924
4.73102
4.42534
4.15406
3.90705
3.67882
3.46666
3.26895
3.08503
2.91349
2.75469
2.60785
2.47209
2.34652
2.23028
2.12263
2.02288
1.93034
1.84447
1.76471
1.69064
1.62182
1.55792
1.49862
1.44359
1.39255
1.34526
1.30149
1.26104
1.22371
1.18933
1.15773
1.12878
1.10238
1.0784
1.05684
1.03776
1.02116
1.00825
1.00407
1.00728
1.01817
1.04879
1.10674
1.23054
1.41135
1.71872
2.01583
2.116
2.17236
2.16775
2.14924
2.12012
2.08602
2.05268
2.01778
1.98037
1.94152
1.9023
1.86343
1.8255
1.78888
1.75386
1.72052
1.68897
1.6591
1.63103
1.60444
1.57962
1.55601
1.53414
1.51323
1.49401
1.4756
1.45881
1.44271
1.42811
1.41415
1.40156
1.38956
1.3788
1.36863
1.35954
1.35104
1.34347
1.33651
1.3303
1.32478
1.31977
1.31561
1.31157
1.30873
1.30529
1.30387
1.30082
2.70806
4.71561
5.43959
5.50047
5.41876
5.22196
4.8787
4.55901
4.27806
4.02645
3.79545
3.58185
3.38292
3.19723
3.02491
2.86438
2.71424
2.57495
2.44603
2.32678
2.21608
2.11324
2.01751
1.92838
1.84535
1.76798
1.69589
1.62874
1.56621
1.50798
1.45376
1.40331
1.35641
1.31284
1.27241
1.23492
1.20021
1.16814
1.13864
1.11164
1.08739
1.06667
1.04993
1.05108
1.05975
1.0816
1.13928
1.25359
1.43742
1.75685
2.08254
2.19323
2.25757
2.25065
2.22574
2.19033
2.15138
2.11223
2.07033
2.02665
1.98267
1.93948
1.89756
1.85729
1.81875
1.7821
1.74727
1.71428
1.68296
1.65332
1.62514
1.59854
1.57317
1.54934
1.52648
1.50517
1.48465
1.46568
1.4474
1.43061
1.41448
1.39973
1.38563
1.3728
1.36062
1.34958
1.3392
1.32985
1.32116
1.31336
1.30627
1.29989
1.29429
1.28919
1.285
1.28095
1.27812
1.27475
1.2733
1.27012
1.84428
3.08787
4.91006
5.35601
5.35037
5.2589
5.04611
4.71513
4.41426
4.15068
3.91465
3.69794
3.49672
3.30959
3.13493
2.97176
2.82053
2.67934
2.5475
2.42463
2.31038
2.20407
2.10521
2.01298
1.92688
1.8465
1.77137
1.70119
1.63564
1.57443
1.51727
1.46392
1.41412
1.36766
1.32435
1.28404
1.24655
1.21187
1.18012
1.15112
1.12803
1.11491
1.11938
1.14163
1.18398
1.29415
1.47778
1.80657
2.16734
2.29596
2.36441
2.3554
2.324
2.27649
2.22626
2.17721
2.12679
2.07611
2.02673
1.97934
1.93434
1.89191
1.85181
1.81388
1.77782
1.74365
1.7111
1.68013
1.6505
1.62226
1.59521
1.56949
1.54478
1.52141
1.49889
1.47775
1.45735
1.43834
1.42003
1.40305
1.38678
1.37178
1.35746
1.34432
1.33188
1.32052
1.30988
1.30022
1.29131
1.28324
1.27598
1.26941
1.26368
1.25848
1.25422
1.25014
1.24728
1.24398
1.24246
1.23913
1.43162
2.14664
3.65686
4.96277
5.23367
5.21388
5.10946
4.88195
4.56924
4.28719
4.03954
3.81684
3.61283
3.42314
3.24627
3.08101
2.92653
2.78244
2.64824
2.52271
2.40546
2.29606
2.19388
2.09849
2.00938
1.92605
1.84808
1.77508
1.70668
1.64264
1.5827
1.52662
1.47413
1.42504
1.37917
1.33649
1.29677
1.26072
1.22963
1.20388
1.20542
1.21837
1.26124
1.34727
1.52805
1.8706
2.27725
2.44009
2.51197
2.49925
2.46002
2.39794
2.33045
2.26739
2.20488
2.14445
2.08711
2.03334
1.9831
1.9361
1.89252
1.85208
1.81398
1.77767
1.74314
1.7104
1.67901
1.64903
1.62016
1.59258
1.56601
1.54068
1.51628
1.49311
1.47077
1.44969
1.42938
1.41033
1.39203
1.37493
1.35859
1.3434
1.32894
1.31558
1.30296
1.29134
1.28051
1.27059
1.2615
1.25319
1.24578
1.23903
1.23318
1.22787
1.22354
1.21943
1.21651
1.21327
1.21165
1.20816
1.19309
1.59957
2.28076
4.03266
4.94266
5.11098
5.07785
4.96363
4.72399
4.43366
4.17185
3.93995
3.7306
3.53798
3.35874
3.19121
3.03436
2.88744
2.74991
2.62142
2.50142
2.389
2.28374
2.18523
2.09307
2.0068
1.92599
1.85026
1.77921
1.71259
1.65003
1.59133
1.53631
1.48484
1.43681
1.39294
1.35296
1.32064
1.30826
1.31715
1.35154
1.43331
1.60187
1.93577
2.39631
2.62524
2.70565
2.68827
2.64116
2.56283
2.48295
2.40438
2.32746
2.25587
2.18908
2.12634
2.06739
2.01227
1.9605
1.91215
1.86668
1.82418
1.78442
1.7473
1.71283
1.68033
1.64912
1.61934
1.59064
1.56323
1.5368
1.51159
1.4873
1.4642
1.44197
1.42092
1.4007
1.38162
1.36337
1.34621
1.32986
1.31456
1.30004
1.28653
1.27381
1.26202
1.25108
1.24098
1.23177
1.22328
1.21578
1.20889
1.20298
1.19759
1.19322
1.18911
1.18617
1.18301
1.18132
1.1777
1.11723
1.24159
1.66117
2.45034
4.22607
4.88186
4.98809
4.94497
4.8249
4.57923
4.31106
4.06819
3.85089
3.65351
3.47139
3.30148
3.14233
2.99285
2.85262
2.72114
2.59785
2.4824
2.37432
2.27304
2.17799
2.08884
2.00523
1.92681
1.85316
1.78402
1.71908
1.65812
1.60114
1.54836
1.49962
1.46015
1.43116
1.43702
1.46201
1.53967
1.68672
2.00051
2.51924
2.84731
2.94171
2.92357
2.86777
2.77237
2.67676
2.583
2.4915
2.40553
2.32554
2.25225
2.18367
2.11963
2.05963
2.00359
1.95078
1.90148
1.85467
1.81059