/*--------------------------------*- C++ -*----------------------------------*\
| =========                 |                                                 |
| \\      /  F ield         | OpenFOAM: The Open Source CFD Toolbox           |
|  \\    /   O peration     | Version:  2412                                  |
|   \\  /    A nd           | Website:  www.openfoam.com                      |
|    \\/     M anipulation  |                                                 |
\*---------------------------------------------------------------------------*/
FoamFile
{
    version     2.0;
    format      ascii;
    arch        "LSB;label=32;scalar=64";
    class       surfaceScalarField;
    location    "1";
    object      phi;
}
// * * * * * * * * * * * * * * * * * * * * * * * * * * * * * * * * * * * * * //

dimensions      [1 0 -1 0 0 0 0];

oriented        oriented;

internalField   nonuniform List<scalar> 
10325
(
0.00840003
1.93431e-11
0.00840003
1.52557e-10
0.00840003
4.6821e-10
0.00840002
1.4359e-09
0.00840001
3.40523e-09
0.00839997
9.28689e-09
0.00839991
2.10042e-08
0.00839964
5.68633e-08
0.0083993
1.25484e-07
0.00839744
3.7229e-07
0.00839592
6.94246e-07
0.00838307
2.83968e-06
0.00836794
5.61588e-06
0.00829815
2.72034e-05
0.0081017
7.93772e-05
0.0072067
0.000483985
0.00662513
0.000710329
0.00602441
0.000644899
0.00535085
0.000685731
0.00461076
0.000752596
0.00378402
0.000838678
0.00289315
0.000896577
0.00197036
0.000933275
0.00100057
0.000964605
0.000952637
0.00840003
3.91811e-11
0.00840003
3.07268e-10
0.00840003
9.42055e-10
0.00840002
2.87632e-09
0.00840001
6.79839e-09
0.00839997
1.84818e-08
0.00839992
4.15624e-08
0.00839965
1.12667e-07
0.00839932
2.45681e-07
0.00839753
7.38542e-07
0.0083961
1.33665e-06
0.00838365
5.64277e-06
0.00836918
1.07582e-05
0.00830166
5.31326e-05
0.00811226
0.000153186
0.00728489
0.000910939
0.00668571
0.00142636
0.00606661
0.00130609
0.00537896
0.00138499
0.00463065
0.00151277
0.00378946
0.00168898
0.00288611
0.00180323
0.0019533
0.00187536
0.000983059
0.00192937
0.00188799
0.00840003
5.93002e-11
0.00840003
4.6101e-10
0.00840003
1.41909e-09
0.00840002
4.28945e-09
0.00840001
1.01478e-08
0.00839998
2.71669e-08
0.00839993
6.09464e-08
0.00839969
1.62645e-07
0.00839937
3.55911e-07
0.00839779
1.02949e-06
0.00839626
2.05619e-06
0.00838551
7.52687e-06
0.00837164
1.53603e-05
0.00831451
7.0486e-05
0.00815208
0.000203619
0.00750607
0.00117862
0.006869
0.00214756
0.006179
0.00203158
0.00545872
0.00211748
0.00469311
0.00228988
0.00383914
0.00254712
0.00292479
0.00271652
0.00198148
0.00282591
0.000998611
0.00290693
0.00284026
0.00840003
7.95402e-11
0.00840003
6.16156e-10
0.00840003
1.90518e-09
0.00840002
5.72923e-09
0.00840001
1.35718e-08
0.00839998
3.59292e-08
0.00839993
8.0651e-08
0.00839973
2.10329e-07
0.00839945
4.645e-07
0.00839823
1.25643e-06
0.0083963
2.72985e-06
0.00838832
8.43237e-06
0.00837569
1.89584e-05
0.00833232
7.58151e-05
0.00822274
0.000220296
0.00786091
0.00120071
0.00712011
0.00288259
0.00632923
0.00283721
0.00557323
0.00288719
0.00479219
0.00308161
0.00393223
0.00340986
0.00301125
0.00363415
0.00205007
0.00379168
0.00103813
0.0039137
0.00383367
0.00840003
1.04422e-10
0.00840003
7.97828e-10
0.00840003
2.47924e-09
0.00840002
7.37593e-09
0.00840001
1.74995e-08
0.00839998
4.5679e-08
0.00839993
1.02536e-07
0.00839975
2.62585e-07
0.00839948
5.7919e-07
0.00839839
1.52758e-06
0.00839681
3.31176e-06
0.00839034
9.80851e-06
0.00838107
2.16142e-05
0.00834904
8.12137e-05
0.00831066
0.000219804
0.00818939
0.00111137
0.00732774
0.00359764
0.00646128
0.00369839
0.00569416
0.00367648
0.00491533
0.00387066
0.00405948
0.00426471
0.00313596
0.00454929
0.00216446
0.00476649
0.00111213
0.00496272
0.00490357
0.00840003
1.35158e-10
0.00840003
1.03512e-09
0.00840003
3.18859e-09
0.00840002
9.52187e-09
0.00840001
2.25502e-08
0.00839998
5.91699e-08
0.00839992
1.32771e-07
0.00839972
3.40296e-07
0.0083994
7.49277e-07
0.00839829
1.94502e-06
0.00839639
4.29528e-06
0.00839075
1.14339e-05
0.00837937
2.81432e-05
0.00835484
8.65348e-05
0.00830495
0.000242314
0.00811823
0.00114102
0.00738169
0.00416391
0.00654409
0.00450662
0.0058147
0.00442542
0.00505445
0.00462891
0.00422273
0.00508912
0.00331877
0.00545211
0.00232251
0.00576596
0.00121548
0.00606498
0.0060807
0.00840003
1.54733e-10
0.00840003
1.19494e-09
0.00840003
3.66843e-09
0.00840002
1.10488e-08
0.00840001
2.62354e-08
0.00839997
6.98291e-08
0.00839992
1.57864e-07
0.00839969
4.08484e-07
0.00839934
9.34862e-07
0.00839823
2.2635e-06
0.00839578
5.85784e-06
0.00839095
1.23473e-05
0.00837741
3.45549e-05
0.00834741
9.5863e-05
0.00831836
0.000273403
0.00816209
0.00118168
0.00737402
0.00476551
0.00663203
0.00520557
0.00596746
0.00510294
0.00521486
0.00537049
0.00444017
0.00585008
0.00355892
0.00632485
0.00256514
0.00675966
0.00139233
0.00723595
0.00744234
0.00840003
1.5941e-10
0.00840003
1.2524e-09
0.00840003
3.83887e-09
0.00840002
1.16673e-08
0.00840001
2.78449e-08
0.00839998
7.44348e-08
0.00839994
1.70003e-07
0.00839977
4.33933e-07
0.00839953
1.02234e-06
0.0083987
2.38272e-06
0.00839755
5.9822e-06
0.0083925
1.35825e-05
0.00838679
3.48083e-05
0.0083645
9.80907e-05
0.00833025
0.000309124
0.00820591
0.00120216
0.00743026
0.00533817
0.00686073
0.00576207
0.00617292
0.00578201
0.00543072
0.00609259
0.0047236
0.00654541
0.00390659
0.00714253
0.00290786
0.00776931
0.00166624
0.00849113
0.009087
0.00840003
1.272e-10
0.00840003
1.20893e-09
0.00840003
3.60476e-09
0.00840002
1.11162e-08
0.00840002
2.60526e-08
0.0084
7.07534e-08
0.00839998
1.58959e-07
0.00839982
4.19312e-07
0.00839976
9.33771e-07
0.0083989
2.4603e-06
0.00839853
5.12155e-06
0.00839296
1.56794e-05
0.00839002
3.04587e-05
0.00835866
0.000113569
0.0083383
0.000305137
0.00821591
0.00125501
0.00757477
0.0057471
0.00696094
0.00638086
0.00638468
0.00635759
0.00576985
0.00669361
0.00512808
0.00718615
0.00439027
0.0078967
0.00349743
0.00867364
0.00217599
0.00982401
0.0112503
0.00840003
3.60261e-11
0.00840003
1.41095e-09
0.00840003
1.94607e-09
0.00840003
1.22297e-08
0.00840003
1.44948e-08
0.00840001
7.74192e-08
0.00840006
8.61433e-08
0.00839989
4.81348e-07
0.00840024
4.35974e-07
0.00839874
3.31999e-06
0.00840124
1.90441e-06
0.00838962
2.36228e-05
0.00840358
1.19348e-05
0.00832676
0.000172504
0.00841126
0.000199006
0.00826641
0.00132646
0.00792082
0.00580622
0.00729246
0.00702986
0.00672872
0.00692893
0.00623981
0.00717006
0.0057122
0.00770654
0.0051424
0.00846833
0.00431563
0.00950442
0.00302555
0.0111221
0.0142691
0.00840003
2.25051e-10
0.00840003
4.5308e-10
0.00840003
3.62747e-09
0.00840003
4.84403e-09
0.00840002
2.55844e-08
0.00840005
3.17051e-08
0.00839995
1.58812e-07
0.00840019
1.84943e-07
0.00839936
1.02649e-06
0.00840153
9.85479e-07
0.00839454
7.26121e-06
0.00841111
5.89881e-06
0.00836238
5.24968e-05
0.00847138
5.095e-05
0.0082055
0.000432584
0.00854747
0.000924872
0.00858952
0.00547142
0.00792513
0.00773968
0.007263
0.00760016
0.00680397
0.00761491
0.00639953
0.00811051
0.00603082
0.00886714
0.00571384
0.00986893
0.0057763
0.0111039
0.0115299
0.00852226
0.00840003
1.13428e-10
0.00840003
6.46608e-10
0.00840003
2.18261e-09
0.00840003
6.17133e-09
0.00840004
1.54838e-08
0.00840002
3.90153e-08
0.00840007
9.24521e-08
0.00839996
2.3363e-07
0.00840032
5.34774e-07
0.00839912
1.54279e-06
0.00840282
3.24464e-06
0.00839373
1.12388e-05
0.00841684
2.47987e-05
0.00836407
8.66536e-05
0.00851451
0.00025007
0.00842869
0.000986855
0.00960031
0.00395319
0.00891641
0.00847234
0.00809192
0.00846634
0.00761914
0.00810102
0.00725628
0.00848806
0.00699591
0.00915062
0.00696612
0.00993112
0.0074344
0.0106605
0.0106176
0.00836759
0.00840003
9.41064e-11
0.00840003
7.34655e-10
0.00840003
2.22964e-09
0.00840003
6.79299e-09
0.00840002
1.6081e-08
0.00840001
4.3476e-08
0.00839999
9.81968e-08
0.00839988
2.60509e-07
0.00839975
5.78789e-07
0.00839927
1.55653e-06
0.0083985
3.42524e-06
0.00839756
9.62979e-06
0.00839614
2.17563e-05
0.00840648
6.54463e-05
0.00843571
0.000188783
0.00875779
0.000631627
0.0101054
0.0023599
0.00966236
0.00883061
0.00917746
0.00890211
0.00844224
0.00881005
0.00805611
0.00884582
0.00790262
0.0092914
0.00803084
0.00980714
0.00856684
0.0101375
0.00999726
0.00918083
0.00840003
8.06142e-11
0.00840003
6.38196e-10
0.00840003
1.95393e-09
0.00840003
5.97743e-09
0.00840003
1.42103e-08
0.00840002
3.85017e-08
0.00840002
8.74801e-08
0.00839997
2.31915e-07
0.00839995
5.22866e-07
0.00839969
1.38006e-06
0.00839958
3.1437e-06
0.00839883
8.26497e-06
0.00839794
1.90942e-05
0.00839745
5.50345e-05
0.00842637
0.000141153
0.00849699
0.00051313
0.00905182
0.00166982
0.00969105
0.00790252
0.00938458
0.00914332
0.00894938
0.00920734
0.0086767
0.0090986
0.00862485
0.00932468
0.00878122
0.00964384
0.00919921
0.00972212
0.00947779
0.00972113
0.00840003
6.85204e-11
0.00840003
5.33478e-10
0.00840003
1.64712e-09
0.00840003
4.96856e-09
0.00840003
1.18246e-08
0.00840003
3.14408e-08
0.00840003
7.10491e-08
0.00840003
1.84986e-07
0.00840007
4.11551e-07
0.00840004
1.09511e-06
0.00840047
2.31309e-06
0.00839981
7.10048e-06
0.00840377
1.30138e-05
0.00839823
5.11309e-05
0.00842385
0.000101968
0.00843719
0.000465173
0.00873046
0.00131008
0.00972341
0.00662839
0.00962176
0.00924134
0.0093467
0.00946939
0.00912311
0.00929991
0.00912478
0.00931039
0.00929718
0.00946503
0.00962616
0.00938966
0.00906726
0.0100363
0.00840003
6.13279e-11
0.00840003
4.79979e-10
0.00840003
1.47056e-09
0.00840003
4.46822e-09
0.00840003
1.06071e-08
0.00840002
2.84981e-08
0.00840002
6.44882e-08
0.00839999
1.69445e-07
0.00839997
3.78961e-07
0.00839981
9.9916e-07
0.00839961
2.21087e-06
0.00839914
6.05241e-06
0.00839797
1.29807e-05
0.00839938
4.0749e-05
0.00840465
8.83366e-05
0.00848813
0.000348558
0.00875076
0.000988428
0.0103678
0.00470256
0.0101563
0.00945811
0.00990353
0.00975431
0.00960259
0.00963038
0.00956949
0.00934695
0.00969743
0.0093219
0.00992128
0.00915093
0.00876081
0.010224
0.00840003
5.21834e-11
0.00840003
4.09428e-10
0.00840003
1.25163e-09
0.00840003
3.81181e-09
0.00840003
9.04309e-09
0.00840003
2.43904e-08
0.00840003
5.52569e-08
0.00840002
1.45848e-07
0.00840003
3.27399e-07
0.00839994
8.60149e-07
0.00839995
1.94855e-06
0.00839975
4.99321e-06
0.00839934
1.19257e-05
0.00840431
2.96619e-05
0.00840338
7.73283e-05
0.00849909
0.000224627
0.00880974
0.00068788
0.0105861
0.00277825
0.0107211
0.00922119
0.0105782
0.00988769
0.0102236
0.00998059
0.0100129
0.00956079
0.0100658
0.00927883
0.0102033
0.00902656
0.00858844
0.0103804
0.00840003
3.89107e-11
0.00840003
3.13978e-10
0.00840003
9.73287e-10
0.00840003
2.91593e-09
0.00840003
6.98391e-09
0.00840003
1.8431e-08
0.00840004
4.20036e-08
0.00840005
1.08419e-07
0.0084001
2.43977e-07
0.00840015
6.33501e-07
0.00840049
1.40121e-06
0.00840061
3.80322e-06
0.00840239
8.08468e-06
0.00840363
2.42003e-05
0.00841314
5.25677e-05
0.00844685
0.000175498
0.00859604
0.000490694
0.009272
0.00204452
0.0107451
0.00746533
0.0108176
0.00978905
0.0106398
0.0101366
0.0103857
0.00980624
0.0103775
0.00928532
0.0104788
0.00893731
0.00850587
0.01058
0.00840003
1.56983e-11
0.00840003
3.02121e-10
0.00840003
5.9304e-10
0.00840003
2.66926e-09
0.00840003
4.35386e-09
0.00840003
1.6693e-08
0.00840004
2.61648e-08
0.00840004
9.76684e-08
0.00840011
1.50034e-07
0.00840007
5.66566e-07
0.00840049
8.43515e-07
0.00840023
3.39649e-06
0.00840291
4.53619e-06
0.00840054
2.25388e-05
0.0084203
2.65555e-05
0.0084161
0.000162536
0.00858967
0.000286786
0.00920438
0.00136459
0.0111632
0.00517203
0.0112112
0.00970625
0.011166
0.0101787
0.010897
0.0100864
0.0107043
0.00950536
0.0107154
0.00894551
0.00846291
0.0107761
0.00840003
2.78369e-11
0.00840003
1.59211e-10
0.00840003
5.95156e-10
0.00840003
1.52867e-09
0.00840003
4.26944e-09
0.00840004
9.78241e-09
0.00840003
2.59249e-08
0.00840006
5.79868e-08
0.00840002
1.52527e-07
0.0084002
3.38988e-07
0.00839995
8.95471e-07
0.0084011
1.99064e-06
0.00839927
5.3147e-06
0.00840831
1.20769e-05
0.00839667
3.29017e-05
0.00846856
8.17727e-05
0.00847833
0.000251044
0.00908088
0.000734506
0.011172
0.00294457
0.0117442
0.00901124
0.0117217
0.0102032
0.0115038
0.0103115
0.0111465
0.00988518
0.011016
0.00909669
0.00851521
0.010982
0.00840003
3.04205e-11
0.00840003
9.71515e-11
0.00840003
5.30806e-10
0.00840003
9.86077e-10
0.00840003
3.73442e-09
0.00840003
6.38921e-09
0.00840003
2.2592e-08
0.00840005
3.80559e-08
0.00840004
1.33016e-07
0.00840012
2.22692e-07
0.00840008
7.82372e-07
0.00840061
1.29681e-06
0.00840049
4.66757e-06
0.00840404
7.50184e-06
0.00840349
2.93845e-05
0.00843412
4.59347e-05
0.00845991
0.00020319
0.0087164
0.000448414
0.00979555
0.00180231
0.0117843
0.00672634
0.0119824
0.00998058
0.0119082
0.0103692
0.0115677
0.0102398
0.0113997
0.00928653
0.00866537
0.0112642
0.00840003
1.07424e-11
0.00840003
1.11328e-10
0.00840003
2.66387e-10
0.00840003
1.01549e-09
0.00840003
1.94493e-09
0.00840003
6.46163e-09
0.00840004
1.18956e-08
0.00840003
3.83915e-08
0.00840009
7.01335e-08
0.00840004
2.25386e-07
0.00840037
4.10156e-07
0.0084001
1.32872e-06
0.00840211
2.3834e-06
0.00840006
8.03716e-06
0.00841451
1.3872e-05
0.0084001
5.09118e-05
0.00850312
9.04464e-05
0.00852914
0.000379221
0.00932534
0.000914211
0.0121652
0.00351675
0.0123947
0.00966342
0.0123559
0.0104054
0.0122319
0.0103741
0.0117784
0.00977038
0.00891249
0.0115564
0.00840003
1.26794e-11
0.00840003
5.17902e-11
0.00840003
2.46944e-10
0.00840003
5.10374e-10
0.00840003
1.74871e-09
0.00840003
3.28385e-09
0.00840003
1.0548e-08
0.00840005
1.94678e-08
0.00840005
6.16103e-08
0.00840015
1.1325e-07
0.00840014
3.58402e-07
0.00840073
6.5457e-07
0.00840065
2.12216e-06
0.00840461
3.69906e-06
0.00840287
1.34201e-05
0.00843041
2.09788e-05
0.00841994
9.03696e-05
0.00862558
0.000150627
0.00877338
0.000732588
0.0101417
0.00203492
0.0125704
0.00701988
0.0127696
0.0101885
0.0126375
0.0104676
0.0121282
0.0102654
0.00920448
0.0118553
0.00840003
4.55825e-12
0.00840003
4.95662e-11
0.00840003
1.17582e-10
0.00840003
4.51361e-10
0.00840003
8.58937e-10
0.00840003
2.85673e-09
0.00840004
5.21859e-09
0.00840004
1.68097e-08
0.00840006
3.04039e-08
0.00840006
9.71955e-08
0.00840023
1.74618e-07
0.00840024
5.60127e-07
0.00840125
9.96857e-07
0.00840108
3.29221e-06
0.00840857
5.67075e-06
0.008404
2.0742e-05
0.00845792
3.45695e-05
0.00844077
0.000144183
0.00885329
0.000293413
0.00955209
0.0012412
0.0122749
0.0039393
0.0129998
0.00937764
0.013161
0.0103086
0.0129016
0.0105281
0.00975765
0.0123784
0.00840003
4.54732e-12
0.00840003
2.59718e-11
0.00840003
9.70724e-11
0.00840003
2.49199e-10
0.00840003
6.94888e-10
0.00840003
1.59376e-09
0.00840003
4.20545e-09
0.00840004
9.4225e-09
0.00840004
2.45992e-08
0.00840007
5.4761e-08
0.00840007
1.43005e-07
0.00840028
3.17358e-07
0.00840025
8.32758e-07
0.00840147
1.8507e-06
0.00840121
4.89489e-06
0.00840937
1.10135e-05
0.0084078
3.02139e-05
0.00847086
6.96366e-05
0.00851197
0.000218486
0.00912211
0.000614831
0.0106095
0.00234152
0.0129042
0.00683082
0.0131858
0.00999336
0.0134012
0.0102959
0.0102183
0.0129262
0.00840003
4.12476e-12
0.00840003
1.47181e-11
0.00840003
7.38401e-11
0.00840003
1.47701e-10
0.00840003
5.19573e-10
0.00840003
9.52171e-10
0.00840003
3.12416e-09
0.00840003
5.63236e-09
0.00840004
1.81776e-08
0.00840006
3.26325e-08
0.00840007
1.0491e-07
0.00840018
1.87497e-07
0.0084003
6.04711e-07
0.00840094
1.07196e-06
0.00840164
3.51946e-06
0.00840565
6.10414e-06
0.00840924
2.13509e-05
0.0084448
3.60168e-05
0.00849134
0.00013882
0.00880607
0.000296801
0.00985483
0.00114322
0.0125852
0.00375977
0.0134554
0.00903303
0.01369
0.0100632
0.0104474
0.0134666
0.00840003
1.40514e-12
0.00840003
1.36016e-11
0.00840003
3.41907e-11
0.00840003
1.24598e-10
0.00840003
2.48648e-10
0.00840003
7.89739e-10
0.00840003
1.51041e-09
0.00840003
4.65635e-09
0.00840004
8.82992e-09
0.00840004
2.70428e-08
0.00840009
5.11445e-08
0.00840008
1.56587e-07
0.00840035
2.95243e-07
0.00840034
9.07609e-07
0.00840191
1.70414e-06
0.00840165
5.31582e-06
0.00841141
9.95157e-06
0.00840893
3.22907e-05
0.00847499
6.27436e-05
0.00851551
0.000219992
0.00911062
0.000553426
0.0107762
0.0019545
0.0132537
0.00625662
0.0135722
0.00968843
0.0100623
0.0139684
0.00840003
1.45466e-12
0.00840003
6.02986e-12
0.00840003
2.80529e-11
0.00840003
5.95721e-11
0.00840003
1.98975e-10
0.00840003
3.83761e-10
0.00840003
1.20032e-09
0.00840003
2.27341e-09
0.00840003
6.99627e-09
0.00840005
1.32076e-08
0.00840005
4.04471e-08
0.00840012
7.63072e-08
0.00840014
2.33559e-07
0.00840055
4.40241e-07
0.00840066
1.35433e-06
0.00840312
2.54017e-06
0.00840371
7.99115e-06
0.00841961
1.47793e-05
0.008425
4.9612e-05
0.00854214
9.34278e-05
0.00871584
0.000346918
0.00972224
0.00087745
0.0128249
0.00291796
0.0139139
0.00845236
0.00994469
0.0140086
0.00840003
6.38536e-13
0.00840003
4.55264e-12
0.00840003
1.4177e-11
0.00840003
4.28267e-11
0.00840003
1.02314e-10
0.00840003
2.72748e-10
0.00840003
6.1958e-10
0.00840003
1.60653e-09
0.00840003
3.61173e-09
0.00840004
9.28884e-09
0.00840005
2.08373e-08
0.00840006
5.33447e-08
0.00840016
1.19541e-07
0.00840023
3.04999e-07
0.00840082
6.8263e-07
0.00840127
1.75208e-06
0.00840487
3.86931e-06
0.00840694
1.05464e-05
0.00843239
2.19008e-05
0.00844521
6.92556e-05
0.00863327
0.000143569
0.00892181
0.000544322
0.0103139
0.00146137
0.0132923
0.0051348
0.00915921
0.0139733
0.00840003
2.57233e-13
0.00840003
3.2092e-12
0.00840003
7.70814e-12
0.00840003
2.89816e-11
0.00840003
5.64617e-11
0.00840003
1.82739e-10
0.00840003
3.42996e-10
0.00840003
1.07445e-09
0.00840003
2.00396e-09
0.00840003
6.22826e-09
0.00840004
1.16118e-08
0.00840005
3.60124e-08
0.00840009
6.713e-08
0.00840014
2.08269e-07
0.00840038
3.8736e-07
0.00840067
1.20722e-06
0.00840199
2.22966e-06
0.00840422
7.07641e-06
0.0084114
1.29022e-05
0.00843191
4.28e-05
0.00848292
8.1328e-05
0.00871977
0.000283823
0.00940593
0.00072993
0.0120418
0.00242199
0.00700212
0.0139709
0.00840003
2.57428e-13
0.00840003
1.48502e-12
0.00840003
5.49911e-12
0.00840003
1.42469e-11
0.00840003
3.92918e-11
0.00840003
9.06853e-11
0.00840003
2.36112e-10
0.00840003
5.32411e-10
0.00840003
1.36752e-09
0.00840003
3.07015e-09
0.00840004
7.851e-09
0.00840005
1.76213e-08
0.00840006
4.49462e-08
0.00840015
1.00938e-07
0.00840022
2.5704e-07
0.00840077
5.7784e-07
0.00840115
1.47527e-06
0.0084045
3.30616e-06
0.00840648
8.67273e-06
0.00842813
1.89596e-05
0.00844231
5.40268e-05
0.00859362
0.000120303
0.00888035
0.00038692
0.0101098
0.00110557
0.00357615
0.0130976
0.00840003
1.93887e-13
0.00840003
7.60498e-13
0.00840003
3.54513e-12
0.00840003
7.5565e-12
0.00840003
2.49026e-11
0.00840003
4.83262e-11
0.00840003
1.4862e-10
0.00840003
2.83141e-10
0.00840003
8.57253e-10
0.00840003
1.62694e-09
0.00840003
4.90838e-09
0.00840004
9.30565e-09
0.00840005
2.8053e-08
0.00840009
5.3115e-08
0.00840015
1.60235e-07
0.00840037
3.02417e-07
0.00840071
9.16353e-07
0.00840202
1.71855e-06
0.0084041
5.28287e-06
0.00841145
9.85515e-06
0.00842658
3.10536e-05
0.00847526
6.14297e-05
0.00862126
0.000198344
0.00920742
0.000513095
0.00168524
0.0109312
0.00840003
6.23573e-14
0.00840003
5.80662e-13
0.00840003
1.523e-12
0.00840003
5.32573e-12
0.00840003
1.10289e-11
0.00840003
3.35379e-11
0.00840003
6.64128e-11
0.00840003
1.95785e-10
0.00840003
3.84251e-10
0.00840003
1.12483e-09
0.00840003
2.20488e-09
0.00840003
6.44535e-09
0.00840005
1.26387e-08
0.00840005
3.6943e-08
0.00840013
7.24496e-08
0.00840017
2.11934e-07
0.00840061
4.15281e-07
0.00840085
1.21881e-06
0.00840337
2.38488e-06
0.00840474
7.07234e-06
0.00841952
1.39216e-05
0.00843136
4.23434e-05
0.00852647
8.76026e-05
0.00872998
0.000281187
0.000744624
0.00961161
0.00840003
4.4863e-14
0.00840003
2.63462e-13
0.00840003
9.7035e-13
0.00840003
2.52102e-12
0.00840003
6.93197e-12
0.00840003
1.6021e-11
0.00840003
4.15826e-11
0.00840003
9.37582e-11
0.00840003
2.4012e-10
0.00840003
5.38424e-10
0.00840003
1.37418e-09
0.00840003
3.07815e-09
0.00840004
7.84484e-09
0.00840005
1.75732e-08
0.00840007
4.47297e-08
0.00840017
1.00208e-07
0.00840026
2.54811e-07
0.00840083
5.71007e-07
0.00840141
1.45477e-06
0.0084048
3.25325e-06
0.00840818
8.43949e-06
0.00842999
1.86876e-05
0.00845267
5.12039e-05
0.00860492
0.000116671
0.000354193
0.00892856
0.00840003
2.65484e-14
0.00840003
1.42915e-13
0.00840003
5.3665e-13
0.00840003
1.38094e-12
0.00840003
3.81523e-12
0.00840003
8.78246e-12
0.00840003
2.2817e-11
0.00840003
5.1282e-11
0.00840003
1.31264e-10
0.00840003
2.93285e-10
0.00840003
7.477e-10
0.00840003
1.66735e-09
0.00840003
4.24708e-09
0.00840004
9.46108e-09
0.00840005
2.41096e-08
0.00840009
5.36601e-08
0.00840017
1.36878e-07
0.00840039
3.04302e-07
0.00840086
7.77576e-07
0.00840212
1.72591e-06
0.00840498
4.43254e-06
0.00841211
9.87739e-06
0.00843044
2.5646e-05
0.00847721
6.03587e-05
0.000161838
0.00862648
0.00840003
1.68481e-14
0.00840003
6.89283e-14
0.00840003
3.09674e-13
0.00840003
6.85481e-13
0.00840003
2.17992e-12
0.00840003
4.3814e-12
0.00840003
1.29759e-11
0.00840003
2.55892e-11
0.00840003
7.44162e-11
0.00840003
1.46188e-10
0.00840003
4.22617e-10
0.00840003
8.29637e-10
0.00840003
2.39186e-09
0.00840004
4.69553e-09
0.00840004
1.35135e-08
0.00840007
2.65275e-08
0.00840011
7.62571e-08
0.00840024
1.49544e-07
0.00840047
4.30123e-07
0.00840121
8.41363e-07
0.00840254
2.43871e-06
0.00840688
4.72085e-06
0.00841462
1.42663e-05
0.00844212
2.67437e-05
8.97487e-05
0.00849739
0.00840003
6.06993e-15
0.00840003
4.30278e-14
0.00840003
1.35937e-13
0.00840003
4.03856e-13
0.00840003
9.75901e-13
0.00840003
2.5493e-12
0.00840003
5.83782e-12
0.00840003
1.48083e-11
0.00840003
3.34946e-11
0.00840003
8.42645e-11
0.00840003
1.90023e-10
0.00840003
4.7654e-10
0.00840003
1.07379e-09
0.00840003
2.68849e-09
0.00840004
6.05663e-09
0.00840005
1.51545e-08
0.00840008
3.41315e-08
0.00840012
8.54587e-08
0.00840033
1.92358e-07
0.00840054
4.82849e-07
0.00840171
1.08695e-06
0.00840292
2.7468e-06
0.00840988
6.20089e-06
0.00841688
1.60374e-05
3.63269e-05
0.00846163
0.00840003
2.25568e-15
0.00840003
2.47273e-14
0.00840003
6.43921e-14
0.00840003
2.24279e-13
0.00840003
4.67436e-13
0.00840003
1.40451e-12
0.00840003
2.80665e-12
0.00840003
8.14717e-12
0.00840003
1.61321e-11
0.00840003
4.63996e-11
0.00840003
9.16755e-11
0.00840003
2.6285e-10
0.00840003
5.19087e-10
0.00840003
1.4857e-09
0.00840003
2.934e-09
0.00840004
8.38559e-09
0.00840005
1.65611e-08
0.00840008
4.72829e-08
0.00840016
9.33503e-08
0.00840032
2.66502e-07
0.00840079
5.25455e-07
0.0084017
1.50383e-06
0.0084045
2.95503e-06
0.0084101
8.54916e-06
1.67585e-05
0.00842726
0.00840003
1.93381e-15
0.00840003
9.26193e-15
0.00840003
3.92248e-14
0.00840003
9.09168e-14
0.00840003
2.78027e-13
0.00840003
5.79476e-13
0.00840003
1.65768e-12
0.00840003
3.38144e-12
0.00840003
9.51071e-12
0.00840003
1.9312e-11
0.00840003
5.40293e-11
0.00840003
1.09628e-10
0.00840003
3.05862e-10
0.00840003
6.20834e-10
0.00840003
1.72789e-09
0.00840004
3.5097e-09
0.00840004
9.74327e-09
0.00840006
1.98026e-08
0.00840009
5.48461e-08
0.00840023
1.11467e-07
0.00840037
3.0838e-07
0.00840115
6.26099e-07
0.00840193
1.73874e-06
0.00840645
3.50493e-06
1.00196e-05
0.00841063
0.00840003
8.59745e-16
0.00840003
5.17896e-15
0.00840003
1.66625e-14
0.00840003
4.9486e-14
0.00840003
1.19572e-13
0.00840003
3.13693e-13
0.00840003
7.16864e-13
0.00840003
1.82656e-12
0.00840003
4.12432e-12
0.00840003
1.04226e-11
0.00840003
2.34593e-11
0.00840003
5.91107e-11
0.00840003
1.32912e-10
0.00840003
3.34288e-10
0.00840003
7.51255e-10
0.00840003
1.88587e-09
0.00840004
4.23599e-09
0.00840004
1.06093e-08
0.00840007
2.3814e-08
0.00840011
5.94923e-08
0.00840026
1.33401e-07
0.00840046
3.32533e-07
0.00840133
7.45059e-07
0.00840244
1.86129e-06
4.15609e-06
0.00840756
0.00840003
1.31649e-16
0.00840003
2.80074e-15
0.00840003
7.44915e-15
0.00840003
2.55549e-14
0.00840003
5.45591e-14
0.00840003
1.60723e-13
0.00840003
3.28371e-13
0.00840003
9.33637e-13
0.00840003
1.89041e-12
0.00840003
5.32091e-12
0.00840003
1.07551e-11
0.00840003
3.01339e-11
0.00840003
6.09153e-11
0.00840003
1.70116e-10
0.00840003
3.44044e-10
0.00840003
9.58019e-10
0.00840003
1.93768e-09
0.00840004
5.38271e-09
0.00840005
1.08787e-08
0.00840007
3.01815e-08
0.00840013
6.08706e-08
0.00840024
1.69003e-07
0.00840058
3.39633e-07
0.00840118
9.4724e-07
1.89149e-06
0.00840305
0.00840003
1.96647e-16
0.00840003
8.55978e-16
0.00840003
4.2414e-15
0.00840003
9.87714e-15
0.00840003
2.97512e-14
0.00840003
6.36667e-14
0.00840003
1.78664e-13
0.00840003
3.72041e-13
0.00840003
1.02625e-12
0.00840003
2.12555e-12
0.00840003
5.82759e-12
0.00840003
1.20569e-11
0.00840003
3.29418e-11
0.00840003
6.81296e-11
0.00840003
1.85655e-10
0.00840003
3.83798e-10
0.00840003
1.04388e-09
0.00840003
2.15604e-09
0.00840004
5.859e-09
0.00840005
1.20838e-08
0.00840007
3.28528e-08
0.00840016
6.76378e-08
0.00840025
1.84289e-07
0.00840073
3.78786e-07
1.03713e-06
0.00840123
0.00840003
1.74719e-16
0.00840003
7.23461e-16
0.00840003
1.61072e-15
0.00840003
5.55933e-15
0.00840003
1.17223e-14
0.00840003
3.33887e-14
0.00840003
6.97647e-14
0.00840003
1.94306e-13
0.00840003
4.01825e-13
0.00840003
1.10815e-12
0.00840003
2.28749e-12
0.00840003
6.27581e-12
0.00840003
1.29478e-11
0.00840003
3.54016e-11
0.00840003
7.30089e-11
0.00840003
1.99125e-10
0.00840003
4.10434e-10
0.00840003
1.11784e-09
0.00840003
2.30229e-09
0.00840004
6.26981e-09
0.00840006
1.2902e-08
0.00840007
3.51771e-08
0.00840017
7.23472e-08
0.00840028
1.97667e-07
4.06611e-07
0.00840081
0.00840003
-4.03052e-17
0.00840003
1.14139e-16
0.00840003
6.42498e-16
0.00840003
1.91546e-15
0.00840003
5.48801e-15
0.00840003
1.33534e-14
0.00840003
3.39961e-14
0.00840003
7.81754e-14
0.00840003
1.95955e-13
0.00840003
4.46303e-13
0.00840003
1.11355e-12
0.00840003
2.53106e-12
0.00840003
6.2983e-12
0.00840003
1.42929e-11
0.00840003
3.54953e-11
0.00840003
8.04388e-11
0.00840003
1.9947e-10
0.00840003
4.51494e-10
0.00840003
1.11888e-09
0.00840003
2.53046e-09
0.00840004
6.27259e-09
0.00840006
1.4182e-08
0.00840008
3.51916e-08
0.00840018
7.95866e-08
1.97793e-07
0.00840031
0.00840003
-3.37187e-17
0.00840003
-6.44558e-17
0.00840003
1.68512e-16
0.00840003
7.10776e-16
0.00840003
2.52928e-15
0.00840003
5.53873e-15
0.00840003
1.58056e-14
0.00840003
3.26884e-14
0.00840003
9.08319e-14
0.00840003
1.86602e-13
0.00840003
5.15618e-13
0.00840003
1.05905e-12
0.00840003
2.91592e-12
0.00840003
5.98635e-12
0.00840003
1.64248e-11
0.00840003
3.37113e-11
0.00840003
9.22337e-11
0.00840003
1.89242e-10
0.00840003
5.16846e-10
0.00840003
1.06004e-09
0.00840003
2.89341e-09
0.00840004
5.93313e-09
0.00840005
1.61996e-08
0.00840009
3.32237e-08
9.07549e-08
0.00840016
0.00840003
1.191e-16
0.00840003
2.92626e-16
0.00840003
3.83157e-16
0.00840003
5.98344e-16
0.00840003
1.23499e-15
0.00840003
2.56026e-15
0.00840003
6.27479e-15
0.00840003
1.51327e-14
0.00840003
3.50741e-14
0.00840003
8.68374e-14
0.00840003
1.99458e-13
0.00840003
4.92844e-13
0.00840003
1.12945e-12
0.00840003
2.78769e-12
0.00840003
6.37559e-12
0.00840003
1.57059e-11
0.00840003
3.58594e-11
0.00840003
8.8178e-11
0.00840003
2.01045e-10
0.00840003
4.93739e-10
0.00840003
1.12463e-09
0.00840003
2.76034e-09
0.00840004
6.28511e-09
0.00840005
1.54282e-08
3.51362e-08
0.0084001
0.00840003
-2.65901e-17
0.00840003
4.59973e-17
0.00840003
1.56505e-16
0.00840003
2.57986e-16
0.00840003
4.74501e-16
0.00840003
1.00717e-15
0.00840003
2.08207e-15
0.00840003
6.06459e-15
0.00840003
1.3833e-14
0.00840003
3.65282e-14
0.00840003
8.18402e-14
0.00840003
2.09581e-13
0.00840003
4.66495e-13
0.00840003
1.18693e-12
0.00840003
2.63734e-12
0.00840003
6.68966e-12
0.00840003
1.48533e-11
0.00840003
3.7579e-11
0.00840003
8.33506e-11
0.00840003
2.10461e-10
0.00840003
4.6631e-10
0.00840003
1.17616e-09
0.00840004
2.6039e-09
0.00840004
6.56634e-09
1.4532e-08
0.00840006
0.00840003
1.70491e-17
0.00840003
7.39968e-17
0.00840003
1.28776e-16
0.00840003
1.77647e-16
0.00840003
2.47957e-16
0.00840003
4.84286e-16
0.00840003
1.0545e-15
0.00840003
2.60425e-15
0.00840003
5.80712e-15
0.00840003
1.52609e-14
0.00840003
3.20017e-14
0.00840003
8.76943e-14
0.00840003
1.8215e-13
0.00840003
4.98004e-13
0.00840003
1.03331e-12
0.00840003
2.81235e-12
0.00840003
5.8317e-12
0.00840003
1.58171e-11
0.00840003
3.27782e-11
0.00840003
8.86358e-11
0.00840003
1.83574e-10
0.00840003
4.95254e-10
0.00840003
1.02526e-09
0.00840003
2.76182e-09
5.71683e-09
0.00840004
0.00840003
1.36528e-16
0.00840003
1.88651e-16
0.00840003
3.06368e-16
0.00840003
3.78631e-16
0.00840003
4.20914e-16
0.00840003
5.54109e-16
0.00840003
7.61544e-16
0.00840003
1.24092e-15
0.00840003
2.32279e-15
0.00840003
4.8521e-15
0.00840003
1.27609e-14
0.00840003
2.62933e-14
0.00840003
7.23752e-14
0.00840003
1.49465e-13
0.00840003
4.10504e-13
0.00840003
8.46592e-13
0.00840003
2.31777e-12
0.00840003
4.7749e-12
0.00840003
1.30378e-11
0.00840003
2.68331e-11
0.00840003
7.30767e-11
0.00840003
1.50274e-10
0.00840003
4.08264e-10
0.00840003
8.39165e-10
2.27484e-09
0.00840003
0.00840003
0.00840003
0.00840003
0.00840003
0.00840003
0.00840003
0.00840003
0.00840003
0.00840003
0.00840003
0.00840003
0.00840003
0.00840003
0.00840003
0.00840003
0.00840003
0.00840003
0.00840003
0.00840003
0.00840003
0.00840003
0.00840003
0.00840003
0.00840003
0.00840003
0.0045654
0.00396662
0.00299894
0.00156785
0.00232877
0.000665736
0.00206052
0.000258296
0.00202272
2.54517e-05
0.0021537
-0.000145849
0.0023237
-0.000186983
0.00243834
-0.000131977
0.00248472
-6.3937e-05
0.00248411
-1.69056e-05
0.00245611
1.1279e-05
0.00242763
1.25341e-05
0.00241333
-1.45178e-06
0.00241124
-1.3236e-05
0.00241551
-1.96736e-05
0.00242228
-2.1221e-05
0.00242895
-2.01758e-05
0.00243367
-1.84988e-05
0.00243787
-1.74393e-05
0.00244269
-1.72745e-05
0.00244872
-1.76916e-05
0.00245582
-1.81843e-05
0.00246334
-1.8457e-05
0.00247058
-1.84148e-05
0.00247701
-1.811e-05
0.00248239
-1.76392e-05
0.00248661
-1.709e-05
0.00248963
-1.65167e-05
0.00249147
-1.59511e-05
0.00249217
-1.5407e-05
0.0024918
-1.4888e-05
0.00249052
-1.43907e-05
0.00248851
-1.39068e-05
0.00248598
-1.34252e-05
0.00248311
-1.29359e-05
0.00248007
-1.24343e-05
0.00247691
-1.19208e-05
0.0024736
-1.13944e-05
0.00247005
-1.08541e-05
0.00246612
-1.03106e-05
0.00246164
-9.77459e-06
0.00245649
-9.24811e-06
0.00245066
-8.74067e-06
0.00244415
-8.24782e-06
0.00243704
-7.76197e-06
0.00242948
-7.29763e-06
0.0024216
-6.84011e-06
0.00241353
-6.38968e-06
0.00240542
-5.94977e-06
0.00239736
-5.52814e-06
0.00238955
-5.09393e-06
0.00238204
-4.66147e-06
0.00237501
-4.23896e-06