/*--------------------------------*- C++ -*----------------------------------*\
| =========                 |                                                 |
| \\      /  F ield         | OpenFOAM: The Open Source CFD Toolbox           |
|  \\    /   O peration     | Version:  2412                                  |
|   \\  /    A nd           | Website:  www.openfoam.com                      |
|    \\/     M anipulation  |                                                 |
\*---------------------------------------------------------------------------*/
FoamFile
{
    version     2.0;
    format      ascii;
    arch        "LSB;label=32;scalar=64";
    class       volScalarField;
    location    "1";
    object      T;
}
// * * * * * * * * * * * * * * * * * * * * * * * * * * * * * * * * * * * * * //

dimensions      [0 0 0 1 0 0 0];

internalField   nonuniform List<scalar> 
5250
(
1
1.00001
1.00002
1.00004
1.00013
1.00023
1.00073
1.00133
1.00414
1.00811
1.02263
1.05508
1.13159
1.39094
2.08728
2.71012
2.76777
2.76591
2.77142
2.80274
2.82047
2.8516
2.86549
2.87695
3.08793
1
1.00001
1.00002
1.00004
1.00012
1.00022
1.00072
1.00131
1.00409
1.00799
1.02238
1.05396
1.1299
1.38231
2.0722
2.69928
2.76729
2.76582
2.77108
2.80174
2.81923
2.85003
2.86333
2.87457
3.08592
1
1.00001
1.00002
1.00004
1.00012
1.00022
1.0007
1.00128
1.00398
1.00775
1.02191
1.05165
1.12671
1.36425
2.04163
2.67067
2.76495
2.76492
2.76979
2.79942
2.81667
2.84692
2.86014
2.87094
3.08018
1
1.00001
1.00002
1.00004
1.00012
1.00021
1.00067
1.00123
1.00384
1.00741
1.02122
1.04873
1.1221
1.34049
1.99901
2.62119
2.7636
2.764
2.76705
2.79462
2.81146
2.84039
2.85232
2.86308
3.07157
1
1.00001
1.00002
1.00003
1.00011
1.0002
1.00064
1.00117
1.00366
1.00704
1.02024
1.04591
1.11598
1.31732
1.93976
2.56627
2.7662
2.76243
2.76207
2.78627
2.80208
2.83005
2.84436
2.85156
3.05106
1
1
1.00002
1.00003
1.0001
1.00019
1.0006
1.0011
1.00345
1.0066
1.01912
1.04292
1.10908
1.29548
1.87379
2.54453
2.75843
2.75415
2.75254
2.77645
2.79404
2.81811
2.82691
2.83669
3.03419
1
1
1.00002
1.00003
1.00009
1.00017
1.00055
1.001
1.00318
1.00605
1.01766
1.03964
1.10007
1.27529
1.80261
2.50196
2.74554
2.74363
2.74226
2.76524
2.77962
2.79747
2.81306
2.81616
2.99589
1
1
1.00001
1.00003
1.00008
1.00015
1.00049
1.00089
1.00279
1.00546
1.01511
1.03706
1.0872
1.25823
1.6811
2.4642
2.73059
2.72935
2.73379
2.75494
2.76835
2.78292
2.78756
2.79187
2.9598
1
1
1.00001
1.00002
1.00007
1.00013
1.00042
1.00077
1.00232
1.00483
1.0128
1.03356
1.07678
1.23658
1.58621
2.38346
2.70557
2.72372
2.72376
2.73069
2.74794
2.75438
2.75583
2.74267
2.87519
1
1
1.00001
1.00002
1.00006
1.00011
1.00034
1.00066
1.00185
1.00423
1.01038
1.0294
1.06445
1.20969
1.49784
2.24466
2.65373
2.71509
2.71342
2.71369
2.72014
2.72061
2.71976
2.69424
2.77713
1
1
1.00001
1.00002
1.00004
1.00012
1.00023
1.00067
1.00144
1.0037
1.00957
1.02223
1.06644
1.14196
1.46644
2.20044
2.57476
2.68321
2.68826
2.69487
2.6988
2.69032
2.66778
2.60405
2.52301
1
1
1.00001
1.00001
1.00004
1.00008
1.00024
1.00047
1.00133
1.00299
1.00735
1.02032
1.04559
1.14134
1.32536
1.94576
2.51259
2.6639
2.65789
2.65698
2.65394
2.64111
2.60778
2.52042
2.39329
1
1
1.00001
1.00001
1.00004
1.00007
1.00022
1.0004
1.00128
1.00236
1.00727
1.01483
1.03975
1.10252
1.25252
1.67237
2.451
2.62592
2.61888
2.62226
2.61927
2.60605
2.57026
2.4913
2.33971
1
1
1.00001
1.00001
1.00003
1.00005
1.00018
1.00032
1.00103
1.00189
1.00583
1.01177
1.03208
1.083
1.19487
1.57343
2.35906
2.59865
2.60914
2.60348
2.58968
2.56748
2.52889
2.46732
2.33874
1
1
1
1.00001
1.00002
1.00004
1.00014
1.00025
1.00081
1.00151
1.00444
1.00948
1.02435
1.06709
1.14742
1.47401
2.17478
2.52433
2.59416
2.58173
2.57061
2.54507
2.49845
2.4464
2.34063
1
1
1
1.00001
1.00002
1.00003
1.00011
1.0002
1.00065
1.00119
1.00374
1.00724
1.02054
1.04851
1.11711
1.33933
1.9217
2.41765
2.56863
2.56024
2.54238
2.51844
2.4701
2.42977
2.34724
1
1
1
1
1.00001
1.00003
1.00009
1.00015
1.0005
1.0009
1.00286
1.0054
1.01604
1.03444
1.09115
1.2324
1.69472
2.24101
2.50086
2.51333
2.50625
2.49096
2.44704
2.40204
2.342
1
1
1
1
1.00001
1.00002
1.00006
1.00011
1.00036
1.00066
1.00202
1.00398
1.01107
1.02625
1.06434
1.18364
1.45634
2.09149
2.44064
2.48042
2.46365
2.45336
2.42689
2.37259
2.32189
1
1
1
1
1.00001
1.00001
1.00005
1.00008
1.00026
1.00048
1.00149
1.0029
1.00802
1.01891
1.046
1.13285
1.31369
1.81092
2.31782
2.44821
2.44422
2.42416
2.40566
2.36294
2.30587
1
1
1
1
1
1.00001
1.00002
1.00008
1.00014
1.00045
1.00085
1.00259
1.0051
1.01455
1.03212
1.08491
1.20848
1.63716
2.1157
2.38037
2.39816
2.3878
2.36187
2.33938
2.29408
1
1
1
1
1
1.00001
1.00002
1.00006
1.0001
1.00032
1.00059
1.00184
1.00349
1.01028
1.02217
1.05618
1.14853
1.3859
1.90148
2.27889
2.36659
2.36386
2.34371
2.30351
2.27046
1
1
1
1
1
1
1.00002
1.00003
1.00009
1.00016
1.0005
1.00097
1.00285
1.00582
1.01594
1.03666
1.09449
1.23656
1.71561
2.10374
2.29291
2.33073
2.32374
2.29786
2.25193
1
1
1
1
1
1
1.00001
1.00002
1.00004
1.00014
1.00026
1.00077
1.00152
1.00414
1.00959
1.02305
1.06552
1.13858
1.44073
2.01492
2.20591
2.24819
2.27206
2.26863
2.24631
1
1
1
1
1
1
1.00001
1.00001
1.00004
1.00007
1.00021
1.0004
1.00118
1.00241
1.00625
1.01552
1.03611
1.10419
1.23516
1.64271
2.11783
2.23083
2.23598
2.22876
2.21835
1
1
1
1
1
1
1
1.00001
1.00002
1.00006
1.00011
1.00033
1.00063
1.00191
1.00372
1.01065
1.02342
1.05951
1.15279
1.41431
1.88976
2.17329
2.20839
2.20768
2.1941
1
1
1
1
1
1
1
1.00001
1.00001
1.00004
1.00007
1.00021
1.00039
1.0012
1.00227
1.00663
1.0141
1.0356
1.0912
1.22004
1.56371
2.02368
2.17472
2.17963
2.1711
1
1
1
1
1
1
1
1
1.00001
1.00002
1.00005
1.0001
1.00031
1.00058
1.00174
1.00342
1.00973
1.02112
1.0552
1.13324
1.38553
1.75985
2.08326
2.15215
2.1519
1
1
1
1
1
1
1
1
1
1.00001
1.00003
1.00008
1.00014
1.00044
1.00084
1.00246
1.00495
1.01357
1.03016
1.07778
1.18659
1.54788
1.88438
2.07987
2.11042
1
1
1
1
1
1
1
1
1
1.00001
1.00002
1.00004
1.00011
1.0002
1.00062
1.00117
1.00336
1.00715
1.01796
1.04745
1.1029
1.30845
1.71993
1.99086
2.07738
1
1
1
1
1
1
1
1
1
1
1.00001
1.00002
1.00007
1.00012
1.00038
1.00069
1.00214
1.00402
1.01195
1.02402
1.06794
1.14731
1.46935
1.76976
1.9999
1
1
1
1
1
1
1
1
1
1
1
1.00001
1.00003
1.00008
1.00016
1.00048
1.00091
1.00266
1.00539
1.0143
1.03432
1.07976
1.21484
1.5515
1.87212
1
1
1
1
1
1
1
1
1
1
1
1.00001
1.00002
1.00005
1.00009
1.00027
1.00051
1.00155
1.00293
1.00856
1.01756
1.04756
1.10816
1.30816
1.62509
1
1
1
1
1
1
1
1
1
1
1
1
1.00001
1.00002
1.00006
1.00012
1.00035
1.00066
1.00194
1.00385
1.0108
1.02277
1.06174
1.13736
1.41931
1
1
1
1
1
1
1
1
1
1
1
1
1
1.00001
1.00003
1.00008
1.00014
1.00043
1.00083
1.0024
1.00483
1.01283
1.02986
1.07013
1.18267
1
1
1
1
1
1
1
1
1
1
1
1
1
1.00001
1.00001
1.00004
1.00008
1.00023
1.00043
1.00131
1.00244
1.00717
1.01446
1.03857
1.08897
1
1
1
1
1
1
1
1
1
1
1
1
1
1
1.00001
1.00002
1.00004
1.00012
1.00022
1.00067
1.00123
1.00366
1.00724
1.01953
1.04659
1
1
1
1
1
1
1
1
1
1
1
1
1
1
1
1.00001
1.00002
1.00005
1.00014
1.00026
1.00078
1.00148
1.00429
1.00867
1.0231
1
1
1
1
1
1
1
1
1
1
1
1
1
1
1
1
1.00001
1.00002
1.00007
1.00013
1.0004
1.00073
1.00217
1.00421
1.01155
1
1
1
1
1
1
1
1
1
1
1
1
1
1
1
1
1
1.00001
1.00003
1.00008
1.00015
1.00043
1.00083
1.00237
1.00484
1
1
1
1
1
1
1
1
1
1
1
1
1
1
1
1
1
1.00001
1.00002
1.00003
1.00009
1.00017
1.00049
1.00094
1.00266
1
1
1
1
1
1
1
1
1
1
1
1
1
1
1
1
1
1
1.00001
1.00001
1.00004
1.00008
1.00024
1.00044
1.00132
1
1
1
1
1
1
1
1
1
1
1
1
1
1
1
1
1
1
1
1.00001
1.00001
1.00004
1.00008
1.00025
1.00047
1
1
1
1
1
1
1
1
1
1
1
1
1
1
1
1
1
1
1
1
1.00001
1.00002
1.00005
1.00009
1.00026
1
1
1
1
1
1
1
1
1
1
1
1
1
1
1
1
1
1
1
1
1
1.00001
1.00002
1.00005
1.00009
1
1
1
1
1
1
1
1
1
1
1
1
1
1
1
1
1
1
1
1
1
1
1.00001
1.00002
1.00004
1
1
1
1
1
1
1
1
1
1
1
1
1
1
1
1
1
1
1
1
1
1
1
1.00001
1.00002
1
1
1
1
1
1
1
1
1
1
1
1
1
1
1
1
1
1
1
1
1
1
1
1
1.00001
1
1
1
1
1
1
1
1
1
1
1
1
1
1
1
1
1
1
1
1
1
1
1
1
1
1
1
1
1
1
1
1
1
1
1
1
1
1
1
1
1
1
1
1
1
1
1
1
1
1
1
1
1
1
1
1
1
1
1
1
1
1
1
1
1
1
1
1
1
1
1
1
1
1
1
2.4915
2.38825
2.38997
2.41821
2.51291
2.56185
2.62816
2.65568
2.67803
2.6793
2.68408
2.68736
2.69453
2.70167
2.70855
2.71388
2.71544
2.71516
2.71415
2.71193
2.70844
2.70393
2.69882
2.6935
2.6883
2.68337
2.67874
2.67445
2.67052
2.66701
2.66395
2.66127
2.65887
2.6566
2.65427
2.65173
2.64891
2.64583
2.6426
2.6394
2.63647
2.63395
2.63205
2.63068
2.62993
2.6296
2.62961
2.6297
2.62984
2.62988
2.62977
2.62934
2.62842
2.62684
2.62474
2.62209
2.61872
2.6149
2.61065
2.60562
2.60017
2.59452
2.58747
2.57997
2.572
2.56311
2.55407
2.54485
2.53589
2.52625
2.51877
2.51193
2.50444
2.49695
2.49011
2.48381
2.47742
2.4712
2.46569
2.46126
2.45759
2.45494
2.4535
2.45336
2.45408
2.45653
2.4625
2.46871
2.47405
2.47549
2.47609
2.4747
2.4714
2.45647
2.43967
2.39001
2.35468
2.267
2.22319
2.08908
2.32153
2.25329
2.2166
2.18805
2.16081
2.12407
2.11286
2.11763
2.12572
2.14974
2.16096
2.1835
2.1852
2.18936
2.19039
2.1906
2.19108
2.19143
2.19133
2.1907
2.18911
2.1866
2.18344
2.17973
2.17561
2.17133
2.16706
2.16305
2.15938
2.15607
2.15314
2.15053
2.14821
2.14613
2.1442
2.14233
2.14048
2.13857
2.1365
2.13434
2.1322
2.13013
2.12822
2.1267
2.12588
2.12574
2.12585
2.12624
2.12715
2.12846
2.13008
2.13199
2.13393
2.13606
2.13819
2.14009
2.14188
2.14321
2.14401
2.14427
2.14417
2.14371
2.14262
2.1408
2.13911
2.1368
2.13414
2.13206
2.12834
2.12395
2.12018
2.11612
2.1114
2.10666
2.10248
2.09892
2.0952
2.09123
2.08732
2.08355
2.0798
2.07589
2.07229
2.06888
2.0658
2.06305
2.06139
2.06093
2.06126
2.06262
2.06592
2.06855
2.07076
2.07083
2.0705
2.06705
2.06258
2.04545
2.03371
1.98025
2.27131
2.20808
2.14664
2.08317
2.01482
1.96736
1.93142
1.93161
1.9363
1.94531
1.96664
1.97474
1.99038
1.99124
1.99404
1.99484
1.99455
1.99379
1.99271
1.99146
1.99002
1.9884
1.98653
1.98434
1.98183
1.97905
1.97613
1.9732
1.97034
1.96759
1.96497
1.96252
1.96027
1.95819
1.95624
1.95438
1.95258
1.95081
1.94901
1.94721
1.94556
1.94434
1.94375
1.94368
1.9438
1.94425
1.94529
1.94682
1.94846
1.95023
1.95209
1.95388
1.95569
1.95768
1.95985
1.96239
1.96532
1.96837
1.97152
1.97467
1.97735
1.97933
1.98084
1.98176
1.98216
1.98221
1.98201
1.98154
1.98106
1.98
1.9784
1.97776
1.97613
1.97423
1.97211
1.97069
1.9688
1.96691
1.96526
1.96351
1.96226
1.96011
1.95852
1.9561
1.95417
1.95151
1.94985
1.94786
1.947
1.94532
1.94438
1.94243
1.9415
1.93921
1.93749
1.93181
1.92654
1.90982
1.89992
1.85682
2.23796
2.16276
2.0916
2.02726
1.97125
1.92389
1.88518
1.85861
1.83959
1.8359
1.83843
1.84423
1.85136
1.86083
1.86786
1.86969
1.87221
1.87214
1.8714
1.86963
1.86766
1.86573
1.86374
1.86153
1.85896
1.85595
1.85257
1.84895
1.8453
1.8418
1.8386
1.83581
1.83348
1.83161
1.83021
1.82932
1.82893
1.82889
1.82899
1.8293
1.82991
1.83063
1.83134
1.83183
1.83198
1.83189
1.83147
1.83061
1.83005
1.82996
1.83006
1.83042
1.83135
1.83335
1.83649
1.8404
1.84481
1.84935
1.85367
1.85747
1.86067
1.86321
1.86482
1.8658
1.86654
1.86705
1.86759
1.86854
1.86962
1.87056
1.87223
1.87357
1.87432
1.87508
1.8756
1.87616
1.87646
1.87648
1.87646
1.87647
1.87652
1.87646
1.87629
1.87564
1.87489
1.8729
1.87131
1.8678
1.86562
1.86121
1.85911
1.85498
1.85299
1.84843
1.84551
1.83788
1.83243
1.8165
1.80752
1.77069
2.23974
2.1542
2.08352
2.01844
1.95957
1.90717
1.86006
1.82068
1.78633
1.76485
1.75049
1.75051
1.75261
1.75765
1.76097
1.76877
1.76994
1.77237
1.7734
1.77297
1.77166
1.76912
1.7662
1.76295
1.75952
1.75596
1.75238
1.74893
1.74587
1.74344
1.74172
1.74066
1.74019
1.74016
1.74032
1.74086
1.74176
1.74262
1.74336
1.74388
1.74405
1.74399
1.74365
1.74282
1.74208
1.74185
1.74189
1.74207
1.74257
1.74367
1.74587
1.74902
1.75298
1.75756
1.76254
1.76764
1.77262
1.77716
1.78098
1.78409
1.7864
1.78804
1.78934
1.79045
1.79123
1.79225
1.79373
1.79566
1.79784
1.80061
1.80332
1.80593
1.8085
1.81091
1.81216
1.81398
1.81613
1.81734
1.81867
1.81965
1.82066
1.82116
1.82131
1.82112
1.82063
1.81901
1.81758
1.81439
1.8125
1.80862
1.80665
1.80246
1.80012
1.7945
1.7907
1.781
1.77432
1.75601
1.74592
1.70747
2.25026
2.16174
2.08774
2.02199
1.96282
1.90992
1.86183
1.82125
1.7851
1.75472
1.73034
1.71187
1.70168
1.69616
1.69651
1.69764
1.69919
1.70076
1.70096
1.70062
1.69948
1.69684
1.69237
1.68719
1.68219
1.67781
1.67409
1.67106
1.66884
1.66745
1.66673
1.66649
1.6665
1.66666
1.66703
1.66738
1.66766
1.66781
1.66782
1.6677
1.66731
1.66674
1.66648
1.66647
1.66657
1.66687
1.66754
1.66883
1.67072
1.67319
1.67631
1.68
1.68422
1.68879
1.6935
1.69815
1.70251
1.70653
1.71007
1.71324
1.71592
1.71827
1.72028
1.7227
1.72502
1.72768
1.73066
1.73448
1.73801
1.74171
1.74572
1.74987
1.75274
1.75566
1.75893
1.76158
1.76355
1.76573
1.76793
1.76953
1.77106
1.77205
1.77257
1.77253
1.77229
1.77119
1.77003
1.7673
1.76552
1.76165
1.75946
1.75462
1.75178
1.74501
1.74053
1.72943
1.72209
1.70276
1.69236
1.65387
2.26285
2.18004
2.10213
2.0326
1.9716
1.91731
1.86867
1.8249
1.78653
1.75222
1.72272
1.6974
1.67695
1.6626
1.65407
1.64976
1.64851
1.64837
1.64824
1.64782
1.6468
1.64496
1.64202
1.63824
1.63377
1.62932
1.62522
1.62161
1.61852
1.61598
1.61393
1.61226
1.61084
1.60959
1.60847
1.60739
1.60623
1.60492
1.60352
1.60217
1.601
1.60013
1.59968
1.59962
1.59973
1.60011
1.60102
1.60276
1.60526
1.60854
1.61259
1.61727
1.62238
1.62766
1.63287
1.63784
1.64242
1.6465
1.6501
1.65332
1.65613
1.65882
1.66141
1.66436
1.66737
1.67107
1.67494
1.67963
1.68407
1.68862
1.69287
1.69728
1.70102
1.70433
1.7075
1.71062
1.71426
1.71673
1.71918
1.72176
1.72404
1.72569
1.72691
1.72731
1.7274
1.72703
1.72638
1.72451
1.72315
1.71997
1.71803
1.71347
1.71046
1.70303
1.69788
1.68502
1.67648
1.65449
1.64297
1.60176
2.25898
2.18825
2.11835
2.05141
1.99002
1.93304
1.88218
1.83558
1.79431
1.75791
1.72533
1.69771
1.67332
1.65295
1.63592
1.62333
1.61518
1.61015
1.60728
1.60579
1.6045
1.60327
1.60159
1.59937
1.5966
1.59324
1.58967
1.58622
1.58304
1.58018
1.57773
1.57568
1.57385
1.57206
1.5702
1.5683
1.56637
1.56436
1.5623
1.56028
1.55841
1.55679
1.55559
1.55499
1.55491
1.55503
1.55548
1.55657
1.55863
1.56135
1.56461
1.56833
1.57234
1.57647
1.58053
1.58439
1.58796
1.59119
1.5942
1.59712
1.60003
1.60302
1.6062
1.60991
1.61392
1.61833
1.62274
1.62759
1.63215
1.6366
1.64094
1.64559
1.64978
1.65371
1.65789
1.66192
1.6665
1.67027
1.67422
1.67773
1.68131
1.68356
1.68589
1.68725
1.68823
1.68849
1.68853
1.68793
1.6872
1.68504
1.68332
1.6788
1.67538
1.66675
1.66064
1.64562
1.63578
1.61143
1.59926
1.55594
2.24949
2.18725
2.12504
2.06436
2.00705
1.95262
1.90231
1.8558
1.81267
1.77363
1.73778
1.70582
1.67752
1.65299
1.6316
1.61343
1.59815
1.58668
1.57863
1.57306
1.56927
1.56673
1.56473
1.56293
1.56117
1.55924
1.55703
1.55451
1.55184
1.54921
1.54665
1.54422
1.54198
1.53991
1.53787
1.5358
1.53371
1.53163
1.52959
1.52765
1.52589
1.52438
1.52321
1.52256
1.52242
1.5225
1.52285
1.52374
1.52557
1.52808
1.531
1.53409
1.5371
1.53982
1.54219
1.54421
1.54592
1.54732
1.54853
1.54977
1.55119
1.55298
1.5553
1.55846
1.56226
1.56672
1.57154
1.57717
1.58278
1.58847
1.59418
1.60018
1.60581
1.61104
1.61637
1.62146
1.62688
1.63176
1.6365
1.64069
1.64475
1.64805
1.6512
1.65346
1.65576
1.65706
1.65861
1.659
1.65915
1.65782
1.65608
1.65099
1.64673
1.63596
1.62826
1.6098
1.59821
1.57069
1.55759
1.50977
2.24206
2.18605
2.12893
2.07352
2.0199
1.96923
1.92109
1.87626
1.8343
1.79498
1.75901
1.72561
1.6949
1.66688
1.64165
1.61927
1.59984
1.5829
1.56846
1.55699
1.54848
1.54256
1.53851
1.53582
1.53394
1.53242
1.53093
1.52922
1.52715
1.52476
1.52216
1.51942
1.5167
1.51408
1.51154
1.50903
1.50666
1.5045
1.50247
1.5005
1.49867
1.49707
1.49582
1.49505
1.49484
1.49491
1.49523
1.49607
1.49763
1.49955
1.50163
1.50371
1.5056
1.50719
1.50839
1.50921
1.50977
1.51025
1.51069
1.51123
1.51189
1.51298
1.51468
1.51733
1.52079
1.52504
1.52971
1.53549
1.54147
1.54778
1.55415
1.56117
1.56794
1.57411
1.58059
1.58693
1.59369
1.60003
1.6065
1.61249
1.61892
1.62466
1.63074
1.63586
1.64117
1.64509
1.64876
1.65045
1.65117
1.65004
1.64777
1.64083
1.63493
1.62059
1.61078
1.58812
1.57485
1.5441
1.53054
1.47579
2.22171
2.17886
2.12815
2.07722
2.02821
1.98114
1.93607
1.89361
1.85326
1.81537
1.7796
1.74595
1.71476
1.68544
1.65863
1.63377
1.6111
1.59055
1.57238
1.55653
1.54324
1.53265
1.5248
1.51921
1.51523
1.51237
1.51021
1.50819
1.50617
1.50407
1.50168
1.49908
1.49635
1.49352
1.49068
1.4879
1.48521
1.48272
1.4805
1.47852
1.47674
1.47518
1.47394
1.47312
1.47279
1.47279
1.47293
1.47335
1.4742
1.47518
1.47615
1.47694
1.47736
1.47742
1.47728
1.47677
1.476
1.4757
1.47573
1.47595
1.47657
1.47794
1.48022
1.48351
1.48756
1.49231
1.49755
1.50364
1.50983
1.51677
1.5237
1.53059
1.53827
1.54607
1.55497
1.56419
1.57502
1.58602
1.59823
1.61012
1.62319
1.63479
1.64702
1.65727
1.66663
1.67301
1.67772
1.67937
1.6794
1.67611
1.67171
1.66
1.65117
1.63152
1.61916
1.59228
1.57616
1.54038
1.52763
1.46355
2.20921
2.1583
2.11908
2.07521
2.0302
1.98715
1.94565
1.90589
1.86799
1.83207
1.79771
1.76531
1.73436
1.7052
1.67764
1.65171
1.62736
1.60486
1.58417
1.56551
1.54906
1.53479
1.52301
1.51334
1.50584
1.50032
1.49604
1.49286
1.4904
1.48826
1.48645
1.4847
1.48278
1.48074
1.47847
1.476
1.47343
1.47086
1.46838
1.4661
1.46412
1.46239
1.46089
1.45968
1.45878
1.45816
1.45776
1.45748
1.45723
1.45687
1.45624
1.45516
1.45361
1.45176
1.44982
1.44797
1.44649
1.44577
1.44573
1.44596
1.44674
1.44855
1.45158
1.45564
1.46061
1.46631
1.47263
1.47994
1.48743
1.49567
1.50505
1.51604
1.52929
1.54366
1.56106
1.57897
1.60037
1.62243
1.64579
1.66824
1.69146
1.71008
1.72507
1.73344
1.73942
1.73894
1.73691
1.73068
1.72419
1.71109
1.70217
1.68388
1.67316
1.64968
1.63675
1.60835
1.59389
1.55692
1.54933
1.47874
2.20566
2.15909
2.10986
2.06867
2.02829
1.98814
1.94986
1.91296
1.87744
1.84358
1.81099
1.78
1.75019
1.72169
1.69429
1.66813
1.64328
1.61969
1.5977
1.57748
1.55881
1.54229
1.52743
1.51464
1.50384
1.49487
1.4879
1.48269
1.47893
1.4764
1.47459
1.47328
1.47214
1.47082
1.46928
1.46746
1.46534
1.46297
1.4605
1.45801
1.45562
1.45334
1.45122
1.4493
1.44758
1.44607
1.44465
1.4432
1.44164
1.43985
1.43773
1.43523
1.4324
1.42944
1.42661
1.42409
1.42212
1.42112
1.42103
1.42129
1.42217
1.42424
1.42782
1.43258
1.43929
1.44662
1.45511
1.46588
1.4792
1.49544
1.51639
1.53959
1.56716
1.59781
1.63281
1.66997
1.70252
1.72613
1.74287
1.75029
1.75178
1.74862
1.74286
1.73443
1.72628
1.71284
1.70501
1.68791
1.67876
1.6598
1.64977
1.62862
1.61761
1.59388
1.58201
1.55648
1.54493
1.51606
1.50919
1.46049
2.19264
2.15578
2.11178
2.06612
2.02641
1.98774
1.9509
1.91586
1.88245
1.85038
1.81933
1.7895
1.76053
1.73273
1.70588
1.68008
1.6555
1.63207
1.60992
1.58911
1.56973
1.55178
1.53531
1.52046
1.50724
1.49571
1.48621
1.47859
1.47287
1.46882
1.46597
1.4642
1.46293
1.46183
1.46071
1.4594
1.45773
1.45566
1.4532
1.4505
1.44764
1.44473
1.44182
1.43891
1.43617
1.43356
1.43107
1.42859
1.42597
1.42316
1.42014
1.4168
1.41324
1.40972
1.40649
1.40366
1.4015
1.40053
1.40058
1.40107
1.4025
1.40584
1.41132
1.41886
1.42832
1.44183
1.45974
1.48483
1.51392
1.54967
1.59128
1.63927
1.68497
1.71391
1.73275
1.73722
1.73636
1.73205
1.72705
1.71869
1.71231
1.70099
1.69389
1.6788
1.6708
1.6537
1.64462
1.62568
1.61595
1.59586
1.5858
1.56482
1.55411
1.53189
1.52091
1.49794
1.48747
1.46407
1.45514
1.42437
2.17817
2.14844
2.11079
2.06976
2.02717
1.98916
1.95247
1.91766
1.88488
1.85391
1.8244
1.79597
1.76845
1.74177
1.71597
1.69106
1.6671
1.64421
1.62239
1.60165
1.58199
1.56341
1.54598
1.52973
1.51493
1.50173
1.49008
1.48031
1.47236
1.46602
1.46122
1.45755
1.45489
1.45291
1.45124
1.44962
1.44794
1.44598
1.4436
1.4408
1.43768
1.43438
1.43096
1.42755
1.42414
1.42079
1.41753
1.41419
1.41075
1.40709
1.40323
1.39924
1.39519
1.39134
1.38795
1.3851
1.38317
1.38302
1.3836
1.38609
1.39011
1.39744
1.40855
1.42498
1.45131
1.48383
1.52543
1.57536
1.63414
1.68232
1.70921
1.71863
1.71871
1.7156
1.7105
1.70313
1.69668
1.68631
1.67972
1.66662
1.65983
1.64535
1.63767
1.62167
1.61303
1.59539
1.58615
1.56737
1.55776
1.53838
1.52875
1.50906
1.49916
1.47888
1.46886
1.4484
1.43878
1.41863
1.41059
1.38724
2.15244
2.12933
2.10444
2.06948
2.03201
1.99204
1.95651
1.92162
1.88844
1.85731
1.82813
1.80056
1.77431
1.74905
1.72466
1.70111
1.67827
1.65625
1.63497
1.61441
1.59467
1.57572
1.55772
1.54083
1.5251
1.51075
1.49787
1.48641
1.47633
1.46774
1.46056
1.45455
1.44972
1.44583
1.4426
1.43982
1.43726
1.43472
1.43203
1.42908
1.4259
1.42256
1.41912
1.41562
1.41205
1.40844
1.40475
1.40097
1.39697
1.39272
1.38838
1.38396
1.37968
1.37596
1.37282
1.37052
1.37079
1.37277
1.37675
1.38404
1.39601
1.41963
1.45292
1.49556
1.55017
1.61579
1.66936
1.69517
1.70125
1.69986
1.69574
1.6888
1.68173
1.67204
1.66434
1.65272
1.64586
1.63324
1.62652
1.613
1.60521
1.59131
1.58233
1.56699
1.55758
1.54091
1.5318
1.51402
1.50511
1.48712
1.47833
1.46047
1.45165
1.43371
1.42489
1.40701
1.39849
1.3807
1.37368
1.35489
2.13901
2.11715
2.08531
2.06072
2.02936
1.99445
1.95738
1.92392
1.89207
1.86127
1.83224
1.805
1.77934
1.75505
1.7319
1.70958
1.688
1.66686
1.64624
1.62607
1.60641
1.58743
1.56925
1.55197
1.53573
1.52054
1.5065
1.49366
1.48204
1.47158
1.46224
1.45408
1.44696
1.44077
1.43548
1.43085
1.42669
1.42288
1.41935
1.41592
1.41253
1.40911
1.40568
1.40218
1.39858
1.39485
1.39097
1.38694
1.38273
1.37835
1.37397
1.36961
1.36603
1.36299
1.36214
1.36343
1.36736
1.37517
1.39069
1.42097
1.46075
1.51471
1.58551
1.64712
1.68122
1.68624
1.68497
1.68002
1.67274
1.66302
1.65375
1.64278
1.63407
1.62325
1.6158
1.60425
1.59605
1.58423
1.57484
1.56222
1.5526
1.53855
1.52927
1.51432
1.50498
1.48903
1.48048
1.46396
1.45588
1.43954
1.4316
1.41561
1.40779
1.3919
1.38407
1.36821
1.36065
1.34482
1.33856
1.32389
2.1093
2.09847
2.07417
2.0425
2.01928
1.99129
1.95875
1.92545
1.89344
1.86426
1.83585
1.80918
1.78403
1.76028
1.73775
1.71605
1.69515
1.67471
1.65478
1.63523
1.61609
1.59739
1.57928
1.5618
1.54522
1.52945
1.51462
1.50077
1.48787
1.47601
1.46513
1.45517
1.44602
1.43774
1.4302
1.4234
1.41728
1.4118
1.40687
1.40246
1.39843
1.39468
1.39113
1.3877
1.38424
1.38073
1.37695
1.37319
1.36906
1.36533
1.36144
1.35859
1.35763
1.35851
1.36246
1.37096
1.39045
1.42661
1.47465
1.54424
1.6165
1.66751
1.67489
1.67435
1.66956
1.6612
1.65106
1.63976
1.62826
1.61707
1.60763
1.59751
1.58848
1.57818
1.56865
1.55728
1.54714
1.53479
1.52489
1.51168
1.50176
1.48819
1.47879
1.4643
1.45578
1.4408
1.43314
1.41806
1.41073
1.39597
1.38886
1.3746
1.36758
1.35332
1.34631
1.33211
1.3254
1.31132
1.30559
1.29429
2.08658
2.07661
2.06131
2.03061
1.99984
1.97646
1.95343
1.92481
1.89523
1.86598
1.83943
1.81344
1.78876
1.76533
1.74302
1.72155
1.70084
1.68067
1.66091
1.64166
1.62275
1.60436
1.58638
1.56895
1.55209
1.53598
1.52065
1.50615
1.49249
1.4796
1.46753
1.45617
1.44558
1.43564
1.42631
1.41764
1.40967
1.4024
1.39586
1.39006
1.38496
1.38044
1.37643
1.37279
1.36938
1.3661
1.36286
1.3597
1.35683
1.35425
1.35432
1.35562
1.35964
1.36915
1.3929
1.4349
1.48882
1.57464
1.64238
1.67232
1.67068
1.66708
1.65831
1.64784
1.63558
1.622
1.60977
1.59821
1.58737
1.57691
1.56655
1.55597
1.54572
1.53447
1.52398
1.51157
1.50106
1.48813
1.47785
1.46479
1.45529
1.44181
1.43337
1.4195
1.41212
1.39804
1.39126
1.37759
1.37083
1.35748
1.35099
1.33794
1.33155
1.31867
1.31238
1.2997
1.2935
1.28191
1.27494
1.26702
2.04498
2.05633
2.04787
2.02765
1.99613
1.96599
1.93991
1.91684
1.89249
1.86603
1.83949
1.81542
1.79207
1.76944
1.7476
1.72647
1.70595
1.68593
1.66626
1.64691
1.62788
1.6092
1.59095
1.57323
1.55611
1.53969
1.52397
1.50906
1.49484
1.48138
1.46845
1.45615
1.44442
1.43329
1.42274
1.41281
1.4035
1.39485
1.38698
1.37985
1.37353
1.36802
1.36325
1.35913
1.3556
1.35249
1.35021
1.349
1.34929
1.35158
1.35659
1.36869
1.39667
1.44319
1.50515
1.59738
1.66334
1.67205
1.67024
1.66275
1.65225
1.63853
1.62492
1.6105
1.59727
1.58429
1.57221
1.56012
1.54871
1.5371
1.52601
1.5143
1.50336
1.49104
1.48009
1.46739
1.45676
1.44403
1.43435
1.42148
1.413
1.40012
1.39281
1.37997
1.37328
1.36089
1.35454
1.34232
1.33594
1.32408
1.31795
1.30629
1.30036
1.28909
1.28302
1.27261
1.26564
1.25706
1.24984
1.24335
2.00309
2.01634
2.01768
2.01038
1.99095
1.9618
1.93402
1.90787
1.88307
1.85989
1.83698
1.81397
1.79189
1.77082
1.75016
1.72999
1.71011
1.69045
1.67094
1.6514
1.63197
1.61278
1.59403
1.57579
1.55823
1.54139
1.52533
1.50998
1.49529
1.48125
1.46792
1.45511
1.44285
1.43103
1.41972
1.40893
1.39873
1.38917
1.38026
1.37214
1.36483
1.35839
1.35278
1.34804
1.34463
1.34265
1.34343
1.34593
1.35191
1.36556
1.39534
1.44857
1.51437
1.61004
1.67507
1.67427
1.67229
1.66174
1.65016
1.63557
1.61999
1.60527
1.59078
1.5765
1.56263
1.54888
1.53601
1.52319
1.511
1.49873
1.48689
1.47463
1.46311
1.45065
1.43972
1.42709
1.41723
1.40488
1.3961
1.38401
1.37637
1.36462
1.35788
1.34631
1.34002
1.32896
1.32259
1.31184
1.30566
1.29508
1.28914
1.27902
1.27318
1.2638
1.25743
1.24931
1.24223
1.23504
1.22869
1.22289
1.91479
1.98248
1.98968
1.98299
1.97228
1.95009
1.92635
1.90279
1.87899
1.85461
1.83082
1.80859
1.788
1.76871
1.74981
1.73067
1.71164
1.69245
1.67325
1.65396
1.6346
1.6152
1.59619
1.57765
1.55982
1.54262
1.52613
1.51027
1.49501
1.48032
1.4662
1.45271
1.43979
1.42739
1.41564
1.40437
1.39381
1.38381
1.37454
1.36595
1.35811
1.3512
1.34523
1.34076
1.34101
1.34291
1.34775
1.36151
1.39276
1.44793
1.51548
1.61289
1.68027
1.67878
1.67619
1.66499
1.65149
1.6368
1.62104
1.6056
1.59006
1.57412
1.5588
1.54371
1.52929
1.51549
1.50233
1.48934
1.47681
1.46425
1.45211
1.43975
1.42823
1.41595
1.40548
1.39345
1.38439
1.37263
1.36472
1.35326
1.34643
1.33543
1.32893
1.31844
1.31207
1.30199
1.29584
1.28598
1.27994
1.27044
1.26462
1.25581
1.25001
1.24212
1.23586
1.2289
1.22258
1.21583
1.21043
1.205
1.69944
1.90943
1.95323
1.96312
1.95542
1.94162
1.91654
1.89229
1.87089
1.8501
1.82809
1.80595
1.7841
1.76369
1.74468
1.72781
1.71014
1.69194
1.67327
1.65432
1.63547
1.61665
1.59792
1.57936
1.56128
1.54379
1.52698
1.51078
1.49521
1.48018
1.46565
1.45174
1.43833
1.42565
1.41345
1.40198
1.39102
1.38073
1.37113
1.36216
1.35417
1.34766
1.34279
1.34506
1.35103
1.36105
1.38822
1.44637
1.51268
1.61159
1.68464
1.68466
1.68212
1.67078
1.65615
1.64096
1.62462
1.60828
1.59147
1.57434
1.55765
1.54149
1.52626
1.51153
1.49776
1.48434
1.47127
1.45836
1.44578
1.43335
1.42135
1.40927
1.39821
1.38647
1.37678
1.36532
1.35711
1.3459
1.33864
1.32804
1.32132
1.3111
1.30459
1.2948
1.28855
1.27922
1.27319
1.26414
1.25823
1.24982
1.24411
1.23642
1.23089
1.22381
1.21833
1.21159
1.20646
1.19993
1.19536
1.19029
1.47439
1.77176
1.90845
1.92506
1.93131
1.92372
1.90991
1.88687
1.86332
1.84162
1.82159
1.80206
1.78185
1.76151
1.74138
1.72136
1.70361
1.68672
1.6699
1.65264
1.63479
1.61676
1.59884
1.58096
1.56329
1.54578
1.52862
1.51199
1.49605
1.48072
1.46601
1.45185
1.43834
1.42535
1.413
1.40119
1.39003
1.37947
1.36982
1.36091
1.35425
1.35391
1.35612
1.36523
1.39059
1.43986
1.5113
1.6147
1.69211
1.69423
1.69098
1.6788
1.66303
1.64635
1.62864
1.61062
1.59262
1.57411
1.55629
1.53922
1.52311
1.50777
1.49356
1.4799
1.46682
1.45364
1.44082
1.42795
1.41561
1.40335
1.39175
1.38007
1.36965
1.35849
1.34937
1.33866
1.33063
1.32029
1.31307
1.30323
1.2963
1.28685
1.28022
1.27118
1.26505
1.25653
1.25055
1.24261
1.23665
1.22964
1.22391
1.21765
1.21257
1.20632
1.20198
1.19563
1.19166
1.18598
1.18205
1.17802
1.23226
1.5341
1.80686
1.892
1.9027
1.90083
1.89333
1.87969
1.85861
1.83728
1.81645
1.796
1.77638
1.75708
1.73802
1.71891
1.69968
1.68162
1.66468
1.64849
1.63228
1.6158
1.59889
1.58191
1.56482
1.54783
1.53108
1.51453
1.49842
1.4827
1.46766
1.45318
1.43937
1.42614
1.41356
1.40164
1.3904
1.38008
1.37204
1.36543
1.3702
1.37637
1.39286
1.44309
1.50471
1.61335
1.70014
1.7113
1.70611
1.69181
1.67536
1.65557
1.63523
1.61532
1.59538
1.57539
1.5563
1.5378
1.52096
1.50479
1.4899
1.47576
1.46263
1.44924
1.43645
1.42323
1.41055
1.39769
1.38575
1.37362
1.36253
1.35127
1.34122
1.33065
1.32177
1.31162
1.30355
1.29392
1.28629
1.27716
1.26979
1.26099
1.2542
1.24587
1.23961
1.23197
1.2257
1.21897
1.21266
1.20725
1.20112
1.19655
1.19139
1.18652
1.18247
1.17749
1.17386
1.16981
1.16618
1.16371
1.10722
1.2886
1.63136
1.82587
1.87673
1.88002
1.87487
1.86349
1.84894
1.83125
1.81229
1.79259
1.7728
1.75305
1.73441
1.7166
1.69876
1.68097
1.66348
1.64679
1.63068
1.61485
1.59883
1.58253
1.56613
1.54964
1.53341
1.5173
1.50165
1.48626
1.47141
1.45687
1.44289
1.42943
1.41656
1.40482
1.39406
1.38575
1.38713
1.39179
1.40438
1.43815
1.51086
1.61509
1.70741
1.73486
1.72596
1.71007
1.69324
1.67123
1.64938
1.62708
1.60499
1.58373
1.56312
1.54354
1.52501
1.50753
1.49151
1.47607
1.46193
1.44801
1.43454
1.42097
1.40803
1.39462
1.38221
1.36957
1.35791
1.34602
1.33532
1.32428
1.31458
1.30444
1.29556
1.28594
1.2776
1.2685
1.26054
1.25188
1.24425
1.23599
1.22906
1.22133
1.21482
1.2078
1.20129
1.19524
1.18881
1.18413
1.17788
1.17416
1.1687
1.16512
1.16041
1.15719
1.15313
1.15049
1.14694
1.14556
1.05314
1.13265
1.31447
1.6514
1.81469
1.85317
1.8574
1.8502
1.83703
1.81969
1.80448
1.78833
1.77023
1.75141
1.73236
1.71435
1.69751
1.68067
1.66371
1.64706
1.63073
1.61478
1.59896
1.5833
1.56749
1.55158
1.53573
1.5201
1.50475
1.4898
1.4752
1.46113
1.44748
1.43471
1.42224
1.41358
1.40849
1.41287
1.42308
1.44912
1.51707
1.60887
1.71677
1.76357
1.75034
1.73632
1.71815
1.69351
1.66937
1.64543
1.62168
1.59806
1.57613
1.55462
1.53481
1.5158
1.49829
1.48151
1.46607
1.45118
1.43725
1.42311
1.40948
1.39549
1.38232
1.36908
1.357
1.3444
1.333
1.32122
1.31069
1.29994
1.2904
1.28054
1.27158
1.2623
1.25388
1.24517
1.23719
1.22891
1.22135
1.21367
1.20675
1.19967
1.19314
1.18654
1.18024
1.17423
1.16843
1.16347
1.15786
1.15404
1.14875
1.14554
1.1406
1.13809
1.13385
1.13181
1.12812
1.12695
1.02491
1.06141
1.14834
1.39355
1.65798
1.79981
1.82592
1.83463
1.82648
1.8159
1.79633
1.77934
1.76484
1.74837
1.73072
1.71296
1.69586
1.67972
1.66351
1.64724
1.63111
1.61518
1.59943
1.58373
1.5682
1.55277
1.53748
1.52207
1.50723
1.49242
1.47858
1.4647
1.45241
1.44183
1.43377
1.43746
1.44661
1.4664
1.5162
1.61167
1.73114
1.79314
1.78181
1.7676
1.74715
1.72127
1.6958
1.67018
1.64454
1.6195
1.59524
1.57201
1.55018
1.52911
1.51001
1.49172
1.47516
1.45895
1.4441
1.42923
1.41543
1.4008
1.387
1.37251
1.35928
1.34558
1.33334
1.32062
1.30947
1.29785
1.28767
1.27723
1.26791
1.25828
1.24943
1.24046
1.23215
1.22373
1.21595
1.20806
1.20091
1.19382
1.18711
1.18068
1.17405
1.16808
1.1618
1.15631
1.15077
1.14613
1.14081
1.13727
1.13233
1.12922
1.12478
1.12245
1.11838