/*--------------------------------*- C++ -*----------------------------------*\
| =========                 |                                                 |
| \\      /  F ield         | OpenFOAM: The Open Source CFD Toolbox           |
|  \\    /   O peration     | Version:  2412                                  |
|   \\  /    A nd           | Website:  www.openfoam.com                      |
|    \\/     M anipulation  |                                                 |
\*---------------------------------------------------------------------------*/
FoamFile
{
    version     2.0;
    format      ascii;
    arch        "LSB;label=32;scalar=64";
    class       volVectorField;
    location    "1";
    object      U;
}
// * * * * * * * * * * * * * * * * * * * * * * * * * * * * * * * * * * * * * //

dimensions      [0 1 -1 0 0 0 0];

internalField   nonuniform List<vector> 
5250
(
(3 2.87742e-09 0)
(3 2.26709e-08 0)
(2.99999 6.94868e-08 0)
(2.99997 2.1311e-07 0)
(2.99992 5.05441e-07 0)
(2.99982 1.37916e-06 0)
(2.99952 3.12127e-06 0)
(2.99893 8.44653e-06 0)
(2.99714 1.86375e-05 0)
(2.99379 5.49451e-05 0)
(2.9822 0.000101928 0)
(2.96101 0.000401756 0)
(2.88111 0.000760143 0)
(2.67067 0.00315222 0)
(2.10431 0.00790329 0)
(0.899686 0.0255178 0)
(0.293691 0.0238393 0)
(0.49889 0.0242763 0)
(0.542481 0.027618 0)
(0.468809 0.0314172 0)
(0.366106 0.0351664 0)
(0.279613 0.0380722 0)
(0.202175 0.0404529 0)
(0.129818 0.0433348 0)
(0.0631332 0.0476595 0)
(3 8.70782e-09 0)
(3 6.83864e-08 0)
(2.99999 2.0965e-07 0)
(2.99997 6.40978e-07 0)
(2.99992 1.51717e-06 0)
(2.99982 4.12912e-06 0)
(2.99952 9.31307e-06 0)
(2.99894 2.52166e-05 0)
(2.99718 5.52699e-05 0)
(2.99386 0.000164388 0)
(2.98249 0.00030006 0)
(2.96157 0.00120623 0)
(2.88328 0.00224705 0)
(2.67744 0.00949642 0)
(2.12234 0.0239673 0)
(0.913971 0.0768843 0)
(0.299434 0.0699344 0)
(0.502305 0.0683845 0)
(0.544734 0.07422 0)
(0.469872 0.0808414 0)
(0.366892 0.0878323 0)
(0.279994 0.0926576 0)
(0.201519 0.0953288 0)
(0.127767 0.0972436 0)
(0.0614513 0.101419 0)
(3 1.46539e-08 0)
(3 1.14288e-07 0)
(2.99999 3.51209e-07 0)
(2.99997 1.06569e-06 0)
(2.99992 2.52081e-06 0)
(2.99982 6.78997e-06 0)
(2.99954 1.52571e-05 0)
(2.99897 4.09396e-05 0)
(2.99726 8.95209e-05 0)
(2.994 0.000261499 0)
(2.98306 0.000500862 0)
(2.96267 0.00187902 0)
(2.88768 0.00360171 0)
(2.69138 0.0148087 0)
(2.16093 0.0379421 0)
(0.947276 0.122863 0)
(0.31634 0.117763 0)
(0.511111 0.117523 0)
(0.551481 0.127261 0)
(0.475738 0.13809 0)
(0.37289 0.150471 0)
(0.285124 0.159141 0)
(0.205366 0.164145 0)
(0.129738 0.16765 0)
(0.0623726 0.174504 0)
(3 2.06475e-08 0)
(3 1.60011e-07 0)
(2.99999 4.93133e-07 0)
(2.99997 1.4859e-06 0)
(2.99992 3.51696e-06 0)
(2.99983 9.35807e-06 0)
(2.99955 2.10037e-05 0)
(2.999 5.53006e-05 0)
(2.99736 0.00012162 0)
(2.99421 0.000337115 0)
(2.98383 0.00070245 0)
(2.96422 0.00227474 0)
(2.89359 0.00470266 0)
(2.70998 0.0175505 0)
(2.21428 0.0455524 0)
(0.998289 0.146227 0)
(0.344778 0.163543 0)
(0.523076 0.170493 0)
(0.560418 0.183149 0)
(0.485217 0.196937 0)
(0.38377 0.214318 0)
(0.294898 0.226797 0)
(0.213519 0.234625 0)
(0.135004 0.240644 0)
(0.0651063 0.251375 0)
(3 2.73601e-08 0)
(3 2.09959e-07 0)
(2.99999 6.49439e-07 0)
(2.99997 1.94079e-06 0)
(2.99993 4.59427e-06 0)
(2.99984 1.20636e-05 0)
(2.99957 2.70284e-05 0)
(2.99905 6.97026e-05 0)
(2.99749 0.000153425 0)
(2.99448 0.000407306 0)
(2.98467 0.000877081 0)
(2.96607 0.00257619 0)
(2.89989 0.00552235 0)
(2.72943 0.0187882 0)
(2.26986 0.0476692 0)
(1.06126 0.148229 0)
(0.383492 0.211417 0)
(0.534196 0.229222 0)
(0.56763 0.241429 0)
(0.496093 0.256072 0)
(0.398373 0.277844 0)
(0.308799 0.294185 0)
(0.225914 0.30563 0)
(0.144128 0.315249 0)
(0.0703069 0.330793 0)
(3 3.56791e-08 0)
(3 2.73179e-07 0)
(2.99999 8.45458e-07 0)
(2.99997 2.52074e-06 0)
(2.99993 5.97333e-06 0)
(2.99985 1.56229e-05 0)
(2.9996 3.50252e-05 0)
(2.99911 8.95523e-05 0)
(2.99765 0.000196965 0)
(2.99481 0.000511169 0)
(2.98562 0.00111419 0)
(2.96815 0.00301189 0)
(2.90648 0.00685434 0)
(2.7485 0.0203031 0)
(2.31962 0.0506805 0)
(1.13954 0.152127 0)
(0.435424 0.261394 0)
(0.543568 0.290955 0)
(0.571304 0.300045 0)
(0.508 0.314806 0)
(0.417053 0.341496 0)
(0.327712 0.362629 0)
(0.243754 0.379413 0)
(0.157648 0.395 0)
(0.0780276 0.418405 0)
(3 4.3225e-08 0)
(3 3.33378e-07 0)
(2.99999 1.0289e-06 0)
(2.99998 3.08738e-06 0)
(2.99994 7.33247e-06 0)
(2.99986 1.93677e-05 0)
(2.99964 4.36702e-05 0)
(2.99919 0.00011228 0)
(2.99784 0.000252678 0)
(2.99525 0.000627218 0)
(2.98673 0.00151218 0)
(2.97092 0.00344392 0)
(2.91364 0.00875523 0)
(2.76872 0.0226513 0)
(2.37235 0.0573015 0)
(1.23585 0.166106 0)
(0.505547 0.31356 0)
(0.554755 0.349742 0)
(0.571919 0.354582 0)
(0.522142 0.373008 0)
(0.441247 0.404413 0)
(0.353415 0.431918 0)
(0.269322 0.456959 0)
(0.179223 0.482404 0)
(0.0911638 0.519307 0)
(3 4.68023e-08 0)
(3 3.65223e-07 0)
(2.99999 1.12363e-06 0)
(2.99998 3.40103e-06 0)
(2.99995 8.11101e-06 0)
(2.99988 2.16334e-05 0)
(2.99968 4.92428e-05 0)
(2.99928 0.00012638 0)
(2.99807 0.000293878 0)
(2.99586 0.000695132 0)
(2.98795 0.00176157 0)
(2.97426 0.00377707 0)
(2.92178 0.00968541 0)
(2.79128 0.0243499 0)
(2.43074 0.0646681 0)
(1.35074 0.18072 0)
(0.589731 0.373389 0)
(0.561337 0.401257 0)
(0.572857 0.406392 0)
(0.541818 0.431742 0)
(0.472388 0.465743 0)
(0.389135 0.501761 0)
(0.306653 0.539079 0)
(0.213213 0.580496 0)
(0.113041 0.642961 0)
(3 4.72236e-08 0)
(3 3.69612e-07 0)
(2.99999 1.1338e-06 0)
(2.99998 3.44312e-06 0)
(2.99995 8.20726e-06 0)
(2.99989 2.199e-05 0)
(2.99972 5.02554e-05 0)
(2.99939 0.000129079 0)
(2.99832 0.000301656 0)
(2.99648 0.000723008 0)
(2.98928 0.00172868 0)
(2.9776 0.00420328 0)
(2.93001 0.00978748 0)
(2.81737 0.0261921 0)
(2.49348 0.0700076 0)
(1.48324 0.199347 0)
(0.68853 0.439825 0)
(0.566013 0.450712 0)
(0.583893 0.456849 0)
(0.569183 0.48789 0)
(0.51217 0.524822 0)
(0.438991 0.571405 0)
(0.361236 0.623725 0)
(0.270447 0.691504 0)
(0.153646 0.80433 0)
(3 9.86171e-09 0)
(3 4.08237e-07 0)
(2.99999 7.58854e-07 0)
(2.99999 3.59338e-06 0)
(2.99996 5.61381e-06 0)
(2.99991 2.27167e-05 0)
(2.99977 3.34471e-05 0)
(2.99949 0.000138671 0)
(2.99857 0.000172181 0)
(2.99706 0.000910051 0)
(2.99083 0.000690878 0)
(2.98105 0.00619895 0)
(2.93922 0.00366871 0)
(2.84503 0.0405812 0)
(2.56273 0.0514173 0)
(1.65832 0.23076 0)
(0.8168 0.503304 0)
(0.580621 0.500405 0)
(0.609491 0.502531 0)
(0.611039 0.535649 0)
(0.566679 0.578882 0)
(0.506293 0.636332 0)
(0.441236 0.710979 0)
(0.369335 0.827049 0)
(0.229764 1.06374 0)
(3 3.29101e-08 0)
(3 2.59248e-07 0)
(2.99999 7.93923e-07 0)
(2.99999 2.42368e-06 0)
(2.99997 5.74097e-06 0)
(2.99992 1.55764e-05 0)
(2.99982 3.50685e-05 0)
(2.99951 9.51113e-05 0)
(2.99896 0.000205252 0)
(2.99691 0.000598561 0)
(2.99364 0.00122951 0)
(2.98014 0.00390997 0)
(2.9566 0.00822205 0)
(2.86239 0.0273675 0)
(2.61428 0.0728127 0)
(1.95594 0.209123 0)
(0.961101 0.567939 0)
(0.61346 0.55913 0)
(0.651555 0.553906 0)
(0.669791 0.578688 0)
(0.638622 0.626203 0)
(0.596673 0.691933 0)
(0.563619 0.786539 0)
(0.568397 0.935127 0)
(0.62903 1.20408 0)
(3 5.88477e-08 0)
(3 1.29358e-07 0)
(3 8.8963e-07 0)
(2.99999 1.41341e-06 0)
(2.99997 6.23876e-06 0)
(2.99994 9.18354e-06 0)
(2.99983 3.82968e-05 0)
(2.99964 5.2965e-05 0)
(2.99899 0.000243414 0)
(2.99791 0.000282284 0)
(2.99359 0.00169236 0)
(2.98687 0.00173926 0)
(2.95872 0.0122766 0)
(2.89899 0.0146079 0)
(2.71135 0.0855922 0)
(2.1274 0.195626 0)
(1.17649 0.58003 0)
(0.697626 0.603629 0)
(0.720074 0.609528 0)
(0.744124 0.619363 0)
(0.726023 0.666466 0)
(0.702156 0.736964 0)
(0.701253 0.837382 0)
(0.759872 0.98165 0)
(0.92223 1.18301 0)
(3 2.64957e-08 0)
(3 2.06915e-07 0)
(3 6.36065e-07 0)
(2.99999 1.92624e-06 0)
(2.99998 4.55867e-06 0)
(2.99994 1.22015e-05 0)
(2.99986 2.72298e-05 0)
(2.99968 7.29894e-05 0)
(2.99915 0.000153096 0)
(2.99812 0.000468137 0)
(2.99487 0.000850326 0)
(2.98898 0.00323209 0)
(2.96766 0.0060493 0)
(2.92408 0.0217188 0)
(2.7804 0.0555405 0)
(2.34604 0.16288 0)
(1.4377 0.480204 0)
(0.804476 0.629763 0)
(0.785608 0.661027 0)
(0.807018 0.668973 0)
(0.812001 0.707477 0)
(0.807002 0.774551 0)
(0.829355 0.866429 0)
(0.91012 0.984689 0)
(1.08641 1.11074 0)
(3 2.6182e-08 0)
(3 2.06415e-07 0)
(3 6.32031e-07 0)
(2.99999 1.93002e-06 0)
(2.99998 4.59364e-06 0)
(2.99996 1.24306e-05 0)
(2.99988 2.82787e-05 0)
(2.99974 7.4907e-05 0)
(2.99932 0.000168693 0)
(2.99849 0.000446303 0)
(2.99588 0.00100665 0)
(2.99122 0.00269 0)
(2.97384 0.00601163 0)
(2.94175 0.0167766 0)
(2.82241 0.042254 0)
(2.48805 0.12107 0)
(1.70566 0.341804 0)
(0.918703 0.674032 0)
(0.82498 0.709704 0)
(0.846545 0.722263 0)
(0.8749 0.747331 0)
(0.893639 0.803836 0)
(0.933656 0.88014 0)
(1.0214 0.969088 0)
(1.18496 1.04832 0)
(3 2.21741e-08 0)
(3 1.73908e-07 0)
(3 5.33177e-07 0)
(2.99999 1.62004e-06 0)
(2.99998 3.84773e-06 0)
(2.99996 1.03351e-05 0)
(2.99991 2.33886e-05 0)
(2.99979 6.1481e-05 0)
(2.99946 0.000137532 0)
(2.99882 0.000364161 0)
(2.99673 0.000798729 0)
(2.99317 0.00224237 0)
(2.9792 0.00461573 0)
(2.95514 0.0148464 0)
(2.85957 0.0322633 0)
(2.60544 0.110794 0)
(1.97065 0.282048 0)
(1.07897 0.719426 0)
(0.855074 0.749317 0)
(0.875634 0.763208 0)
(0.920661 0.777319 0)
(0.962033 0.822228 0)
(1.01431 0.883751 0)
(1.10284 0.949733 0)
(1.24874 1.00285 0)
(3 1.93199e-08 0)
(3 1.50691e-07 0)
(3 4.63132e-07 0)
(3 1.40165e-06 0)
(2.99999 3.3284e-06 0)
(2.99997 8.88864e-06 0)
(2.99993 2.00646e-05 0)
(2.99984 5.24084e-05 0)
(2.99957 0.000116582 0)
(2.99904 0.000308526 0)
(2.99745 0.000661964 0)
(2.99441 0.00192196 0)
(2.98418 0.003741 0)
(2.96527 0.012974 0)
(2.89584 0.0259982 0)
(2.71546 0.0967917 0)
(2.2394 0.240114 0)
(1.29902 0.704331 0)
(0.922592 0.772856 0)
(0.921114 0.794835 0)
(0.966411 0.804426 0)
(1.02187 0.833876 0)
(1.0802 0.881412 0)
(1.16535 0.931165 0)
(1.29376 0.968857 0)
(3 1.68967e-08 0)
(3 1.32576e-07 0)
(3 4.06678e-07 0)
(3 1.2372e-06 0)
(2.99999 2.94085e-06 0)
(2.99998 7.91533e-06 0)
(2.99994 1.79574e-05 0)
(2.99987 4.72864e-05 0)
(2.99967 0.000106195 0)
(2.99927 0.000279262 0)
(2.99807 0.000626317 0)
(2.99574 0.00165521 0)
(2.98831 0.00371921 0)
(2.97401 0.0102315 0)
(2.92514 0.0231593 0)
(2.80283 0.0709721 0)
(2.47134 0.184995 0)
(1.5648 0.569922 0)
(1.03971 0.772793 0)
(0.983207 0.816704 0)
(1.01161 0.834398 0)
(1.07129 0.848316 0)
(1.13513 0.880663 0)
(1.21538 0.916704 0)
(1.32759 0.943055 0)
(3 1.3766e-08 0)
(3 1.07536e-07 0)
(3 3.30053e-07 0)
(3 1.00051e-06 0)
(2.99999 2.37621e-06 0)
(2.99998 6.36708e-06 0)
(2.99996 1.44185e-05 0)
(2.99991 3.7794e-05 0)
(2.99976 8.47134e-05 0)
(2.99948 0.000221935 0)
(2.99859 0.000496644 0)
(2.99699 0.00130521 0)
(2.99128 0.00295698 0)
(2.98169 0.00780601 0)
(2.94419 0.0183419 0)
(2.85967 0.0512929 0)
(2.6109 0.134231 0)
(1.83619 0.408397 0)
(1.18581 0.788289 0)
(1.03736 0.841369 0)
(1.04966 0.866109 0)
(1.10651 0.869423 0)
(1.17707 0.883936 0)
(1.25444 0.907186 0)
(1.3537 0.924914 0)
(3 7.18974e-09 0)
(3 9.19923e-08 0)
(3 2.29e-07 0)
(3 8.30052e-07 0)
(2.99999 1.65941e-06 0)
(2.99999 5.20465e-06 0)
(2.99997 9.94645e-06 0)
(2.99993 3.0435e-05 0)
(2.99983 5.7163e-05 0)
(2.99961 0.000176552 0)
(2.99898 0.000322844 0)
(2.9978 0.00105607 0)
(2.99369 0.00178078 0)
(2.98694 0.00679445 0)
(2.95989 0.0107266 0)
(2.90385 0.0458225 0)
(2.7274 0.0931429 0)
(2.16122 0.333958 0)
(1.43139 0.772984 0)
(1.12525 0.863026 0)
(1.1044 0.888813 0)
(1.14216 0.891599 0)
(1.21246 0.890767 0)
(1.28939 0.901747 0)
(1.37831 0.912726 0)
(3 5.50264e-09 0)
(3 6.84545e-08 0)
(3 1.72387e-07 0)
(3 6.20352e-07 0)
(3 1.25531e-06 0)
(2.99999 3.90941e-06 0)
(2.99998 7.58402e-06 0)
(2.99995 2.29898e-05 0)
(2.99988 4.39873e-05 0)
(2.9997 0.000133728 0)
(2.99932 0.000251903 0)
(2.99821 0.000794169 0)
(2.99604 0.00140294 0)
(2.98919 0.00506439 0)
(2.97557 0.00805356 0)
(2.93146 0.0336717 0)
(2.822 0.0661254 0)
(2.50671 0.228187 0)
(1.71947 0.639094 0)
(1.25449 0.864331 0)
(1.17332 0.901135 0)
(1.18619 0.913515 0)
(1.24565 0.905885 0)
(1.32166 0.904636 0)
(1.40357 0.908014 0)
(3 9.33191e-09 0)
(3 3.67271e-08 0)
(3 1.66456e-07 0)
(3 3.64872e-07 0)
(3 1.17784e-06 0)
(2.99999 2.35459e-06 0)
(2.99999 7.14028e-06 0)
(2.99996 1.4011e-05 0)
(2.99992 4.20858e-05 0)
(2.99979 8.2072e-05 0)
(2.99953 0.000247914 0)
(2.99876 0.000479539 0)
(2.99725 0.0014805 0)
(2.9925 0.00280549 0)
(2.98368 0.00912894 0)
(2.95316 0.0174533 0)
(2.88198 0.0595578 0)
(2.6769 0.136297 0)
(2.04745 0.445231 0)
(1.43518 0.854751 0)
(1.24477 0.919857 0)
(1.23442 0.938563 0)
(1.27738 0.93101 0)
(1.3504 0.916823 0)
(1.42776 0.91167 0)
(3 5.74214e-09 0)
(3 3.10213e-08 0)
(3 1.162e-07 0)
(3 2.97769e-07 0)
(3 8.30622e-07 0)
(3 1.91223e-06 0)
(2.99999 5.05134e-06 0)
(2.99998 1.13815e-05 0)
(2.99994 2.97751e-05 0)
(2.99987 6.67221e-05 0)
(2.99966 0.000174672 0)
(2.99924 0.000390643 0)
(2.99798 0.00102703 0)
(2.99554 0.00229996 0)
(2.98782 0.00615825 0)
(2.9724 0.0138645 0)
(2.92261 0.0384419 0)
(2.79779 0.103097 0)
(2.43622 0.281903 0)
(1.69657 0.763086 0)
(1.35134 0.91858 0)
(1.29744 0.949884 0)
(1.31456 0.954198 0)
(1.37689 0.936075 0)
(1.45249 0.921529 0)
(3 3.0478e-09 0)
(3 2.39798e-08 0)
(3 7.34979e-08 0)
(3 2.23602e-07 0)
(3 5.31382e-07 0)
(3 1.42707e-06 0)
(2.99999 3.23405e-06 0)
(2.99998 8.47544e-06 0)
(2.99996 1.89964e-05 0)
(2.99991 4.96362e-05 0)
(2.9998 0.000110804 0)
(2.99947 0.000290889 0)
(2.99884 0.000647253 0)
(2.99678 0.00171639 0)
(2.99331 0.00385878 0)
(2.97992 0.0102365 0)
(2.95634 0.0245368 0)
(2.86726 0.0655824 0)
(2.63741 0.186471 0)
(2.06329 0.506415 0)
(1.48809 0.905649 0)
(1.35967 0.962839 0)
(1.35598 0.976356 0)
(1.40155 0.962034 0)
(1.47314 0.935045 0)
(3 2.65781e-09 0)
(3 1.41857e-08 0)
(3 5.32284e-08 0)
(3 1.36379e-07 0)
(3 3.79102e-07 0)
(3 8.71436e-07 0)
(3 2.28647e-06 0)
(2.99999 5.13697e-06 0)
(2.99998 1.33081e-05 0)
(2.99994 2.96805e-05 0)
(2.99986 7.68352e-05 0)
(2.99968 0.000170121 0)
(2.99916 0.00044851 0)
(2.99822 0.000959586 0)
(2.99492 0.00274118 0)
(2.98953 0.00550933 0)
(2.96849 0.0173903 0)
(2.92681 0.0373347 0)
(2.78964 0.11963 0)
(2.38868 0.336131 0)
(1.775 0.78533 0)
(1.46606 0.94686 0)
(1.41638 0.980127 0)
(1.43275 0.981345 0)
(1.49111 0.954539 0)
(3 1.03999e-09 0)
(3 1.12175e-08 0)
(3 2.99242e-08 0)
(3 1.02628e-07 0)
(3 2.18295e-07 0)
(3 6.50077e-07 0)
(3 1.32691e-06 0)
(2.99999 3.83111e-06 0)
(2.99999 7.74935e-06 0)
(2.99996 2.22051e-05 0)
(2.99991 4.4682e-05 0)
(2.99978 0.000128349 0)
(2.9995 0.000255216 0)
(2.99869 0.000756061 0)
(2.9971 0.00142295 0)
(2.99212 0.00470237 0)
(2.9827 0.00826762 0)
(2.95114 0.0299672 0)
(2.87615 0.0617205 0)
(2.65856 0.203665 0)
(2.07817 0.561713 0)
(1.61181 0.914886 0)
(1.48344 0.980666 0)
(1.47337 0.994732 0)
(1.51019 0.979696 0)
(3 1.36445e-09 0)
(3 5.88407e-09 0)
(3 2.51131e-08 0)
(3 5.77871e-08 0)
(3 1.77657e-07 0)
(3 3.71176e-07 0)
(3 1.07127e-06 0)
(3 2.1954e-06 0)
(2.99999 6.25118e-06 0)
(2.99998 1.27459e-05 0)
(2.99995 3.6242e-05 0)
(2.99986 7.36348e-05 0)
(2.99969 0.000210372 0)
(2.99919 0.000425334 0)
(2.99821 0.00123474 0)
(2.99523 0.00245826 0)
(2.98956 0.00751463 0)
(2.971 0.0146375 0)
(2.93088 0.0477167 0)
(2.81027 0.110049 0)
(2.43791 0.353877 0)
(1.87661 0.782143 0)
(1.58454 0.956212 0)
(1.53076 0.993127 0)
(1.54039 0.997791 0)
(3 7.66518e-10 0)
(3 4.14205e-09 0)
(3 1.54923e-08 0)
(3 3.96911e-08 0)
(3 1.10281e-07 0)
(3 2.53555e-07 0)
(3 6.65301e-07 0)
(3 1.49657e-06 0)
(2.99999 3.87577e-06 0)
(2.99999 8.674e-06 0)
(2.99996 2.23804e-05 0)
(2.99992 4.99436e-05 0)
(2.99979 0.000128852 0)
(2.99954 0.000286367 0)
(2.9988 0.000744397 0)
(2.99734 0.00163874 0)
(2.99286 0.00439792 0)
(2.98408 0.00956495 0)
(2.95616 0.027078 0)
(2.89006 0.0649003 0)
(2.69841 0.1877 0)
(2.18437 0.539345 0)
(1.74078 0.90407 0)
(1.60141 0.984639 0)
(1.58286 1.00529 0)
(3 3.60721e-10 0)
(3 2.84511e-09 0)
(3 8.7115e-09 0)
(3 2.64971e-08 0)
(3 6.292e-08 0)
(3 1.68588e-07 0)
(3 3.81643e-07 0)
(3 9.95768e-07 0)
(3 2.23063e-06 0)
(2.99999 5.78801e-06 0)
(2.99998 1.2925e-05 0)
(2.99995 3.35376e-05 0)
(2.99988 7.4737e-05 0)
(2.9997 0.000194575 0)
(2.99934 0.000432594 0)
(2.99827 0.00113736 0)
(2.99617 0.00252427 0)
(2.98982 0.00675877 0)
(2.9768 0.0154604 0)
(2.93748 0.0414965 0)
(2.84028 0.11036 0)
(2.56241 0.302317 0)
(1.99519 0.75244 0)
(1.70022 0.952721 0)
(1.63807 0.999732 0)
(3 3.32809e-10 0)
(3 1.47101e-09 0)
(3 6.17822e-09 0)
(3 1.44469e-08 0)
(3 4.38148e-08 0)
(3 9.29373e-08 0)
(3 2.64375e-07 0)
(3 5.49868e-07 0)
(3 1.54042e-06 0)
(3 3.1883e-06 0)
(2.99999 8.89437e-06 0)
(2.99997 1.8355e-05 0)
(2.99993 5.11942e-05 0)
(2.99984 0.000105243 0)
(2.99958 0.000294856 0)
(2.99908 0.000602086 0)
(2.99754 0.00171019 0)
(2.99484 0.00348391 0)
(2.98504 0.0100945 0)
(2.96799 0.0213637 0)
(2.90606 0.062453 0)
(2.7521 0.158066 0)
(2.35403 0.443713 0)
(1.86631 0.867827 0)
(1.70562 0.983661 0)
(3 1.15041e-10 0)
(3 1.12908e-09 0)
(3 3.13225e-09 0)
(3 1.03535e-08 0)
(3 2.27303e-08 0)
(3 6.54699e-08 0)
(3 1.37685e-07 0)
(3 3.8491e-07 0)
(3 8.02723e-07 0)
(3 2.22656e-06 0)
(2.99999 4.63622e-06 0)
(2.99998 1.28185e-05 0)
(2.99996 2.66514e-05 0)
(2.9999 7.36104e-05 0)
(2.99975 0.000152419 0)
(2.99945 0.000424006 0)
(2.99857 0.000861924 0)
(2.99681 0.00251543 0)
(2.99164 0.00479732 0)
(2.98082 0.0156807 0)
(2.94919 0.0297698 0)
(2.87171 0.101584 0)
(2.65809 0.245069 0)
(2.14918 0.671483 0)
(1.82801 0.940168 0)
(3 7.09239e-11 0)
(3 6.80166e-10 0)
(3 1.9007e-09 0)
(3 6.2322e-09 0)
(3 1.37546e-08 0)
(3 3.93532e-08 0)
(3 8.31561e-08 0)
(3 2.31182e-07 0)
(3 4.84309e-07 0)
(3 1.33786e-06 0)
(3 2.79861e-06 0)
(2.99999 7.71981e-06 0)
(2.99998 1.61437e-05 0)
(2.99994 4.45433e-05 0)
(2.99987 9.30615e-05 0)
(2.99968 0.000257403 0)
(2.99929 0.000536694 0)
(2.99813 0.00149387 0)
(2.99596 0.00311906 0)
(2.98886 0.00876964 0)
(2.97561 0.0188892 0)
(2.93187 0.0537725 0)
(2.8245 0.13137 0)
(2.52514 0.374881 0)
(2.04401 0.798678 0)
(3 6.91626e-11 0)
(3 3.18224e-10 0)
(3 1.3022e-09 0)
(3 3.09707e-09 0)
(3 9.18595e-09 0)
(3 1.97451e-08 0)
(3 5.49659e-08 0)
(3 1.15714e-07 0)
(3 3.17495e-07 0)
(3 6.65235e-07 0)
(3 1.81851e-06 0)
(2.99999 3.80373e-06 0)
(2.99999 1.03866e-05 0)
(2.99997 2.16823e-05 0)
(2.99993 5.9238e-05 0)
(2.99982 0.000123254 0)
(2.9996 0.000338445 0)
(2.99896 0.000697594 0)
(2.99769 0.00196351 0)
(2.99396 0.00392865 0)
(2.98632 0.0117584 0)
(2.96367 0.0238044 0)
(2.91006 0.0732226 0)
(2.75857 0.180155 0)
(2.35585 0.513211 0)
(3 3.56887e-11 0)
(3 1.92707e-10 0)
(3 7.19146e-10 0)
(3 1.841e-09 0)
(3 5.09125e-09 0)
(3 1.1674e-08 0)
(3 3.0448e-08 0)
(3 6.82158e-08 0)
(3 1.75705e-07 0)
(3 3.91646e-07 0)
(3 1.00646e-06 0)
(3 2.24105e-06 0)
(2.99999 5.75832e-06 0)
(2.99998 1.28164e-05 0)
(2.99996 3.29464e-05 0)
(2.99991 7.32396e-05 0)
(2.99977 0.000188657 0)
(2.99948 0.000418472 0)
(2.99865 0.00108508 0)
(2.997 0.00240759 0)
(2.99218 0.00631816 0)
(2.98201 0.0144236 0)
(2.95281 0.0382932 0)
(2.88185 0.0968642 0)
(2.67907 0.267352 0)
(3 1.2908e-11 0)
(3 1.21061e-10 0)
(3 3.41914e-10 0)
(3 1.11034e-09 0)
(3 2.47134e-09 0)
(3 6.99208e-09 0)
(3 1.4881e-08 0)
(3 4.08456e-08 0)
(3 8.61282e-08 0)
(3 2.34754e-07 0)
(3 4.94264e-07 0)
(3 1.34515e-06 0)
(3 2.83258e-06 0)
(2.99999 7.70726e-06 0)
(2.99998 1.62296e-05 0)
(2.99995 4.41796e-05 0)
(2.99988 9.29522e-05 0)
(2.99971 0.000253645 0)
(2.99935 0.000532675 0)
(2.99831 0.0014626 0)
(2.99633 0.00309083 0)
(2.99016 0.00853328 0)
(2.97825 0.0187283 0)
(2.94105 0.0518723 0)
(2.84939 0.128448 0)
(3 1.08202e-11 0)
(3 5.7698e-11 0)
(3 2.16064e-10 0)
(3 5.52606e-10 0)
(3 1.53097e-09 0)
(3 3.5109e-09 0)
(3 9.16201e-09 0)
(3 2.05275e-08 0)
(3 5.2813e-08 0)
(3 1.17675e-07 0)
(3 3.01598e-07 0)
(3 6.70922e-07 0)
(3 1.71735e-06 0)
(3 3.81686e-06 0)
(2.99999 9.76506e-06 0)
(2.99997 2.1675e-05 0)
(2.99994 5.54668e-05 0)
(2.99985 0.000122867 0)
(2.99966 0.000315314 0)
(2.99913 0.000694597 0)
(2.99807 0.00180786 0)
(2.995 0.00393283 0)
(2.98875 0.0105797 0)
(2.97046 0.0234869 0)
(2.92792 0.0641637 0)
(3 6.35673e-12 0)
(3 3.04321e-11 0)
(3 1.21922e-10 0)
(3 2.94417e-10 0)
(3 8.58554e-10 0)
(3 1.87085e-09 0)
(3 5.11657e-09 0)
(3 1.09135e-08 0)
(3 2.93736e-08 0)
(3 6.23409e-08 0)
(3 1.66981e-07 0)
(3 3.53878e-07 0)
(3 9.46263e-07 0)
(3 2.00418e-06 0)
(2.99999 5.3569e-06 0)
(2.99999 1.134e-05 0)
(2.99997 3.03208e-05 0)
(2.99992 6.41127e-05 0)
(2.99983 0.000171657 0)
(2.99956 0.000362112 0)
(2.99903 0.000974298 0)
(2.99745 0.00204816 0)
(2.99457 0.00559274 0)
(2.98485 0.0119229 0)
(2.96693 0.0334904 0)
(3 3.29512e-12 0)
(3 1.5822e-11 0)
(3 6.3168e-11 0)
(3 1.52787e-10 0)
(3 4.44792e-10 0)
(3 9.69966e-10 0)
(3 2.64767e-09 0)
(3 5.64938e-09 0)
(3 1.5176e-08 0)
(3 3.22132e-08 0)
(3 8.61121e-08 0)
(3 1.82518e-07 0)
(3 4.86877e-07 0)
(3 1.03147e-06 0)
(3 2.74788e-06 0)
(2.99999 5.81962e-06 0)
(2.99998 1.54905e-05 0)
(2.99996 3.27738e-05 0)
(2.99991 8.72778e-05 0)
(2.99979 0.000184237 0)
(2.99948 0.000493614 0)
(2.99884 0.00103217 0)
(2.99699 0.00285062 0)
(2.99344 0.00576859 0)
(2.98238 0.0171268 0)
(3 1.06338e-12 0)
(3 9.71458e-12 0)
(3 2.77716e-11 0)
(3 8.86757e-11 0)
(3 1.99855e-10 0)
(3 5.5578e-10 0)
(3 1.19625e-09 0)
(3 3.22324e-09 0)
(3 6.86434e-09 0)
(3 1.83372e-08 0)
(3 3.89449e-08 0)
(3 1.0372e-07 0)
(3 2.20097e-07 0)
(3 5.853e-07 0)
(3 1.24159e-06 0)
(3 3.29952e-06 0)
(2.99999 6.9971e-06 0)
(2.99998 1.86013e-05 0)
(2.99995 3.94273e-05 0)
(2.9999 0.000105005 0)
(2.99974 0.000222406 0)
(2.99942 0.000595369 0)
(2.99852 0.00125566 0)
(2.99672 0.00343065 0)
(2.99155 0.00711438 0)
(3 5.91503e-13 0)
(3 4.76738e-12 0)
(3 1.45599e-11 0)
(3 4.40163e-11 0)
(3 1.04246e-10 0)
(3 2.76625e-10 0)
(3 6.2363e-10 0)
(3 1.60716e-09 0)
(3 3.58201e-09 0)
(3 9.16226e-09 0)
(3 2.03624e-08 0)
(3 5.19558e-08 0)
(3 1.15378e-07 0)
(3 2.94002e-07 0)
(3 6.52681e-07 0)
(3 1.66134e-06 0)
(3 3.68674e-06 0)
(2.99999 9.37574e-06 0)
(2.99998 2.07881e-05 0)
(2.99995 5.28439e-05 0)
(2.99988 0.000116957 0)
(2.9997 0.000297629 0)
(2.99935 0.000657093 0)
(2.99832 0.00167902 0)
(2.99641 0.0037213 0)
(3 4.22999e-13 0)
(3 1.93495e-12 0)
(3 7.78469e-12 0)
(3 1.8883e-11 0)
(3 5.49043e-11 0)
(3 1.20301e-10 0)
(3 3.27432e-10 0)
(3 7.02126e-10 0)
(3 1.88005e-09 0)
(3 4.01136e-09 0)
(3 1.06854e-08 0)
(3 2.2775e-08 0)
(3 6.05089e-08 0)
(3 1.28958e-07 0)
(3 3.41864e-07 0)
(3 7.28578e-07 0)
(3 1.92723e-06 0)
(3 4.10543e-06 0)
(2.99999 1.0839e-05 0)
(2.99998 2.30564e-05 0)
(2.99994 6.08224e-05 0)
(2.99987 0.000129032 0)
(2.99967 0.000341467 0)
(2.99927 0.00071818 0)
(2.9981 0.00194222 0)
(3 1.33733e-13 0)
(3 1.14352e-12 0)
(3 3.34125e-12 0)
(3 1.05738e-11 0)
(3 2.40349e-11 0)
(3 6.65528e-11 0)
(3 1.44183e-10 0)
(3 3.86777e-10 0)
(3 8.29595e-10 0)
(3 2.20536e-09 0)
(3 4.71881e-09 0)
(3 1.2499e-08 0)
(3 2.67301e-08 0)
(3 7.06285e-08 0)
(3 1.51027e-07 0)
(3 3.98107e-07 0)
(3 8.51045e-07 0)
(3 2.23789e-06 0)
(3 4.77992e-06 0)
(2.99999 1.25426e-05 0)
(2.99997 2.67388e-05 0)
(2.99994 7.00943e-05 0)
(2.99984 0.000148925 0)
(2.99966 0.000391875 0)
(2.99912 0.000823651 0)
(3 4.18855e-14 0)
(3 5.0301e-13 0)
(3 1.61908e-12 0)
(3 4.89622e-12 0)
(3 1.16151e-11 0)
(3 3.09513e-11 0)
(3 6.97692e-11 0)
(3 1.79994e-10 0)
(3 4.01177e-10 0)
(3 1.02638e-09 0)
(3 2.28055e-09 0)
(3 5.81501e-09 0)
(3 1.29051e-08 0)
(3 3.28317e-08 0)
(3 7.28084e-08 0)
(3 1.8486e-07 0)
(3 4.0964e-07 0)
(3 1.03822e-06 0)
(3 2.29846e-06 0)
(2.99999 5.81852e-06 0)
(2.99999 1.28653e-05 0)
(2.99997 3.25708e-05 0)
(2.99993 7.19163e-05 0)
(2.99983 0.000182502 0)
(2.99963 0.000402273 0)
(3 5.57445e-14 0)
(3 2.1803e-13 0)
(3 8.16214e-13 0)
(3 2.05697e-12 0)
(3 5.63609e-12 0)
(3 1.28864e-11 0)
(3 3.36283e-11 0)
(3 7.5249e-11 0)
(3 1.93413e-10 0)
(3 4.30002e-10 0)
(3 1.09936e-09 0)
(3 2.43906e-09 0)
(3 6.21709e-09 0)
(3 1.37779e-08 0)
(3 3.50408e-08 0)
(3 7.75808e-08 0)
(3 1.96979e-07 0)
(3 4.3569e-07 0)
(3 1.10521e-06 0)
(3 2.44221e-06 0)
(2.99999 6.19603e-06 0)
(2.99999 1.36805e-05 0)
(2.99997 3.4762e-05 0)
(2.99993 7.66968e-05 0)
(2.99982 0.000195649 0)
(3 2.06028e-14 0)
(3 1.26892e-13 0)
(3 3.24799e-13 0)
(3 1.05322e-12 0)
(3 2.35456e-12 0)
(3 6.45002e-12 0)
(3 1.39623e-11 0)
(3 3.72881e-11 0)
(3 8.01666e-11 0)
(3 2.12348e-10 0)
(3 4.55931e-10 0)
(3 1.20262e-09 0)
(3 2.58014e-09 0)
(3 6.7847e-09 0)
(3 1.45455e-08 0)
(3 3.81603e-08 0)
(3 8.17425e-08 0)
(3 2.14166e-07 0)
(3 4.58373e-07 0)
(3 1.20078e-06 0)
(3 2.56832e-06 0)
(2.99999 6.73487e-06 0)
(2.99999 1.44016e-05 0)
(2.99997 3.78346e-05 0)
(2.99993 8.08987e-05 0)
(3 -1.28944e-14 0)
(3 -1.11269e-14 0)
(3 8.27583e-14 0)
(3 3.11692e-13 0)
(3 1.05611e-12 0)
(3 2.49243e-12 0)
(3 6.81065e-12 0)
(3 1.48357e-11 0)
(3 3.93949e-11 0)
(3 8.48609e-11 0)
(3 2.23886e-10 0)
(3 4.81579e-10 0)
(3 1.26615e-09 0)
(3 2.72077e-09 0)
(3 7.13315e-09 0)
(3 1.53161e-08 0)
(3 4.00697e-08 0)
(3 8.59689e-08 0)
(3 2.24666e-07 0)
(3 4.8169e-07 0)
(3 1.2589e-06 0)
(3 2.69804e-06 0)
(2.99999 7.05817e-06 0)
(2.99999 1.51258e-05 0)
(2.99997 3.96244e-05 0)
(3 1.19588e-14 0)
(3 3.33953e-14 0)
(3 7.98341e-14 0)
(3 1.8339e-13 0)
(3 5.27385e-13 0)
(3 1.10488e-12 0)
(3 3.02955e-12 0)
(3 6.4763e-12 0)
(3 1.71668e-11 0)
(3 3.69513e-11 0)
(3 9.73626e-11 0)
(3 2.09605e-10 0)
(3 5.507e-10 0)
(3 1.18502e-09 0)
(3 3.10375e-09 0)
(3 6.67401e-09 0)
(3 1.74353e-08 0)
(3 3.74621e-08 0)
(3 9.76994e-08 0)
(3 2.09769e-07 0)
(3 5.46675e-07 0)
(3 1.17322e-06 0)
(3 3.05782e-06 0)
(2.99999 6.56185e-06 0)
(2.99999 1.71084e-05 0)
(3 1.47802e-14 0)
(3 5.84986e-14 0)
(3 9.66092e-14 0)
(3 1.47022e-13 0)
(3 2.72364e-13 0)
(3 5.27108e-13 0)
(3 1.14762e-12 0)
(3 2.90292e-12 0)
(3 6.48529e-12 0)
(3 1.66982e-11 0)
(3 3.70951e-11 0)
(3 9.48493e-11 0)
(3 2.10269e-10 0)
(3 5.36408e-10 0)
(3 1.18794e-09 0)
(3 3.02258e-09 0)
(3 6.68789e-09 0)
(3 1.69749e-08 0)
(3 3.75194e-08 0)
(3 9.50615e-08 0)
(3 2.09897e-07 0)
(3 5.31375e-07 0)
(3 1.1724e-06 0)
(3 2.96844e-06 0)
(2.99999 6.54754e-06 0)
(3 -1.7243e-15 0)
(3 1.05467e-14 0)
(3 2.25481e-14 0)
(3 2.96021e-14 0)
(3 5.01884e-14 0)
(3 1.34973e-13 0)
(3 3.29277e-13 0)
(3 1.08074e-12 0)
(3 2.546e-12 0)
(3 6.94536e-12 0)
(3 1.52282e-11 0)
(3 4.03551e-11 0)
(3 8.71892e-11 0)
(3 2.29014e-10 0)
(3 4.93571e-10 0)
(3 1.29128e-09 0)
(3 2.78123e-09 0)
(3 7.25506e-09 0)
(3 1.56136e-08 0)
(3 4.06325e-08 0)
(3 8.73701e-08 0)
(3 2.27018e-07 0)
(3 4.87819e-07 0)
(3 1.26665e-06 0)
(3 2.72097e-06 0)
(3 2.35426e-14 0)
(3 4.51062e-14 0)
(3 7.66757e-14 0)
(3 9.88102e-14 0)
(3 1.17495e-13 0)
(3 1.7e-13 0)
(3 2.78294e-13 0)
(3 5.51417e-13 0)
(3 1.10702e-12 0)
(3 2.68788e-12 0)
(3 5.90146e-12 0)
(3 1.51021e-11 0)
(3 3.35319e-11 0)
(3 8.59071e-11 0)
(3 1.90513e-10 0)
(3 4.8588e-10 0)
(3 1.07599e-09 0)
(3 2.73554e-09 0)
(3 6.05193e-09 0)
(3 1.53455e-08 0)
(3 3.39163e-08 0)
(3 8.58192e-08 0)
(3 1.89495e-07 0)
(3 4.78813e-07 0)
(3 1.0564e-06 0)
(3 2.09091e-14 0)
(3 3.66529e-14 0)
(3 6.69864e-14 0)
(3 9.08166e-14 0)
(3 1.12373e-13 0)
(3 1.47761e-13 0)
(3 1.94175e-13 0)
(3 2.67353e-13 0)
(3 4.19628e-13 0)
(3 7.22226e-13 0)
(3 1.81835e-12 0)
(3 3.35733e-12 0)
(3 9.74415e-12 0)
(3 1.85534e-11 0)
(3 5.47835e-11 0)
(3 1.04843e-10 0)
(3 3.09095e-10 0)
(3 5.9217e-10 0)
(3 1.73914e-09 0)
(3 3.3337e-09 0)
(3 9.75082e-09 0)
(3 1.86998e-08 0)
(3 5.44922e-08 0)
(3 1.04559e-07 0)
(3 3.03706e-07 0)
(1.32924 1.10798 0)
(1.7777 0.903978 0)
(1.99978 0.635568 0)
(2.05613 0.360673 0)
(2.0252 0.13834 0)
(1.95424 -0.0127566 0)
(1.87135 -0.0595859 0)
(1.82446 -0.0394221 0)
(1.81912 -0.000562181 0)
(1.82757 0.0287283 0)
(1.84028 0.0391881 0)
(1.85502 0.0337119 0)
(1.86479 0.0224007 0)
(1.87174 0.0107151 0)
(1.87897 0.00331731 0)
(1.88815 0.000687151 0)
(1.89988 0.00103438 0)
(1.91406 0.00202192 0)
(1.92967 0.00239024 0)
(1.94598 0.00186486 0)
(1.96259 0.000774255 0)
(1.97935 -0.000442563 0)
(1.9963 -0.0014871 0)
(2.0135 -0.00223513 0)
(2.03095 -0.00269829 0)
(2.04865 -0.00295032 0)
(2.06655 -0.00307236 0)
(2.08459 -0.00312662 0)
(2.10272 -0.00315039 0)
(2.12087 -0.00316032 0)
(2.13899 -0.00315992 0)
(2.15703 -0.00314589 0)
(2.17492 -0.0031121 0)
(2.19263 -0.00305241 0)
(2.21011 -0.00296285 0)
(2.22733 -0.00284316 0)
(2.24426 -0.00269623 0)
(2.26088 -0.00252473 0)
(2.27717 -0.00233222 0)
(2.29311 -0.00212714 0)
(2.3087 -0.00191607 0)
(2.3239 -0.00170206 0)
(2.33871 -0.00149084 0)
(2.35309 -0.00127835 0)
(2.36703 -0.00106603 0)
(2.3805 -0.000858197 0)
(2.39348 -0.000636711 0)
(2.40592 -0.000398793 0)
(2.41782 -0.000155258 0)
(2.42915 9.03529e-05 0)
(2.4399 0.000358626 0)
(2.45009 0.00064174 0)
(2.45967 0.000936055 0)
(2.46865 0.00124057 0)
(2.47702 0.0015555 0)
(2.4848 0.00187605 0)
(2.49197 0.00219887 0)
(2.49853 0.00253597 0)
(2.50447 0.00288924 0)
(2.50982 0.0032612 0)
(2.51458 0.00359584 0)
(2.51877 0.00394917 0)
(2.52239 0.00434709 0)
(2.52544 0.00467814 0)
(2.52795 0.00488794 0)
(2.52995 0.00497655 0)
(2.53147 0.00499979 0)
(2.53255 0.00495599 0)
(2.53321 0.00489229 0)
(2.53342 0.00480539 0)
(2.53324 0.00471371 0)
(2.5328 0.00466479 0)
(2.53208 0.00462989 0)
(2.53117 0.00459639 0)
(2.53019 0.00456305 0)
(2.52906 0.00453498 0)
(2.52757 0.00451647 0)
(2.52564 0.00450624 0)
(2.52344 0.00448968 0)
(2.5212 0.00445686 0)
(2.51896 0.00440126 0)
(2.51666 0.00432696 0)
(2.51434 0.00425185 0)
(2.51224 0.00417955 0)
(2.51033 0.00397619 0)
(2.50842 0.00371362 0)
(2.50679 0.00344392 0)
(2.50563 0.00300966 0)
(2.50513 0.00256929 0)
(2.50532 0.00183557 0)
(2.50579 0.000851967 0)
(2.50709 9.35573e-06 0)
(2.50897 -0.00101105 0)
(2.51197 -0.00162031 0)
(2.51576 -0.00244742 0)
(2.52056 -0.00307179 0)
(2.52593 -0.0037509 0)
(2.53178 -0.00412003 0)
(2.53698 -0.00426032 0)
(2.54344 -0.0038631 0)
(1.40576 1.01338 0)
(1.74048 0.735604 0)
(1.93755 0.425934 0)
(2.04288 0.153331 0)
(2.1061 -0.0420954 0)
(2.15002 -0.151144 0)
(2.17279 -0.173035 0)
(2.17927 -0.139281 0)
(2.17957 -0.0940414 0)
(2.17174 -0.0552643 0)
(2.16302 -0.028421 0)
(2.1627 -0.0187954 0)
(2.16841 -0.0206422 0)
(2.17632 -0.0240661 0)
(2.18639 -0.0272443 0)
(2.19666 -0.0294414 0)
(2.20618 -0.0296349 0)
(2.21527 -0.0285161 0)
(2.2244 -0.027145 0)
(2.23395 -0.0260264 0)
(2.24408 -0.0252212 0)
(2.25473 -0.0245873 0)
(2.2658 -0.0239943 0)
(2.27719 -0.0233738 0)
(2.28886 -0.022708 0)
(2.30075 -0.0220071 0)
(2.31285 -0.0212918 0)
(2.32515 -0.0205844 0)
(2.33764 -0.0199036 0)
(2.35029 -0.0192627 0)
(2.36305 -0.0186693 0)
(2.37591 -0.0181236 0)
(2.38881 -0.0176177 0)
(2.40173 -0.0171388 0)
(2.41462 -0.0166721 0)
(2.42746 -0.0162075 0)
(2.44021 -0.01574 0)
(2.45286 -0.0152631 0)