/*--------------------------------*- C++ -*----------------------------------*\
| =========                 |                                                 |
| \\      /  F ield         | OpenFOAM: The Open Source CFD Toolbox           |
|  \\    /   O peration     | Version:  2412                                  |
|   \\  /    A nd           | Website:  www.openfoam.com                      |
|    \\/     M anipulation  |                                                 |
\*---------------------------------------------------------------------------*/
FoamFile
{
    version     2.0;
    format      ascii;
    arch        "LSB;label=32;scalar=64";
    class       volScalarField;
    location    "7";
    object      p;
}
// * * * * * * * * * * * * * * * * * * * * * * * * * * * * * * * * * * * * * //

dimensions      [1 -1 -2 0 0 0 0];

internalField   nonuniform List<scalar> 
50
(
215471
252273
302964
370972
439657
202128
235286
282054
345395
413370
189686
219109
261855
321945
391359
177940
203426
241534
297417
366832
171537
194794
230328
284291
355384
537879
538791
545123
567631
607392
506535
526856
553521
587600
619125
494522
538376
577018
606444
627027
476860
541531
590044
618695
633632
475814
553306
605986
629630
639545
)
;

boundaryField
{
    inlet
    {
        type            fixedValue;
        value           uniform 101325;
    }
    sym
    {
        type            slip;
    }
    wedge
    {
        type            slip;
    }
    top
    {
        type            slip;
    }
    back
    {
        type            empty;
    }
    front
    {
        type            empty;
    }
    outlet
    {
        type            zeroGradient;
    }
}


// ************************************************************************* //
