/*--------------------------------*- C++ -*----------------------------------*\
| =========                 |                                                 |
| \\      /  F ield         | OpenFOAM: The Open Source CFD Toolbox           |
|  \\    /   O peration     | Version:  2412                                  |
|   \\  /    A nd           | Website:  www.openfoam.com                      |
|    \\/     M anipulation  |                                                 |
\*---------------------------------------------------------------------------*/
FoamFile
{
    version     2.0;
    format      ascii;
    arch        "LSB;label=32;scalar=64";
    class       surfaceScalarField;
    location    "7";
    object      phi;
}
// * * * * * * * * * * * * * * * * * * * * * * * * * * * * * * * * * * * * * //

dimensions      [1 0 -1 0 0 0 0];

oriented        oriented;

internalField   nonuniform List<scalar> 
85
(
1.87386e+08
1.11291e+06
1.79009e+08
2.78264e+06
1.6668e+08
5.31399e+06
1.4915e+08
9.38449e+06
1.45591e+07
1.26081e+08
1.88757e+08
1.29589e+06
1.82663e+08
3.3066e+06
1.74428e+08
6.37535e+06
1.63889e+08
1.1062e+07
1.68609e+07
1.52022e+08
1.89666e+08
1.06519e+06
1.84832e+08
2.72089e+06
1.78709e+08
5.30569e+06
1.71163e+08
9.28337e+06
1.43797e+07
1.62945e+08
1.90446e+08
561595
1.86513e+08
1.43488e+06
1.81911e+08
2.80655e+06
1.76687e+08
4.92775e+06
7.68373e+06
1.71681e+08
1.90792e+08
1.87126e+08
1.82893e+08
1.78026e+08
1.73318e+08
1.24407e+08
-7.84808e+06
1.11228e+08
5.15045e+06
9.66648e+07
6.74291e+06
8.62001e+07
3.17555e+06
-8.10405e+06
1.34962e+08
-5.11246e+06
1.20569e+08
8.83765e+06
1.08845e+08
9.51391e+06
1.03299e+08
114724
-1.45172e+07
1.41791e+08
-2.74317e+06
1.30919e+08
7.67949e+06
1.24931e+08
7.02573e+06
1.19915e+08
-872723
-1.35603e+07
1.47209e+08
-710346
1.35521e+08
4.70016e+06
1.29305e+08
4.18621e+06
1.23299e+08
-996489
-8.64666e+06
1.46818e+08
1.35242e+08
1.30868e+08
1.24611e+08
)
;

boundaryField
{
    inlet
    {
        type            calculated;
        value           nonuniform List<scalar> 5(-1.92946e+08 -1.93241e+08 -1.93534e+08 -1.93828e+08 -1.93997e+08);
    }
    sym
    {
        type            calculated;
        value           uniform 0;
    }
    wedge
    {
        type            calculated;
        value           nonuniform List<scalar> 5(1.28816e-08 -2.63871e-28 1.29339e-08 -1.32115e-08 -3.93438e-28);
    }
    top
    {
        type            calculated;
        value           uniform 0;
    }
    back
    {
        type            empty;
    }
    front
    {
        type            empty;
    }
    outlet
    {
        type            calculated;
        value           nonuniform List<scalar> 5(8.79456e+07 1.02879e+08 1.14077e+08 1.13636e+08 1.12032e+08);
    }
}


// ************************************************************************* //
