/*--------------------------------*- C++ -*----------------------------------*\
| =========                 |                                                 |
| \\      /  F ield         | OpenFOAM: The Open Source CFD Toolbox           |
|  \\    /   O peration     | Version:  2412                                  |
|   \\  /    A nd           | Website:  www.openfoam.com                      |
|    \\/     M anipulation  |                                                 |
\*---------------------------------------------------------------------------*/
FoamFile
{
    version     2.0;
    format      ascii;
    arch        "LSB;label=32;scalar=64";
    class       volScalarField;
    location    "7";
    object      T;
}
// * * * * * * * * * * * * * * * * * * * * * * * * * * * * * * * * * * * * * //

dimensions      [0 0 0 1 0 0 0];

internalField   nonuniform List<scalar> 
50
(
402.866
429.008
463.418
495.282
526.724
392.528
417.477
450.323
483.636
514.441
382.42
405.784
437.623
472.438
505.885
372.398
393.666
423.906
459.625
496.181
366.742
386.677
415.88
452.396
491.725
540.678
541.486
545.744
556.336
557.771
537.709
545.575
554.303
565.392
565.77
538.951
550.708
558.127
562.196
559.382
537.606
556.432
565.638
568.879
566.717
540.244
562.857
571.37
573.161
570.62
)
;

boundaryField
{
    inlet
    {
        type            fixedValue;
        value           uniform 300;
    }
    sym
    {
        type            slip;
    }
    wedge
    {
        type            slip;
    }
    top
    {
        type            slip;
    }
    back
    {
        type            empty;
    }
    front
    {
        type            empty;
    }
    outlet
    {
        type            inletOutlet;
        inletValue      uniform 300;
        value           nonuniform List<scalar> 5(557.602 565.603 559.207 566.555 570.482);
    }
}


// ************************************************************************* //
