/*--------------------------------*- C++ -*----------------------------------*\
| =========                 |                                                 |
| \\      /  F ield         | OpenFOAM: The Open Source CFD Toolbox           |
|  \\    /   O peration     | Version:  2412                                  |
|   \\  /    A nd           | Website:  www.openfoam.com                      |
|    \\/     M anipulation  |                                                 |
\*---------------------------------------------------------------------------*/
FoamFile
{
    version     2.0;
    format      ascii;
    arch        "LSB;label=32;scalar=64";
    class       volVectorField;
    location    "7";
    object      U;
}
// * * * * * * * * * * * * * * * * * * * * * * * * * * * * * * * * * * * * * //

dimensions      [0 1 -1 0 0 0 0];

internalField   nonuniform List<vector> 
50
(
(502.101 3.36555 0)
(458.487 7.73055 0)
(395.726 13.4144 0)
(319.457 21.2591 0)
(233.882 31.2221 0)
(521.295 6.45237 0)
(482.189 14.7427 0)
(425.994 25.2163 0)
(356.674 38.3972 0)
(282.764 52.8186 0)
(539.247 6.02467 0)
(504.579 13.9402 0)
(453.528 24.2163 0)
(388.13 37.1335 0)
(315.973 51.4258 0)
(556.367 4.51198 0)
(526.529 10.5338 0)
(481.181 18.4995 0)
(420.288 28.619 0)
(349.882 39.822 0)
(565.767 1.59481 0)
(538.733 3.75506 0)
(496.569 6.67224 0)
(437.524 10.4639 0)
(365.663 14.7282 0)
(141.16 74.6584 0)
(167.337 104.943 3.37337e-17)
(187.113 122.004 0)
(194.772 130.513 4.89392e-17)
(218.098 140.421 -5.97537e-17)
(205.12 98.9023 2.90097e-17)
(208.124 126.216 3.432e-17)
(213.561 131.326 4.09372e-17)
(224.603 124.138 1.6124e-18)
(254.018 115.744 -6.08493e-17)
(237.055 80.5271 -2.97679e-17)
(227.941 93.3874 -3.38836e-17)
(231.247 91.4467 -3.95125e-17)
(247.537 82.4713 -4.7738e-17)
(275.009 74.5342 5.93112e-17)
(267.919 58.4989 0)
(244.298 66.932 0)
(238.526 64.8596 0)
(250.951 59.947 0)
(274.662 53.0576 0)
(276.316 19.0737 0)
(243.629 19.0748 0)
(234.462 14.8037 0)
(247.522 9.66344 0)
(270.154 5.4942 0)
)
;

boundaryField
{
    inlet
    {
        type            fixedValue;
        value           uniform (664 0 0);
    }
    sym
    {
        type            slip;
    }
    wedge
    {
        type            slip;
    }
    top
    {
        type            slip;
    }
    back
    {
        type            empty;
    }
    front
    {
        type            empty;
    }
    outlet
    {
        type            inletOutlet;
        inletValue      uniform (664 0 0);
        value           nonuniform List<vector> 5((218.098 140.421 -5.97537e-17) (254.018 115.744 -6.08493e-17) (275.009 74.5342 5.93112e-17) (274.662 53.0576 0) (270.154 5.4942 0));
    }
}


// ************************************************************************* //
