/*--------------------------------*- C++ -*----------------------------------*\
| =========                 |                                                 |
| \\      /  F ield         | OpenFOAM: The Open Source CFD Toolbox           |
|  \\    /   O peration     | Version:  2412                                  |
|   \\  /    A nd           | Website:  www.openfoam.com                      |
|    \\/     M anipulation  |                                                 |
\*---------------------------------------------------------------------------*/
FoamFile
{
    version     2.0;
    format      ascii;
    arch        "LSB;label=32;scalar=64";
    class       surfaceScalarField;
    location    "6";
    object      phi;
}
// * * * * * * * * * * * * * * * * * * * * * * * * * * * * * * * * * * * * * //

dimensions      [1 0 -1 0 0 0 0];

oriented        oriented;

internalField   nonuniform List<scalar> 
85
(
1.89766e+08
918913
1.83701e+08
2.33281e+06
1.74287e+08
4.57945e+06
1.59758e+08
8.55449e+06
1.42076e+07
1.38462e+08
1.90971e+08
1.04713e+06
1.8695e+08
2.6927e+06
1.81412e+08
5.29541e+06
1.74029e+08
9.58983e+06
1.56955e+07
1.64907e+08
1.91692e+08
848176
1.88666e+08
2.16184e+06
1.84947e+08
4.25383e+06
1.80408e+08
7.68177e+06
1.27156e+07
1.75253e+08
1.92287e+08
445706
1.89895e+08
1.12681e+06
1.8732e+08
2.19974e+06
1.84661e+08
3.93619e+06
6.4995e+06
1.82471e+08
1.92535e+08
1.90299e+08
1.87945e+08
1.8554e+08
1.83513e+08
1.43298e+08
-1.39349e+07
1.30881e+08
4.55291e+06
1.1183e+08
1.20947e+07
9.71185e+07
7.69272e+06
-6.58653e+06
1.4781e+08
-1.22453e+07
1.31482e+08
8.96407e+06
1.18866e+08
1.45327e+07
1.10094e+08
7.19849e+06
-1.47685e+07
1.53995e+08
-9.0349e+06
1.42427e+08
7.24977e+06
1.35069e+08
1.20378e+07
1.31335e+08
4.09805e+06
-1.38099e+07
1.58435e+08
-5.41885e+06
1.43997e+08
4.41692e+06
1.37936e+08
6.92688e+06
1.33565e+08
1.99572e+06
-8.68726e+06
1.56268e+08
1.42251e+08
1.38355e+08
1.3472e+08
)
;

boundaryField
{
    inlet
    {
        type            calculated;
        value           nonuniform List<scalar> 5(-1.93568e+08 -1.93872e+08 -1.94162e+08 -1.94449e+08 -1.94612e+08);
    }
    sym
    {
        type            calculated;
        value           uniform 0;
    }
    wedge
    {
        type            calculated;
        value           nonuniform List<scalar> 5(0 1.21718e-08 0 1.22978e-08 -3.98796e-28);
    }
    top
    {
        type            calculated;
        value           uniform 0;
    }
    back
    {
        type            empty;
    }
    front
    {
        type            empty;
    }
    outlet
    {
        type            calculated;
        value           nonuniform List<scalar> 5(9.55979e+07 1.09818e+08 1.25766e+08 1.24608e+08 1.225e+08);
    }
}


// ************************************************************************* //
