/*--------------------------------*- C++ -*----------------------------------*\
| =========                 |                                                 |
| \\      /  F ield         | OpenFOAM: The Open Source CFD Toolbox           |
|  \\    /   O peration     | Version:  2412                                  |
|   \\  /    A nd           | Website:  www.openfoam.com                      |
|    \\/     M anipulation  |                                                 |
\*---------------------------------------------------------------------------*/
FoamFile
{
    version     2.0;
    format      ascii;
    arch        "LSB;label=32;scalar=64";
    class       volScalarField;
    location    "6";
    object      T;
}
// * * * * * * * * * * * * * * * * * * * * * * * * * * * * * * * * * * * * * //

dimensions      [0 0 0 1 0 0 0];

internalField   nonuniform List<scalar> 
50
(
381.169
402.952
434.483
467.026
507.258
370.829
390.35
417.912
449.77
485.187
361.221
378.343
403.08
433.724
469.438
352.014
366.519
388.058
416.586
452.133
346.908
359.911
379.613
407.084
442.897
527.801
528.61
530.453
536.851
538.08
517.3
526.205
534.733
545.101
547.61
511.828
528.65
539.534
545.406
541.494
501.4
530.99
547.372
553.066
550.253
499.33
536.987
555.337
559.615
555.99
)
;

boundaryField
{
    inlet
    {
        type            fixedValue;
        value           uniform 300;
    }
    sym
    {
        type            slip;
    }
    wedge
    {
        type            slip;
    }
    top
    {
        type            slip;
    }
    back
    {
        type            empty;
    }
    front
    {
        type            empty;
    }
    outlet
    {
        type            inletOutlet;
        inletValue      uniform 300;
        value           nonuniform List<scalar> 5(537.862 547.408 541.309 550.088 555.838);
    }
}


// ************************************************************************* //
