/*--------------------------------*- C++ -*----------------------------------*\
| =========                 |                                                 |
| \\      /  F ield         | OpenFOAM: The Open Source CFD Toolbox           |
|  \\    /   O peration     | Version:  2412                                  |
|   \\  /    A nd           | Website:  www.openfoam.com                      |
|    \\/     M anipulation  |                                                 |
\*---------------------------------------------------------------------------*/
FoamFile
{
    version     2.0;
    format      ascii;
    arch        "LSB;label=32;scalar=64";
    class       volVectorField;
    location    "6";
    object      U;
}
// * * * * * * * * * * * * * * * * * * * * * * * * * * * * * * * * * * * * * //

dimensions      [0 1 -1 0 0 0 0];

internalField   nonuniform List<vector> 
50
(
(539.555 3.0185 0)
(504.726 7.09997 0)
(452.098 12.7185 0)
(382.256 21.1365 0)
(290.374 32.6151 0)
(557.312 5.72149 0)
(528.064 13.3639 0)
(484.52 23.5908 0)
(425.594 37.6942 0)
(353.044 54.9114 0)
(573.33 5.22858 0)
(549.131 12.2771 0)
(512.517 21.8515 0)
(461.297 34.8995 0)
(395.701 51.278 0)
(588.213 3.88281 0)
(568.961 9.14609 0)
(539.225 16.3524 0)
(495.943 26.2185 0)
(437.678 38.6994 0)
(596.323 1.37302 0)
(579.797 3.24821 0)
(553.754 5.84384 0)
(514.357 9.44688 0)
(458.592 14.068 0)
(181.482 86.8162 0)
(201.599 121.768 3.28705e-17)
(221.064 143.515 0)
(235.2 156.207 4.67574e-17)
(258.163 164.868 -5.75443e-17)
(261.495 114.256 2.72911e-17)
(250.84 152.261 3.28353e-17)
(251.28 164.064 3.96201e-17)
(263.412 156.29 2.07299e-18)
(295.298 138.407 -5.98393e-17)
(308.687 89.5591 -2.87888e-17)
(282.041 113.254 -3.26744e-17)
(276.051 116.186 -3.79267e-17)
(289.103 104.186 -4.54255e-17)
(318.99 86.3784 5.63315e-17)
(354.379 64.7638 0)
(309.54 83.0096 0)
(286.433 83.4808 0)
(292.176 75.0166 0)
(315.779 62.038 0)
(370.595 21.8265 0)
(312.858 24.3551 0)
(281.453 20.8126 0)
(286.074 14.0963 0)
(308.149 7.21378 0)
)
;

boundaryField
{
    inlet
    {
        type            fixedValue;
        value           uniform (664 0 0);
    }
    sym
    {
        type            slip;
    }
    wedge
    {
        type            slip;
    }
    top
    {
        type            slip;
    }
    back
    {
        type            empty;
    }
    front
    {
        type            empty;
    }
    outlet
    {
        type            inletOutlet;
        inletValue      uniform (664 0 0);
        value           nonuniform List<vector> 5((258.163 164.868 -5.75443e-17) (295.298 138.407 -5.98393e-17) (318.99 86.3784 5.63315e-17) (315.779 62.038 0) (308.149 7.21378 0));
    }
}


// ************************************************************************* //
