/*--------------------------------*- C++ -*----------------------------------*\
| =========                 |                                                 |
| \\      /  F ield         | OpenFOAM: The Open Source CFD Toolbox           |
|  \\    /   O peration     | Version:  2412                                  |
|   \\  /    A nd           | Website:  www.openfoam.com                      |
|    \\/     M anipulation  |                                                 |
\*---------------------------------------------------------------------------*/
FoamFile
{
    version     2.0;
    format      ascii;
    arch        "LSB;label=32;scalar=64";
    class       volScalarField;
    location    "4";
    object      p;
}
// * * * * * * * * * * * * * * * * * * * * * * * * * * * * * * * * * * * * * //

dimensions      [0 2 -2 0 0 0 0];

internalField   nonuniform List<scalar> 
20000
(
746980
-523605
-376445
-290485
-237607
-206130
-186035
-172507
-166172
-164735
-166225
-170439
-176594
-184467
-193427
-202876
-212197
-221062
-229707
-238703
-248044
-257305
-266289
-274828
-282857
-290362
-297342
-303791
-309696
-315060
-319912
-324299
-328269
-331843
-335000
-337659
-339761
-341332
-342456
-343162
-343338
-342778
-341392
-339507
-337927
-337454
-338473
-341125
-345074
-349252
-352152
-353006
-352854
-352744
-352589
-352584
-352902
-353557
-354424
-355354
-356261
-357117
-357859
-358501
-359107
-359648
-359800
-359307
-358179
-356674
-355371
-354670
-354719
-355478
-356826
-358833
-361361
-364207
-366924
-369106
-370825
-372416
-374052
-375668
-377111
-378237
-378987
-379359
-379370
-379153
-378788
-378170
-377294
-376395
-375677
-375008
-373968
-372139
-369387
-365952
203625
-160950
-271065
-249399
-222346
-194234
-164727
-143646
-138786
-142299
-148694
-156761
-166276
-176943
-188127
-199344
-210308
-220881
-231111
-241184
-251126
-260905
-270439
-279579
-288271
-296496
-304247
-311503
-318230
-324379
-329876
-334643
-338622
-341792
-344138
-345636
-346304
-346267
-345736
-344956
-344111
-343243
-342304
-341326
-340644
-340798
-341939
-343867
-346387
-348893
-350712
-351710
-352338
-352922
-353368
-353726
-354036
-354366
-354842
-355466
-356119
-356654
-357032
-357383
-357862
-358421
-358684
-358434
-357825
-357119
-356540
-356325
-356582
-357306
-358551
-360460
-362826
-365255
-367620
-369794
-371704
-373384
-374910
-376280
-377432
-378309
-378868
-379119
-379112
-378905
-378527
-377983
-377315
-376593
-375821
-374872
-373529
-371625
-369164
-366301
79490.5
-91140.5
-204129
-222524
-186196
-135910
-101674
-92374.8
-98970.1
-112217
-127628
-143489
-159263
-174550
-189067
-202750
-215662
-227869
-239376
-250282
-260694
-270723
-280448
-289881
-299014
-307793
-316100
-323720
-330399
-335929
-340190
-343210
-345133
-346152
-346441
-346108
-345284
-344231
-343224
-342454
-342043
-341984
-342183
-342568
-343110
-343758
-344585
-345715
-347128
-348522
-349681
-350619
-351332
-351897
-352454
-353073
-353746
-354441
-355116
-355718
-356191
-356528
-356879
-357325
-357761
-358010
-358080
-358143
-358204
-358188
-358058
-357922
-357996
-358459
-359392
-360901
-362908
-365125
-367303
-369497
-371643
-373550
-375152
-376451
-377535
-378396
-378970
-379264
-379308
-379152
-378845
-378407
-377822
-377041
-376002
-374665
-373033
-371165
-369136
-366958
-30498.2
-180859
-230557
-231210
-194391
-142291
-101153
-86386.4
-92783.5
-109741
-130430
-150916
-170208
-187878
-203941
-218526
-231819
-244020
-255264
-265713
-275548
-284935
-294002
-302789
-311180
-318940
-325816
-331645
-336330
-339818
-342175
-343584
-344300
-344553
-344484
-344167
-343671
-343131
-342732
-342591
-342702
-342968
-343331
-343840
-344562
-345429
-346320
-347231
-348177
-349091
-349911
-350646
-351330
-351969
-352580
-353179
-353780
-354381
-354963
-355500
-355975
-356392
-356767
-357079
-357304
-357602
-357992
-358340
-358535
-358587
-358596
-358627
-358724
-358995
-359589
-360581
-361979
-363777
-365793
-367859
-369929
-371981
-373907
-375627
-377049
-378113
-378861
-379406
-379770
-379931
-379843
-379464
-378800
-377873
-376676
-375214
-373539
-371736
-369899
-368092
-329273
-662906
-609773
-474134
-350074
-249082
-180324
-152992
-154077
-166011
-182106
-198300
-213283
-226714
-238702
-249468
-259261
-268306
-276794
-284893
-292736
-300387
-307796
-314813
-321245
-326911
-331633
-335293
-337915
-339662
-340757
-341395
-341748
-341985
-342200
-342364
-342457
-342520
-342641
-342884
-343253
-343704
-344202
-344762
-345390
-346069
-346782
-347518
-348264
-349009
-349730
-350412
-351064
-351699
-352322
-352932
-353523
-354086
-354616
-355108
-355561
-355981
-356373
-356737
-357072
-357387
-357680
-357977
-358316
-358617
-358818
-358933
-359026
-359190
-359481
-359984
-360783
-361937
-363449
-365235
-367144
-369106
-371122
-373177
-375123
-376844
-378273
-379368
-380134
-380619
-380818
-380686
-380208
-379368
-378203
-376797
-375218
-373501
-371693
-369856
-927642
-1.58934e+06
-1.44919e+06
-1.02288e+06
-675261
-496370
-401433
-349432
-321510
-305558
-296891
-291921
-289268
-288247
-288528
-289965
-292505
-296159
-300786
-306115
-311779
-317357
-322538
-327130
-330990
-334049
-336321
-337897
-338935
-339612
-340102
-340538
-340950
-341334
-341721
-342114
-342496
-342876
-343274
-343711
-344181
-344664
-345153
-345661
-346200
-346772
-347373
-347992
-348619
-349248
-349872
-350488
-351093
-351684
-352263
-352826
-353371
-353893
-354386
-354848
-355281
-355687
-356070
-356433
-356779
-357109
-357424
-357732
-358051
-358394
-358730
-359001
-359201
-359381
-359579
-359840
-360203
-360743
-361576
-362779
-364299
-366041
-367976
-370073
-372247
-374424
-376495
-378290
-379690
-380670
-381274
-381556
-381525
-381102
-380189
-378849
-377243
-375472
-373565
-371577
-4.75978e+06
-7.00506e+06
-4.05653e+06
-2.4868e+06
-1.85769e+06
-1.39732e+06
-1.07031e+06
-843359
-684732
-572002
-491222
-433368
-393091
-366013
-348721
-338602
-333577
-331848
-332005
-333145
-334715
-336322
-337709
-338774
-339496
-339917
-340133
-340273
-340431
-340636
-340883
-341180
-341533
-341922
-342320
-342719
-343120
-343527
-343938
-344344
-344747
-345154
-345578
-346028
-346506
-347012
-347542
-348091
-348651
-349216
-349780
-350339
-350892
-351438
-351976
-352503
-353018
-353517
-353995
-354451
-354883
-355290
-355675
-356042
-356400
-356754
-357104
-357454
-357816
-358210
-358610
-358965
-359259
-359516
-359761
-360020
-360309
-360646
-361063
-361672
-362635
-363984
-365634
-367546
-369694
-371969
-374250
-376397
-378297
-379842
-380973
-381720
-382120
-382147
-381689
-380619
-379063
-377205
-375158
-373001
1.83362e+07
-3.3834e+07
-1.73399e+07
-1.00448e+07
-5.96434e+06
-3.70094e+06
-2.4059e+06
-1.63983e+06
-1.17424e+06
-885666
-704315
-588616
-512828
-461636
-426400
-401944
-384937
-373053
-364629
-358507
-353942
-350464
-347760
-345634
-343977
-342727
-341854
-341316
-341046
-340987
-341092
-341306
-341581
-341888
-342210
-342537
-342863
-343190
-343529
-343893
-344291
-344721
-345180
-345665
-346174
-346706
-347253
-347809
-348367
-348923
-349470
-350009
-350538
-351057
-351569
-352073
-352567
-353052
-353523
-353980
-354419
-354840
-355243
-355631
-356015
-356402
-356799
-357213
-357642
-358068
-358470
-358842
-359190
-359521
-359845
-360171
-360505
-360862
-361263
-361771
-362484
-363500
-364842
-366472
-368346
-370408
-372567
-374703
-376705
-378504
-380026
-381196
-382004
-382428
-382390
-381679
-380286
-378456
-376341
-374049
1.21029e+08
-9.75088e+07
-3.89743e+07
-2.26377e+07
-1.2814e+07
-7.57608e+06
-4.6589e+06
-2.99482e+06
-2.02084e+06
-1.43544e+06
-1.07355e+06
-843018
-691708
-589817
-519609
-470247
-434959
-409448
-390810
-377030
-366712
-358897
-352936
-348396
-344986
-342501
-340769
-339641
-338988
-338693
-338655
-338792
-339039
-339344
-339671
-340003
-340339
-340690
-341070
-341501
-341993
-342540
-343131
-343755
-344402
-345063
-345729
-346392
-347044
-347677
-348289
-348879
-349448
-350000
-350541
-351072
-351594
-352106
-352606
-353094
-353570
-354034
-354490
-354943
-355394
-355843
-356289
-356734
-357176
-357612
-358035
-358445
-358841
-359231
-359626
-360029
-360438
-360873
-361374
-361980
-362741
-363704
-364888
-366275
-367849
-369585
-371456
-373348
-375212
-377005
-378660
-380093
-381217
-381967
-382247
-381874
-380717
-379006
-376905
-374550
1.62149e+07
-3.39189e+07
-1.92999e+07
-1.23195e+07
-7.88973e+06
-5.28519e+06
-3.65221e+06
-2.60504e+06
-1.92252e+06
-1.46707e+06
-1.15366e+06
-931757
-772150
-656398
-572061
-510436
-465322
-432210
-407791
-389634
-375959
-365488
-357336
-350946
-345985
-342208
-339380
-337323
-335915
-335045
-334611
-334514
-334658
-334954
-335330
-335744
-336170
-336600
-337053
-337564
-338156
-338822
-339547
-340314
-341107
-341913
-342721
-343521
-344304
-345062
-345791
-346487
-347153
-347796
-348423
-349040
-349646
-350242
-350825
-351394
-351949
-352489
-353013
-353522
-354019
-354512
-355006
-355501
-355995
-356486
-356970
-357442
-357899
-358352
-358825
-359334
-359875
-360454
-361094
-361830
-362694
-363695
-364828
-366078
-367427
-368890
-370451
-372044
-373705
-375410
-377082
-378617
-379912
-380868
-381380
-381265
-380345
-378788
-376741
-374387
-5.31177e+06
-9.55648e+06
-7.22626e+06
-5.57936e+06
-4.48931e+06
-3.53175e+06
-2.69615e+06
-2.05184e+06
-1.59211e+06
-1.27266e+06
-1.04763e+06
-882837
-757498
-660163
-584168
-525056
-479445
-444503
-417858
-397608
-382239
-370563
-361580
-354488
-348752
-344058
-340206
-337083
-334632
-332810
-331570
-330853
-330577
-330640
-330934
-331363
-331852
-332359
-332877
-333419
-334000
-334640
-335348
-336117
-336925
-337758
-338602
-339448
-340289
-341120
-341932
-342719
-343478
-344215
-344944
-345664
-346373
-347067
-347746
-348408
-349051
-349675
-350278
-350859
-351424
-351988
-352558
-353133
-353711
-354292
-354875
-355460
-356048
-356642
-357247
-357874
-358541
-359258
-360037
-360887
-361813
-362813
-363883
-365019
-366236
-367554
-368926
-370346
-371888
-373544
-375230
-376822
-378195
-379256
-379886
-379878
-379100
-377649
-375662
-373385
-1.78085e+06
-3.24691e+06
-3.10791e+06
-2.77474e+06
-2.49957e+06
-2.14936e+06
-1.76128e+06
-1.42329e+06
-1.16805e+06
-985595
-854692
-756453
-678354
-613619
-558999
-513069
-474990
-443737
-418308
-397973
-382072
-369879
-360589
-353430
-347762
-343107
-339161
-335769
-332878
-330494
-328650
-327367
-326623
-326359
-326497
-326911
-327471
-328088
-328712
-329311
-329868
-330419
-331022
-331692
-332409
-333154
-333916
-334688
-335475
-336284
-337109
-337939
-338766
-339585
-340394
-341191
-341975
-342744
-343499
-344240
-344968
-345682
-346384
-347074
-347754
-348426
-349092
-349758
-350428
-351103
-351787
-352480
-353184
-353898
-354624
-355373
-356150
-356961
-357814
-358709
-359648
-360635
-361683
-362795
-364007
-365332
-366721
-368180
-369753
-371458
-373213
-374863
-376265
-377337
-377935
-377857
-377042
-375561
-373629
-371526
-900199
-1.6658e+06
-1.65664e+06
-1.61515e+06
-1.61301e+06
-1.52637e+06
-1.34925e+06
-1.144e+06
-960083
-817626
-716371
-646146
-594709
-553203
-516974
-484223
-454634
-428461
-405981
-387258
-372184
-360475
-351658
-345127
-340243
-336436
-333283
-330515
-328008
-325767
-323866
-322399
-321449
-321050
-321167
-321679
-322421
-323259
-324110
-324919
-325631
-326262
-326879
-327517
-328166
-328811
-329443
-330067
-330706
-331395
-332140
-332924
-333733
-334552
-335373
-336189
-336994
-337786
-338568
-339343
-340117
-340890
-341659
-342422
-343176
-343918
-344654
-345385
-346116
-346852
-347600
-348363
-349145
-349945
-350764
-351604
-352468
-353364
-354307
-355299
-356336
-357430
-358622
-359930
-361326
-362787
-364316
-365924
-367634
-369461
-371294
-372928
-374245
-375152
-375479
-375115
-374070
-372531
-370756
-368970
-459687
-896098
-921829
-955081
-1.01393e+06
-1.01925e+06
-958067
-859025
-752312
-658153
-586328
-537224
-504897
-481819
-462241
-443159
-423807
-404631
-386494
-370224
-356443
-345474
-337302
-331593
-327785
-325245
-323401
-321824
-320275
-318705
-317199
-315910
-315003
-314586
-314673
-315200
-316049
-317114
-318327
-319600
-320806
-321862
-322771
-323571
-324270
-324864
-325391
-325893
-326399
-326930
-327502
-328125
-328795
-329501
-330228
-330961
-331689
-332407
-333116
-333826
-334552
-335300
-336068
-336851
-337646
-338447
-339250
-340053
-340856
-341667
-342499
-343359
-344250
-345175
-346132
-347122
-348147
-349218
-350355
-351572
-352873
-354261
-355732
-357277
-358873
-360499
-362177
-363955
-365898
-367803
-369491
-370898
-371894
-372353
-372178
-371402
-370203
-368797
-367366
-366032
-216595
-484974
-535545
-593777
-662182
-693408
-679857
-636416
-578912
-520561
-471738
-437695
-417634
-406839
-399923
-393003
-384240
-373398
-361169
-348642
-336952
-327035
-319457
-314338
-311385
-310032
-309624
-309577
-309479
-309134
-308540
-307836
-307221
-306890
-306972
-307506
-308465
-309775
-311347
-313044
-314701
-316203
-317574
-318863
-320009
-320941
-321696
-322363
-322972
-323498
-323968
-324432
-324922
-325447
-325999
-326570
-327153
-327747
-328354
-328975
-329619
-330294
-331009
-331765
-332559
-333388
-334246
-335130
-336038
-336970
-337927
-338919
-339957
-341053
-342209
-343428
-344710
-346056
-347463
-348919
-350404
-351935
-353541
-355215
-356949
-358779
-360658
-362511
-364320
-366013
-367393
-368324
-368719
-368553
-367926
-367005
-365967
-364929
-363951
-363086
-80302.5
-257676
-324698
-391285
-453179
-485707
-488190
-470429
-440788
-406640
-375576
-353294
-341446
-337921
-338847
-340568
-340623
-337878
-332276
-324529
-315807
-307419
-300479
-295671
-293138
-292557
-293312
-294709
-296158
-297273
-297903
-298106
-298079
-298074
-298317
-298954
-300028
-301498
-303266
-305207
-307201
-309164
-311077
-312918
-314598
-316020
-317229
-318360
-319428
-320317
-321024
-321634
-322211
-322772
-323314
-323839
-324360
-324894
-325448
-326024
-326621
-327247
-327916
-328640
-329427
-330279
-331195
-332174
-333213
-334308
-335448
-336620
-337816
-339029
-340265
-341542
-342873
-344259
-345698
-347188
-348741
-350359
-352022
-353713
-355459
-357313
-359217
-361001
-362510
-363618
-364295
-364525
-364360
-363901
-363293
-362641
-361995
-361379
-360814
-360339
2231.08
-117789
-191237
-259362
-313223
-341782
-349361
-343913
-330254
-312232
-294679
-282075
-276556
-277539
-282774
-289616
-295793
-299687
-300442
-298016
-293135
-287064
-281225
-276792
-274419
-274168
-275622
-278107
-280919
-283502
-285532
-286928
-287808
-288412
-289010
-289829
-291003
-292563
-294465
-296614
-298907
-301245
-303549
-305762
-307833
-309739
-311484
-313125
-314667
-316028
-317154
-318133
-319086
-320017
-320850
-321575
-322247
-322923
-323625
-324339
-325038
-325724
-326417
-327148
-327942
-328812
-329761
-330784
-331872
-333014
-334187
-335373
-336564
-337766
-338981
-340208
-341474
-342820
-344263
-345796
-347405
-349052
-350675
-352301
-353944
-355522
-356927
-358085
-358934
-359446
-359641
-359607
-359448
-359228
-358975
-358703
-358425
-358157
-357919
-357753
54398.6
-27751.7
-102864
-170220
-217501
-241741
-250487
-250844
-245787
-237360
-228804
-223441
-222976
-227195
-234774
-244097
-253589
-261772
-267399
-269758
-268924
-265768
-261661
-258023
-255911
-255798
-257574
-260716
-264527
-268350
-271713
-274386
-276364
-277815
-278997
-280173
-281545
-283228
-285242
-287538
-290031
-292627
-295237
-297796
-300256
-302590
-304781
-306826
-308722
-310458
-312009
-313398
-314721
-316003
-317133
-318048
-318833
-319626
-320528
-321520
-322493
-323383
-324203
-325005
-325837
-326728
-327690
-328727
-329841
-331033
-332298
-333618
-334946
-336241
-337487
-338682
-339859
-341059
-342340
-343750
-345260
-346745
-348121
-349386
-350545
-351572
-352443
-353135
-353672
-354094
-354419
-354660
-354834
-354952
-355024
-355061
-355076
-355090
-355126
-355220
88397.7
32225.7
-41746
-106762
-148444
-168788
-177424
-180956
-180999
-178276
-175162
-174537
-177872
-184869
-194375
-205216
-216380
-226814
-235381
-241130
-243682
-243443
-241489
-239184
-237745
-237928
-239923
-243433
-247875
-252599
-257055
-260896
-263995
-266416
-268353
-270058
-271763
-273639
-275772
-278174
-280801
-283580
-286430
-289277
-292061
-294739
-297282
-299675
-301914
-304000
-305938
-307728
-309379
-310906
-312293
-313495
-314515
-315410
-316326
-317398
-318589
-319744
-320800
-321784
-322748
-323728
-324741
-325791
-326884
-328026
-329231
-330532
-331920
-333311
-334613
-335801
-336907
-337991
-339101
-340253
-341418
-342546
-343607
-344587
-345491
-346343
-347148
-347899
-348588
-349210
-349761
-350239
-350648
-350994
-351290
-351555
-351806
-352064
-352345
-352677
111038
73397.2
2085.22
-59896
-96983.7
-114186
-122207
-127367
-130577
-131603
-131955
-134172
-139846
-148874
-160132
-172395
-184711
-196265
-206214
-213772
-218500
-220554
-220692
-220036
-219717
-220564
-222944
-226770
-231629
-236958
-242220
-247009
-251108
-254480
-257238
-259582
-261738
-263899
-266200
-268705
-271419
-274304
-277299
-280337
-283358
-286312
-289161
-291881
-294454
-296869
-299120
-301200
-303111
-304858
-306447
-307887
-309191
-310392
-311540
-312723
-313997
-315324
-316646
-317928
-319164
-320361
-321537
-322707
-323888
-325094
-326331
-327596
-328879
-330139
-331329
-332434
-333470
-334467
-335450
-336433
-337419
-338402
-339380
-340334
-341244
-342103
-342910
-343669
-344376
-345029
-345631
-346184
-346697
-347181
-347645
-348105
-348571
-349057
-349569
-350128
126301
102077
34146.4
-24251.4
-57174.9
-71837
-79335.5
-85431
-90609.7
-94153.1
-96890.7
-100930
-107969
-118270
-130875
-144424
-157740
-169961
-180438
-188689
-194496
-198026
-199853
-200832
-201869
-203695
-206712
-210961
-216184
-221945
-227767
-233249
-238129
-242302
-245808
-248791
-251442
-253955
-256486
-259135
-261947
-264918
-268013
-271180
-274366
-277519
-280600
-283576
-286426
-289136
-291694
-294093
-296323
-298381
-300269
-301996
-303584
-305062
-306470
-307851
-309240
-310644
-312049
-313435
-314790
-316111
-317402
-318676
-319947
-321226
-322524
-323841
-325166
-326467
-327710
-328876
-329960
-330968
-331915
-332815
-333683
-334531
-335368
-336194
-336995
-337766
-338510
-339231
-339934
-340622
-341298
-341963
-342623
-343283
-343949
-344629
-345327
-346047
-346794
-347581
136589
122342
58322.2
3709.38
-25607.7
-38154.2
-45091.9
-51730.2
-58267.9
-63653.9
-68191.8
-73578
-81510.3
-92545
-105967
-120390
-134429
-147077
-157753
-166220
-172525
-176963
-180044
-182415
-184749
-187618
-191378
-196123
-201706
-207805
-214025
-220001
-225468
-230281
-234427
-237997
-241146
-244048
-246862
-249709
-252660
-255740
-258935
-262209
-265516
-268810
-272050
-275203
-278247
-281166
-283952
-286595
-289094
-291446
-293653
-295720
-297655
-299465
-301166
-302775
-304314
-305798
-307237
-308638
-310002
-311334
-312638
-313922
-315193
-316454
-317707
-318949
-320170
-321360
-322505
-323597
-324635
-325623
-326571
-327486
-328381
-329264
-330142
-331020
-331895
-332764
-333627
-334482
-335334
-336182
-337028
-337877
-338730
-339592
-340469
-341362
-342275
-343208
-344164
-345153
143571
136821
76839.4
26097.9
127.328
-10510.3
-16976.1
-24154.2
-31880.5
-38776
-44771
-51265.2
-59891.1
-71350.1
-85108.8
-99848.3
-114142
-126932
-137680
-146288
-152953
-158052
-162062
-165504
-168890
-172660
-177105
-182331
-188248
-194618
-201123
-207443
-213322
-218603
-223243
-227296
-230884
-234161
-237280
-240366
-243503
-246733
-250060
-253462
-256902
-260339
-263732
-267048
-270260
-273352
-276311
-279132
-281812
-284356
-286768
-289054
-291217
-293261
-295187
-297006
-298727
-300364
-301925
-303418
-304851
-306231
-307565
-308861
-310128
-311372
-312597
-313806
-314997
-316167
-317312
-318428
-319513
-320568
-321597
-322605
-323597
-324581
-325559
-326536
-327511
-328487
-329463
-330440
-331419
-332403
-333392
-334389
-335396
-336416
-337454
-338510
-339585
-340679
-341792
-342935
148282
147288
91406.4
44675.6
21963.6
13096.9
7030.64
-644.298
-9393.85
-17582.7
-24882.3
-32437
-41725.4
-53455.8
-67223.8
-81870.5
-96092.3
-108903
-119801
-128710
-135837
-141543
-146259
-150443
-154537
-158916
-163841
-169420
-175598
-182187
-188915
-195496
-201686
-207325
-212349
-216790
-220748
-224358
-227763
-231087
-234419
-237813
-241284
-244822
-248398
-251976
-255517
-258986
-262356
-265607
-268727
-271709
-274553
-277264
-279847
-282308
-284652
-286883
-289003
-291015
-292927
-294746
-296478
-298127
-299700
-301202
-302640
-304020
-305352
-306646
-307908
-309146
-310363
-311559
-312736
-313895
-315035
-316157
-317263
-318356
-319440
-320517
-321591
-322664
-323737
-324813
-325893
-326979
-328071
-329172
-330281
-331401
-332533
-333680
-334844
-336024
-337222
-338437
-339667
-340925
151353
154706
102785
60119.2
40653.6
33509.7
27804.5
19636.2
9939.28
611.551
-7789.52
-16194.3
-25950.5
-37776.6
-51402.8
-65854.2
-79977.7
-92858.7
-103993
-113260
-120811
-126962
-132119
-136721
-141201
-145926
-151151
-156987
-163391
-170194
-177144
-183973
-190443
-196390
-201743
-206517
-210799
-214711
-218389
-221952
-225493
-229067
-232697
-236379
-240091
-243803
-247479
-251086
-254599
-257997
-261267
-264402
-267401
-270267
-273005
-275621
-278119
-280505
-282782
-284954
-287026
-289005
-290894
-292698
-294421
-296068
-297644
-299155
-300608
-302013
-303377
-304707
-306007
-307281
-308534
-309768
-310984
-312186
-313375
-314556
-315729
-316899
-318068
-319236
-320407
-321582
-322763
-323951
-325147
-326352
-327567
-328791
-330028
-331279
-332544
-333824
-335119
-336427
-337747
-339093
153068
159568
111470
72946.1
56760.1
51310.3
45918.7
37253.4
26702.8
16432.5
7172.66
-1881.08
-12013.5
-23964.4
-37556.9
-51932.2
-66026.2
-78960.5
-90219.6
-99648.7
-107369
-113680
-118990
-123751
-128405
-133323
-138758
-144814
-151444
-158478
-165668
-172748
-179483
-185709
-191351
-196418
-200989
-205178
-209116
-212918
-216677
-220449
-224261
-228112
-231983
-235846
-239666
-243413
-247063
-250596
-254004
-257278
-260418
-263426
-266306
-269063
-271703
-274231
-276651
-278969
-281188
-283313
-285348
-287298
-289167
-290958
-292677
-294329
-295919
-297456
-298945
-300394
-301806
-303189
-304545
-305880
-307196
-308497
-309785
-311065
-312338
-313607
-314874
-316141
-317411
-318684
-319963
-321248
-322540
-323840
-325148
-326464
-327790
-329129
-330479
-331841
-333215
-334599
-335992
-337408
153740
162269
117704
83315.8
70439.1
66677.2
61583.4
52444.1
41126.8
30044.5
20045.5
10398.6
-132.3
-12276.4
-25889.1
-40171
-54118.2
-66895.4
-78009.1
-87313.1
-94933.4
-101180
-106471
-111269
-116019
-121087
-126713
-132986
-139846
-147113
-154537
-161850
-168822
-175290
-181181
-186502
-191327
-195766
-199944
-203975
-207948
-211922
-215925
-219959
-224006
-228039
-232024
-235932
-239736
-243417
-246966
-250378
-253653
-256794
-259807
-262697
-265470
-268131
-270686
-273139
-275496
-277760
-279936
-282027
-284037
-285970
-287831
-289624
-291355
-293030
-294654
-296233
-297772
-299276
-300751
-302201
-303629
-305040
-306436
-307821
-309198
-310570
-311938
-313304
-314672
-316041
-317413
-318789
-320170
-321557
-322948
-324347
-325753
-327168
-328592
-330024
-331465
-332913
-334367
-335842
153522
162947
121469
91159.9
81625.8
79542
74700.5
65059
52998.2
41174.8
30525.1
20365.9
9508.45
-2743.94
-16251.5
-30259
-43828.8
-56192.4
-66910.1
-75873.1
-83230.4
-89304.5
-94518.6
-99331.3
-104175
-109396
-115214
-121696
-128766
-136237
-143854
-151357
-158517
-165180
-171275
-176810
-181856
-186520
-190922
-195171
-199353
-203527
-207721
-211938
-216162
-220368
-224524
-228601
-232572
-236417
-240124
-243687
-247105
-250384
-253530
-256551
-259453
-262243
-264928
-267512
-270000
-272397
-274707
-276933
-279079
-281150
-283150
-285082
-286951
-288763
-290523
-292235
-293904
-295536
-297135
-298705
-300251
-301776
-303284
-304779
-306262
-307737
-309205
-310670
-312132
-313593
-315054
-316517
-317981
-319447
-320916
-322388
-323867
-325350
-326840
-328335
-329834
-331339
-332847
-334374
152551
161510
122338
95943
89798.8
89379
84722.3
74550.8
61816.1
49416.3
38333.9
27888.8
16918.3
4759.01
-8444.99
-21976.6
-34967.4
-46726.6
-56882.2
-65373
-72374.8
-78219.4
-83325.5
-88136.7
-93061.7
-98420
-104402
-111054
-118285
-125900
-133651
-141280
-148570
-155376
-161631
-167346
-172588
-177460
-182075
-186537
-190927
-195302
-199689
-204091
-208494
-212873
-217199
-221443
-225579
-229587
-233455
-237177
-240750
-244177
-247465
-250622
-253657
-256577
-259390
-262102
-264718
-267244
-269684
-272041
-274319
-276523
-278656
-280723
-282726
-284672
-286564
-288407
-290206
-291964
-293687
-295378
-297042
-298682
-300302
-301905
-303493
-305069
-306636
-308195
-309749
-311298
-312843
-314386
-315928
-317468
-319009
-320552
-322096
-323643
-325193
-326745
-328299
-329854
-331411
-332986
150945
157543
119467
96971
94509.4
95807.6
91235.4
80484.7
67182.5
54452.4
43240.6
32797
21955.7
10092.2
-2627.25
-15508.3
-27745.7
-38730
-48165.8
-56047.7
-62582.1
-68108.9
-73037.6
-77789.9
-82744.2
-88186.4
-94275.8
-101034
-108356
-116046
-123859
-131549
-138914
-145816
-152196
-158067
-163492
-168568
-173398
-178078
-182685
-187269
-191856
-196450
-201036
-205591
-210088
-214497
-218794
-222961
-226985
-230860
-234583
-238159
-241592
-244891
-248063
-251118
-254063
-256904
-259649
-262302
-264868
-267353
-269759
-272092
-274353
-276549
-278682
-280756
-282775
-284745
-286668
-288549
-290393
-292202
-293981
-295733
-297461
-299169
-300859
-302533
-304195
-305845
-307486
-309118
-310744
-312364
-313979
-315591
-317200
-318808
-320415
-322021
-323627
-325233
-326838
-328441
-330044
-331663
149323
148140
109292
91840.8
94223.6
97614.2
93162.7
81932.1
68367.2
55741.7
44824.3
34719.9
24265.2
12910.9
877.774
-11146.1
-22415.7
-32409.9
-40919.5
-48004.8
-53909.6
-58983.2
-63622.6
-68222.7
-73125.8
-78578.2
-84702.8
-91494.6
-98835.9
-106529
-114337
-122031
-129423
-136388
-142877
-148900
-154515
-159808
-164871
-169790
-174633
-179444
-184247
-189043
-193820
-198556
-203224
-207797
-212253
-216574
-220747
-224767
-228633
-232348
-235918
-239352
-242658
-245845
-248921
-251894
-254768
-257550
-260245
-262856
-265388
-267845
-270231
-272550
-274807
-277003
-279145
-281235
-283277
-285276
-287234
-289156
-291045
-292904
-294737
-296546
-298333
-300102
-301854
-303591
-305316
-307028
-308731
-310425
-312111
-313791
-315466
-317137
-318804
-320467
-322126
-323783
-325436
-327086
-328732
-330395
147558
127725
86470.9
78715.7
88016.3
93488.9
88957.2
77512.9
64306
52450.7
42336.7
32920.4
23143
12612.2
1620.6
-9169.85
-19104
-27767.1
-35043
-41067.9
-46131.2
-50590
-54820.5
-59178.2
-63956.8
-69352.7
-75446.3
-82203.8
-89495.8
-97128.2
-104879
-112536
-119930
-126952
-133558
-139757
-145597
-151148
-156485
-161680
-166790
-171854
-176891
-181904
-186881
-191802
-196642
-201377
-205987
-210454
-214768
-218925
-222923
-226768
-230465
-234023
-237452
-240761
-243959
-247054
-250052
-252960
-255781
-258518
-261176
-263757
-266267
-268707
-271083
-273398
-275657
-277862
-280018
-282128
-284196
-286225
-288219
-290180
-292112
-294017
-295897
-297756
-299594
-301415
-303219
-305009
-306786
-308551
-310307
-312053
-313792
-315523
-317247
-318965
-320677
-322383
-324083
-325778
-327466
-329170
151893
101074
59495.3
60152.5
72996.2
78259.3
73558.9
63429.9
52487.8
42895.3
34534
26433.8
17887.8
8796.66
-471.877
-9382.96
-17470.2
-24432.6
-30218.1
-35017.1
-39129.7
-42882.3
-46612.2
-50634.3
-55194.7
-60438.8
-66402.8
-73024.9
-80167.9
-87648.8
-95272.4
-102853
-110238
-117333
-124101
-130541
-136682
-142566
-148247
-153776
-159198
-164548
-169842
-175083
-180265
-185370
-190378
-195268
-200022
-204626
-209071
-213353
-217473
-221436
-225249
-228921
-232461
-235881
-239189
-242394
-245503
-248524
-251460
-254316
-257094
-259797
-262427
-264988
-267482
-269914
-272286
-274604
-276870
-279087
-281260
-283392
-285485
-287544
-289570
-291566
-293535
-295479
-297401
-299301
-301183
-303048
-304897
-306732
-308554
-310365
-312164
-313954
-315734
-317505
-319267
-321022
-322768
-324507
-326237
-327982
141139
80945.3
31076.1
31088.4
43833
49150.7
45989.9
39219.1
32399.3
26494
20982.1
15131.4
8652.3
1728.95
-5205.34
-11694.7
-17403.4
-22187.2
-26095.2
-29350.3
-32288.9
-35230.7
-38439.8
-42146
-46515.8
-51623.7
-57451.2
-63906.8
-70849
-78101.9
-85502
-92919.2
-100240
-107400
-114383
-121172
-127740
-134082
-140211
-146153
-151942
-157609
-163175
-168648
-174028
-179307
-184469
-189498
-194382
-199108
-203669
-208064
-212293
-216362
-220279
-224053
-227695
-231215
-234622
-237927
-241136
-244257
-247295
-250255
-253141
-255954
-258697
-261371
-263979
-266523
-269008
-271435
-273808
-276130
-278405
-280636
-282825
-284977
-287094
-289179
-291233
-293260
-295262
-297240
-299197
-301134
-303054
-304956
-306843
-308715
-310574
-312421
-314255
-316078
-317891
-319693
-321485
-323267
-325039
-326825
149113
6096.93
-42803.7
-32282.6
-12271.1
-363.506
4182.03
5578.26
6062.93
5839.08
4463.37
1769.44
-1939.59
-6121.27
-10256.9
-13990.5
-17149.3
-19721.9
-21839.6
-23738.9
-25684.6
-27926.4
-30671.3
-34077.5
-38235
-43151.3
-48761.2
-54964.4
-61636.1
-68616
-75746.7
-82920
-90074.4
-97212.8
-104403
-111645
-118811
-125780
-132492
-138940
-145148
-151152
-156987
-162677
-168233
-173659
-178949
-184095
-189085
-193913
-198573
-203063
-207387
-211550
-215559
-219425
-223157
-226767
-230264
-233658
-236957
-240167
-243297
-246349
-249329
-252240
-255083
-257859
-260571
-263221
-265810
-268341
-270816
-273239
-275613
-277940
-280223
-282467
-284672
-286842
-288980
-291087
-293167
-295221
-297251
-299259
-301246
-303214
-305164
-307097
-309014
-310916
-312804
-314679
-316541
-318390
-320228
-322053
-323866
-325693
174654
-136213
-122600
-92030
-66558.2
-48783
-36320.8
-27026.1
-20073.9
-15361.8
-12825.9
-12079.6
-12486.4
-13434.4
-14498.8
-15481.1
-16335.6
-17054.2
-17735.4
-18570.7
-19773.9
-21521.2
-23936.6
-27095
-31025.4
-35690.3
-40998.8
-46840.7
-53099.4
-59652.6
-66375.1
-73201.7
-80151.5
-87254.5
-94589.9
-102258
-110122
-117867
-125282
-132304
-138953
-145284
-151359
-157225
-162917
-168452
-173835
-179064
-184135
-189041
-193780
-198350
-202754
-206997
-211087
-215034
-218847
-222538
-226115
-229590
-232969
-236261
-239472
-242607
-245671
-248666
-251597
-254464
-257269
-260013
-262698
-265325
-267897
-270415
-272882
-275301
-277674
-280005
-282296
-284549
-286768