/*--------------------------------*- C++ -*----------------------------------*\
| =========                 |                                                 |
| \\      /  F ield         | OpenFOAM: The Open Source CFD Toolbox           |
|  \\    /   O peration     | Version:  2412                                  |
|   \\  /    A nd           | Website:  www.openfoam.com                      |
|    \\/     M anipulation  |                                                 |
\*---------------------------------------------------------------------------*/
FoamFile
{
    version     2.0;
    format      ascii;
    arch        "LSB;label=32;scalar=64";
    class       surfaceScalarField;
    location    "4";
    object      phi;
}
// * * * * * * * * * * * * * * * * * * * * * * * * * * * * * * * * * * * * * //

dimensions      [0 3 -1 0 0 0 0];

oriented        oriented;

internalField   nonuniform List<scalar> 
39700
(
-9.18973
1.53826
-7.11079
-2.07895
-5.99254
-1.11828
-5.20475
-0.787818
-4.59797
-0.606835
-4.08659
-0.511439
-3.60252
-0.48416
-3.11985
-0.482769
-2.75045
-0.369528
-2.523
-0.227584
-2.41263
-0.110527
-2.38504
-0.0277641
-2.41567
0.0304505
-2.48675
0.0708963
-2.58588
0.098947
-2.70421
0.118133
-2.83529
0.130886
-2.97443
0.138936
-3.11809
0.143459
-3.26364
0.145343
-3.40902
0.145174
-3.55247
0.143231
-3.69249
0.139803
-3.82773
0.135019
-3.95674
0.128791
-4.07789
0.12093
-4.18928
0.111163
-4.28866
0.0991474
-4.37346
0.0845684
-4.44066
0.0669732
-4.48649
0.0455945
-4.50659
0.0198669
-4.49685
-0.00997993
-4.45353
-0.0435704
-4.37369
-0.0800871
-4.25554
-0.118397
-4.09914
-0.156668
-3.90595
-0.193452
-3.67882
-0.227415
-3.42188
-0.257232
-3.14063
-0.281568
-2.84177
-0.299191
-2.5328
-0.309339
-2.22098
-0.312212
-1.91268
-0.308748
-1.61321
-0.299968
-1.32653
-0.28724
-1.05482
-0.272353
-0.798471
-0.257102
-0.557572
-0.241794
-0.333469
-0.225192
-0.127661
-0.20717
0.0587777
-0.188212
0.22515
-0.168829
0.378335
-0.156978
0.567253
-0.196487
0.782606
-0.225516
0.958735
-0.182805
1.14707
-0.191689
1.37116
-0.226898
1.60198
-0.233301
1.77999
-0.180259
1.9407
-0.162715
2.10957
-0.170688
2.26906
-0.161214
2.32081
-0.0533383
2.29014
0.0292692
2.22355
0.0652867
2.13206
0.0901874
2.0246
0.106137
1.91276
0.110481
1.80121
0.110132
1.6929
0.10682
1.59243
0.0989212
1.50606
0.084814
1.43501
0.0695165
1.38019
0.0532937
1.3403
0.0383688
1.31223
0.0265334
1.29392
0.0167877
1.28397
0.00846583
1.2813
0.00124018
1.28513
-0.00521375
1.29456
-0.0107605
1.3086
-0.015319
1.32615
-0.018779
1.34619
-0.0212199
1.36805
-0.0229915
1.39129
-0.0243187
1.41529
-0.025043
1.43922
-0.0249255
1.46199
-0.0237262
1.48228
-0.0212141
1.49871
-0.0173295
1.50984
-0.0119971
1.51371
-0.00471611
1.50715
0.00572883
1.48643
0.0199045
1.44749
0.0381249
0.0596634
1.38702
-0.445789
0.633369
-2.07124
-0.453524
-2.3647
-0.824873
-2.75577
-0.396822
-2.95043
-0.412267
-2.94952
-0.512453
-2.79673
-0.637064
-2.45824
-0.821392
-2.36408
-0.463858
-2.50211
-0.0897426
-2.71106
0.0982496
-2.95444
0.215439
-3.2109
0.286742
-3.46812
0.327952
-3.71822
0.348892
-3.95626
0.356008
-4.17907
0.353531
-4.38437
0.344076
-4.57043
0.329351
-4.73597
0.310713
-4.87991
0.288944
-5.00099
0.264142
-5.09756
0.236195
-5.16765
0.204928
-5.20914
0.170102
-5.21985
0.131446
-5.19738
0.0884977
-5.13881
0.040384
-5.04236
-0.0120927
-4.90745
-0.0681432
-4.73575
-0.126328
-4.5314
-0.184714
-4.29997
-0.241651
-4.04798
-0.29582
-3.78252
-0.345818
-3.51062
-0.390585
-3.23791
-0.429684
-2.96935
-0.462339
-2.70906
-0.48805
-2.46026
-0.506409
-2.22492
-0.517329
-2.00358
-0.52097
-1.79567
-0.517741
-1.6
-0.508412
-1.41503
-0.494296
-1.23859
-0.477051
-1.06822
-0.458318
-0.902306
-0.439047
-0.741283
-0.418996
-0.587039
-0.397014
-0.440589
-0.372747
-0.30061
-0.348409
-0.164126
-0.326152
-0.0286386
-0.306038
0.101213
-0.288961
0.177803
-0.275848
0.211574
-0.262313
0.272789
-0.247331
0.31969
-0.243265
0.361267
-0.275651
0.443681
-0.325458
0.58422
-0.329871
0.775545
-0.361301
0.993747
-0.395684
1.1145
-0.288506
1.21828
-0.161674
1.3219
-0.0768994
1.38284
0.00242266
1.38763
0.0836136
1.36113
0.130957
1.32778
0.14217
1.30409
0.132014
1.29664
0.112261
1.30099
0.0924166
1.30847
0.0751769
1.31338
0.0625911
1.31104
0.0537564
1.30422
0.0434148
1.29725
0.031791
1.29168
0.0207164
1.28738
0.0111899
1.28439
0.00270143
1.28292
-0.00522837
1.28306
-0.0123307
1.28458
-0.0182307
1.28786
-0.0234043
1.29403
-0.0287027
1.30411
-0.0343408
1.3182
-0.0396264
1.33563
-0.0436473
1.35574
-0.0461689
1.37844
-0.0475213
1.40384
-0.0476629
1.4315
-0.0459966
1.46045
-0.0419165
1.48982
-0.0350186
1.51901
-0.0243554
1.54712
-0.00905795
1.57258
0.01185
0.0379704
1.59352
10.5201
0.37276
9.45879
0.607772
7.8196
0.814292
6.41976
1.00299
4.90005
1.10738
3.28122
1.10629
1.68524
0.958763
0.257403
0.606098
-0.690927
0.483993
-1.39384
0.612834
-2.00296
0.707182
-2.52287
0.735178
-2.96493
0.728641
-3.33977
0.702643
-3.65613
0.6651
-3.92054
0.620263
-4.13763
0.570468
-4.3106
0.516892
-4.44149
0.460084
-4.53129
0.400343
-4.5802
0.337685
-4.58812
0.271886
-4.55485
0.202738
-4.48027
0.130156
-4.36449
0.0541249
-4.20975
-0.0235162
-4.02097
-0.100506
-3.807
-0.173822
-3.57738
-0.241969
-3.34123
-0.304566
-3.10651
-0.361337
-2.87884
-0.412697
-2.66184
-0.458977
-2.45846
-0.499564
-2.27067
-0.533989
-2.09972
-0.561939
-1.94637
-0.583476
-1.81027
-0.598902
-1.69017
-0.608641
-1.58401
-0.613089
-1.48917
-0.612713
-1.40252
-0.608197
-1.32038
-0.600489
-1.2388
-0.590626
-1.15459
-0.579181
-1.06645
-0.565899
-0.975078
-0.550435
-0.881868
-0.533054
-0.787877
-0.513839
-0.692967
-0.492835
-0.595705
-0.470993
-0.495468
-0.449712
-0.393393
-0.42939
-0.291334
-0.409374
-0.192034
-0.389674
-0.0986155
-0.370835
-0.00961224
-0.353096
0.0777176
-0.336742
0.154458
-0.322495
0.186533
-0.310793
0.157667
-0.300262
0.118135
-0.294835
0.0866419
-0.336765
0.111617
-0.430942
0.221825
-0.407442
0.423333
-0.368277
0.637792
-0.295243
0.788944
-0.152514
0.918281
-0.0490463
1.0304
0.0163722
1.11185
0.0588846
1.15924
0.0830278
1.17733
0.0926061
1.18278
0.08532
1.18881
0.0673451
1.19811
0.0514641
1.21021
0.0398639
1.22135
0.0305214
1.23132
0.0201337
1.24246
0.0079708
1.25445
-0.00232018
1.26485
-0.00915478
1.27184
-0.0136357
1.27604
-0.0179063
1.27913
-0.0226791
1.28222
-0.0278197
1.28449
-0.0322819
1.28435
-0.0354706
1.2813
-0.0378319
1.27655
-0.0401338
1.27175
-0.0425897
1.26767
-0.0446409
1.26395
-0.0451343
1.25996
-0.0431733
1.25578
-0.0388747
1.2526
-0.0329632
1.25303
-0.0258923
1.26052
-0.0176149
1.27815
-0.00681196
0.00863193
1.30653
12.1388
0.594989
11.2061
1.54052
9.74854
2.27179
8.05018
2.70131
6.30212
2.85541
4.61741
2.79093
3.01332
2.56275
1.42154
2.19769
0.0628916
1.84238
-0.99396
1.66946
-1.79852
1.51157
-2.42131
1.35783
-2.90162
1.20881
-3.26603
1.06691
-3.53382
0.932743
-3.71939
0.805677
-3.83371
0.684633
-3.88538
0.568402
-3.88126
0.455784
-3.82705
0.345948
-3.7282
0.238635
-3.59063
0.134101
-3.42157
0.0334574
-3.23146
-0.0602036
-3.03228
-0.145332
-2.83435
-0.221734
-2.64555
-0.289621
-2.46954
-0.350166
-2.30614
-0.40573
-2.15512
-0.455959
-2.01639
-0.500476
-1.8903
-0.539215
-1.77738
-0.572346
-1.6774
-0.600018
-1.58952
-0.622362
-1.51238
-0.639599
-1.44424
-0.652159
-1.38316
-0.660542
-1.32715
-0.665229
-1.27416
-0.666673
-1.22233
-0.665163
-1.17034
-0.660824
-1.11766
-0.653832
-1.06438
-0.644587
-1.0107
-0.633575
-0.9561
-0.621232
-0.899543
-0.607755
-0.84037
-0.593022
-0.778331
-0.576711
-0.713149
-0.558893
-0.644948
-0.540119
-0.574726
-0.520914
-0.503439
-0.501721
-0.431042
-0.482885
-0.357389
-0.464524
-0.28292
-0.446596
-0.208335
-0.429088
-0.134544
-0.412074
-0.0630403
-0.395702
0.00438749
-0.380127
0.0674609
-0.365518
0.122605
-0.352588
0.125541
-0.342958
0.0256893
-0.335041
-0.060052
-0.326405
-0.0852681
-0.350302
0.0149997
-0.406084
0.246187
-0.393283
0.505479
-0.314273
0.701216
-0.183108
0.846835
-0.0894712
0.956348
-0.028662
1.03099
0.0161997
1.07321
0.0415357
1.09637
0.0426359
1.11361
0.0325767
1.1316
0.0201893
1.15089
0.00958623
1.16876
0.000648209
1.18425
-0.00907478
1.20026
-0.0198356
1.21866
-0.0290067
1.23802
-0.0344046
1.25493
-0.0361872
1.2667
-0.035782
1.27269
-0.035127
1.27461
-0.0354906
1.27473
-0.0368745
1.2742
-0.0385679
1.27241
-0.0395843
1.26813
-0.0395494
1.26076
-0.0384888
1.25076
-0.0363466
1.23927
-0.0328842
1.22735
-0.0281395
1.21596
-0.022761
1.20642
-0.0175326
1.20038
-0.0127236
1.20049
-0.00805517
-0.00226032
1.21032
15.195
1.11146
13.5037
3.23179
10.811
4.96456
8.00453
5.50772
5.44505
5.41485
3.27269
4.96324
1.54923
4.28612
0.0891107
3.65768
-1.10368
3.03502
-2.02316
2.58882
-2.70475
2.19306
-3.19075
1.84371
-3.52043
1.53837
-3.72501
1.27137
-3.82861
1.03621
-3.84994
0.826865
-3.80398
0.638508
-3.7037
0.467951
-3.56071
0.312605
-3.38611
0.17113
-3.19271
0.0450025
-2.99355
-0.0653081
-2.79885
-0.161531
-2.6141
-0.245256
-2.44176
-0.317995
-2.28115
-0.382697
-2.13071
-0.440425
-1.98986
-0.491407
-1.85996
-0.536041
-1.74168
-0.574673
-1.63499
-0.607622
-1.53946
-0.63522
-1.45445
-0.657856
-1.37898
-0.676007
-1.31172
-0.690157
-1.25118
-0.7007
-1.19594
-0.70798
-1.14477
-0.712302
-1.09673
-0.713883
-1.05116
-0.712881
-1.00751
-0.709464
-0.965117
-0.703894
-0.923117
-0.696527
-0.880778
-0.687643
-0.837791
-0.677302
-0.794266
-0.665523
-0.75034
-0.652473
-0.705885
-0.6383
-0.660419
-0.623031
-0.613409
-0.606794
-0.564578
-0.589881
-0.513871
-0.572595
-0.461491
-0.555126
-0.407812
-0.537646
-0.353158
-0.520321
-0.297696
-0.503271
-0.241524
-0.486556
-0.184799
-0.470187
-0.127824
-0.454175
-0.0710096
-0.438569
-0.0148408
-0.423474
0.039624
-0.409038
0.0898103
-0.395383
0.13461
-0.382429
0.175487
-0.370417
0.182534
-0.361315
0.128463
-0.357012
0.0975273
-0.369019
0.168379
-0.394363
0.341212
-0.364627
0.523534
-0.277719
0.678286
-0.187367
0.814133
-0.122435
0.926975
-0.0734847
1.0054
-0.0376203
1.05542
-0.0191056
1.09057
-0.016596
1.11986
-0.0213164
1.14675
-0.0277807
1.17
-0.0338128
1.18862
-0.0398907
1.20465
-0.04644
1.22129
-0.05241
1.2399
-0.0561332
1.25957
-0.0567513
1.27747
-0.05431
1.29085
-0.0501412
1.29849
-0.0457572
1.30093
-0.0422408
1.29936
-0.0392385
1.29471
-0.0361229
1.28741
-0.032398
1.278
-0.0281452
1.26782
-0.0239053
1.25839
-0.0199
1.25042
-0.0159673
1.24381
-0.0120881
1.23812
-0.00817078
1.23299
-0.00404254
0.000673737
1.229
19.0529
2.19472
17.4713
4.81345
12.3394
10.0964
6.9714
10.8757
2.96248
9.42374
-0.0110411
7.9367
-1.94465
6.21965
-3.19667
4.90962
-4.06053
3.89881
-4.58775
3.11597
-4.87031
2.47554
-4.9762
1.94951
-4.95395
1.51601
-4.83774
1.15505
-4.65222
0.850561
-4.41583
0.590336
-4.14332
0.365838
-3.85521
0.179658
-3.56707
0.0242589
-3.28985
-0.106329
-3.02869
-0.216415
-2.78578
-0.308499
-2.56189
-0.385722
-2.35482
-0.452646
-2.16257
-0.510586
-1.98509
-0.560549
-1.82259
-0.603314
-1.67488
-0.639531
-1.54159
-0.669771
-1.42212
-0.694605
-1.31555
-0.714672
-1.22066
-0.730618
-1.1361
-0.742956
-1.06062
-0.752037
-0.993256
-0.758099
-0.933116
-0.76144
-0.879283
-0.762434
-0.830821
-0.761407
-0.786806
-0.758563
-0.746357
-0.754016
-0.708671
-0.747857
-0.673087
-0.740208
-0.639145
-0.731222
-0.606527
-0.721036
-0.574872
-0.709757
-0.543718
-0.697501
-0.512649
-0.684394
-0.481294
-0.670534
-0.44924
-0.655996
-0.416111
-0.640866
-0.381682
-0.625291
-0.345835
-0.609462
-0.308484
-0.593541
-0.269599
-0.577643
-0.229234
-0.561851
-0.187494
-0.546237
-0.144477
-0.530866
-0.100245
-0.51579
-0.0548242
-0.501054
-0.00824336
-0.486712
0.0394297
-0.47283
0.0880418
-0.459478
0.137336
-0.446682
0.187001
-0.434321
0.236263
-0.422192
0.282475
-0.410425
0.321459
-0.399467
0.338379
-0.390331
0.322539
-0.384238
0.327323
-0.376832
0.378633
-0.33683
0.469827
-0.284524
0.582057
-0.238957
0.702147
-0.196894
0.820515
-0.15853
0.925871
-0.126531
1.00897
-0.101487
1.07227
-0.0862226
1.12132
-0.0783229
1.16186
-0.0757631
1.19496
-0.0743606
1.21977
-0.072568
1.23682
-0.0707695
1.2496
-0.0702182
1.26137
-0.0698051
1.27324
-0.0674556
1.2847
-0.0628692
1.29413
-0.0564468
1.29993
-0.0492898
1.30212
-0.042672
1.30206
-0.0372876
1.30123
-0.032786
1.30034
-0.0284528
1.29904
-0.0237894
1.29673
-0.018762
1.29328
-0.0136624
1.28909
-0.00902705
1.28466
-0.00484402
1.28011
-0.000574735
0.00409985
1.27565
28.7699
11.3244
14.1024
19.4809
3.6654
20.5334
-3.66538
18.2064
-7.26603
13.0244
-8.78167
9.45232
-9.4156
6.85355
-9.51974
5.01373
-9.29305
3.67207
-8.84613
2.669
-8.26547
1.89481
-7.60556
1.28952
-6.92476
0.835126
-6.25635
0.486533
-5.62027
0.214359
-5.02956
-0.000514389
-4.49197
-0.171926
-4.00452
-0.307981
-3.56556
-0.414916
-3.17385
-0.498275
-2.82503
-0.565502
-2.51225
-0.621577
-2.23008
-0.668205
-1.97618
-0.70689
-1.74845
-0.738683
-1.54523
-0.764168
-1.36519
-0.783782
-1.20667
-0.79851
-1.06759
-0.809342
-0.945695
-0.81701
-0.838941
-0.821969
-0.745654
-0.824476
-0.664412
-0.824797
-0.593813
-0.823263
-0.532485
-0.82008
-0.479238
-0.815368
-0.432999
-0.809379
-0.39272
-0.802418
-0.357367
-0.794673
-0.326009
-0.786156
-0.297886
-0.776787
-0.272392
-0.766534
-0.24905
-0.755421
-0.227413
-0.743557
-0.206988
-0.731092
-0.187276
-0.718149
-0.167823
-0.704812
-0.148217
-0.691134
-0.128078
-0.677161
-0.107056
-0.662948
-0.0848581
-0.648584
-0.0612811
-0.634174
-0.0361989
-0.619802
-0.00954205
-0.605526
0.0187148
-0.591387
0.048571
-0.577431
0.0800186
-0.563717
0.11304
-0.550288
0.147598
-0.537174
0.183617
-0.524389
0.220951
-0.511934
0.259373
-0.499803
0.298588
-0.487958
0.338127
-0.476114
0.377042
-0.463604
0.413968
-0.450161
0.446579
-0.435311
0.469783
-0.41737
0.475224
-0.394454
0.465386
-0.373159
0.474546
-0.352537
0.514219
-0.329553
0.573805
-0.302692
0.649001
-0.27552
0.737243
-0.249635
0.834137
-0.225827
0.934688
-0.20405
1.02937
-0.18259
1.10844
-0.158822
1.16721
-0.135857
1.21045
-0.118886
1.24199
-0.105371
1.26244
-0.0924798
1.27335
-0.0823945
1.27879
-0.0765214
1.28272
-0.0726719
1.28662
-0.0680422
1.29141
-0.0625225
1.2972
-0.0563504
1.30294
-0.0496643
1.30741
-0.0430022
1.31026
-0.0368576
1.31186
-0.0312622
1.31282
-0.0259365
1.31351
-0.020619
1.31385
-0.0151527
1.31342
-0.00971665
1.3124
-0.00490989
1.31134
-0.000570378
0.00353607
1.31089
-44.7529
1.00932
-48.5614
23.2895
-42.7469
14.719
-35.5108
10.9703
-29.8017
7.3153
-25.1788
4.82941
-21.3934
3.06811
-18.2288
1.84912
-15.5561
0.99928
-13.2866
0.399495
-11.361
-0.0308934
-9.72672
-0.344782
-8.32447
-0.567213
-7.11605
-0.721989
-6.07562
-0.826194
-5.18452
-0.891768
-4.42835
-0.928267
-3.78391
-0.952619
-3.22978
-0.969278
-2.74799
-0.980323
-2.32641
-0.987369
-1.95709
-0.991225
-1.6338
-0.991852
-1.35135
-0.989745
-1.10482
-0.985643
-0.890117
-0.979352
-0.704695
-0.969723
-0.545696
-0.958069
-0.410009
-0.945629
-0.294805
-0.932856
-0.197495
-0.91996
-0.115673
-0.907018
-0.0471803
-0.894047
0.00990238
-0.88114
0.0573346
-0.868341
0.0966059
-0.855502
0.128931
-0.842599
0.155322
-0.829735
0.176709
-0.817016
0.19407
-0.804502
0.208368
-0.792099
0.220455
-0.779663
0.230921
-0.766958
0.240141
-0.753876
0.248461
-0.74054
0.256269
-0.727116
0.263979
-0.713712
0.271969
-0.700347
0.28056
-0.687009
0.290005
-0.673687
0.300517
-0.660431
0.312296
-0.64733
0.32551
-0.634442
0.340282
-0.621777
0.35665
-0.609294
0.374571
-0.596956
0.39397
-0.584796
0.414748
-0.572831
0.43676
-0.561047
0.459768
-0.549371
0.483351
-0.53762
0.506729
-0.525439
0.528457
-0.512129
0.546217
-0.496544
0.558402
-0.47874
0.566067
-0.461132
0.571411
-0.444437
0.578658
-0.42908
0.59358
-0.414437
0.614884
-0.399389
0.640927
-0.382797
0.672412
-0.364625
0.712366
-0.345815
0.760931
-0.326891
0.816859
-0.308051
0.878153
-0.289328
0.942363
-0.270221
1.00664
-0.24861
1.06882
-0.222579
1.12523
-0.193707
1.17329
-0.168296
1.21134
-0.144728
1.24057
-0.123
1.26106
-0.104185
1.27389
-0.0906501
1.28383
-0.0838992
1.29252
-0.0780298
1.30004
-0.0713245
1.30682
-0.0644172
1.31322
-0.0573271
1.31907
-0.0501057
1.32403
-0.043044
1.32791
-0.0363468
1.33096
-0.0301737
1.33358
-0.0243982
1.33602
-0.0187244
1.33817
-0.0129624
1.3399
-0.00770894
1.34136
-0.0030624
0.000953821
1.34295
-163.115
12.7216
-116.885
-22.9405
-89.3125
-12.8536
-67.5331
-10.8091
-51.5058
-8.712
-39.7189
-6.95748
-30.9408
-5.71004
-24.3193
-4.77242
-19.2741
-4.04594
-15.3983
-3.4764
-12.4056
-3.02362
-10.0918
-2.65859
-8.27515
-2.384
-6.82539
-2.17185
-5.64955
-2.00217
-4.6793
-1.86218
-3.86389
-1.74386
-3.17326
-1.64348
-2.58423
-1.55856
-2.07887
-1.48599
-1.64317
-1.42342
-1.26635
-1.36844
-0.941215
-1.31745
-0.661383
-1.2701
-0.420152
-1.22746
-0.211883
-1.18828
-0.0355411
-1.1468
0.111389
-1.10581
0.23311
-1.06823
0.33344
-1.03414
0.41549
-1.00303
0.481796
-0.974413
0.534517
-0.947918
0.57572
-0.92355
0.607489
-0.90137
0.631622
-0.880941
0.649539
-0.861867
0.662429
-0.844017
0.671341
-0.827355
0.677209
-0.81183
0.680798
-0.797178
0.682837
-0.783222
0.683924
-0.769595
0.684394
-0.755927
0.684435
-0.742193
0.684199
-0.728527
0.683858
-0.715051
0.683573
-0.701782
0.683495
-0.688692
0.683727
-0.675724
0.684339
-0.662898
0.685411
-0.650313
0.687027
-0.638031
0.689262
-0.626055
0.6921
-0.614255
0.695366
-0.602437
0.698794
-0.590545
0.702079
-0.578559
0.704903
-0.566457
0.706996
-0.554217
0.70825
-0.541827
0.708968
-0.529354
0.710388
-0.517047
0.714846
-0.504802
0.724024
-0.491794
0.737524
-0.478326
0.754229
-0.464624
0.772592
-0.450755
0.791738
-0.436682
0.811821
-0.422318
0.834012
-0.407619
0.859611
-0.392675
0.889138
-0.377622
0.922136
-0.362012
0.957432
-0.34533
0.993405
-0.327162
1.02817
-0.30675
1.06059
-0.282701
1.09274
-0.256326
1.12723
-0.229702
1.16133
-0.203834
1.19376
-0.178564
1.22421
-0.154822
1.25198
-0.133313
1.27572
-0.115723
1.29676
-0.106254
1.31551
-0.0980728
1.33094
-0.0880362
1.34267
-0.0774137
1.35105
-0.0669468
1.35687
-0.0571578
1.36094
-0.048327
1.36383
-0.0404226
1.36578
-0.0332911
1.36689
-0.0266352
1.36744
-0.0203779
1.36793
-0.0145286
1.36839
-0.0092131
1.36897
-0.00464278
-0.000886383
1.36984
-52.0894
-0.971877
-50.7031
-24.3267
-42.3471
-21.2095
-33.7635
-19.3928
-27.0585
-15.417
-22.2335
-11.7824
-18.4243
-9.51931
-15.3098
-7.88697
-12.7482
-6.60755
-10.6369
-5.58776
-8.87961
-4.78097
-7.39503
-4.14326
-6.14365
-3.63548
-5.08712
-3.22851
-4.192
-2.89745
-3.42932
-2.62504
-2.77601
-2.39739
-2.21416
-2.2056
-1.72747
-2.04557
-1.30417
-1.90966
-0.935642
-1.79239
-0.616119
-1.6885
-0.34285
-1.59135
-0.109617
-1.50409
0.090148
-1.42812
0.262901
-1.36208
0.413747
-1.2988
0.543729
-1.23694
0.653521
-1.17913
0.744642
-1.12635
0.819031
-1.07851
0.878662
-1.03514
0.925319
-0.995681
0.960762
-0.96012
0.987015
-0.928774
1.00604
-0.901142
1.01933
-0.87636
1.02786
-0.853787
1.03223
-0.832994
1.033
-0.813917
1.03093
-0.796472
1.02694
-0.780652
1.02193
-0.766062
1.01648
-0.752018
1.01086
-0.738178
1.00518
-0.724512
0.999455
-0.711063
0.993687
-0.697814
0.987912
-0.684782
0.982202
-0.671943
0.976615
-0.659304
0.971223
-0.646973
0.966142
-0.635058
0.961546
-0.62362
0.957542
-0.612462
0.954101
-0.601251
0.951181
-0.58992
0.948782
-0.578488
0.946966
-0.566994
0.945859
-0.55548
0.945616
-0.543962
0.946341
-0.532457
0.947932
-0.521008
0.950435
-0.509645
0.954739
-0.498377
0.961296
-0.487097
0.970094
-0.475573
0.980969
-0.463716
0.993734
-0.451466
1.0082
-0.438738
1.0241
-0.425403
1.0409
-0.411294
1.05772
-0.396212
1.07353
-0.379542
1.08825
-0.361748
1.10229
-0.342867
1.11587
-0.321957
1.1306
-0.299021
1.1485
-0.275769
1.16986
-0.252563
1.19417
-0.229617
1.2215
-0.207342
1.25127
-0.186006
1.28256
-0.165987
1.3144
-0.148906
1.34283
-0.135982
1.36548
-0.121997
1.38244
-0.106258
1.39404
-0.0902463
1.40102
-0.0751593
1.40433
-0.0616691
1.40473
-0.0499157
1.4033
-0.0401507
1.40093
-0.0320515
1.39821
-0.0250283
1.39571
-0.0189515
1.39389
-0.0137597
1.39273
-0.00907043
1.39214
-0.0050347
-0.00149926
1.39181
40.7041
-1.64099
21.3057
-4.92837
9.2439
-9.14772
0.870277
-11.0192
-3.69618
-10.8506
-5.52603
-9.95265
-6.01624
-9.02914
-5.87442
-8.02885
-5.44466
-7.03738
-4.89245
-6.14006
-4.2979
-5.37563
-3.71057
-4.73071
-3.16115
-4.18506
-2.65354
-3.7363
-2.18996
-3.36124
-1.76977
-3.04548
-1.39238
-2.77508
-1.05519
-2.54313
-0.748903
-2.35227
-0.470232
-2.18882
-0.217061
-2.04614
0.014484
-1.92074
0.226671
-1.80433
0.416399
-1.69463
0.580654
-1.59316
0.71785
-1.50005
0.832839
-1.41456
0.931224
-1.33608
1.01569
-1.26436
1.08769
-1.19911
1.14833
-1.13992
1.19856
-1.08616
1.23924
-1.03716
1.27109
-0.9928
1.29505
-0.953584
1.31223
-0.919201
1.32368
-0.88871
1.33016
-0.861206
1.33222
-0.836021
1.33026
-0.812963
1.32482
-0.792066
1.31673
-0.77365
1.30711
-0.757561
1.29686
-0.742921
1.2865
-0.729017
1.27635
-0.715598
1.26659
-0.702576
1.25726
-0.68979
1.24838
-0.677244
1.24004
-0.664982
1.2323
-0.65297
1.22509
-0.641186
1.21818
-0.629607
1.21142
-0.618341
1.20484
-0.607392
1.19856
-0.596511
1.19268
-0.585607
1.1873
-0.574691
1.18252
-0.563815
1.17845
-0.553034
1.1752
-0.542341
1.17279
-0.531673
1.17108
-0.520936
1.16982
-0.510003
1.16875
-0.498934
1.16796
-0.487925
1.16767
-0.476915
1.16806
-0.465732
1.16919
-0.454227
1.17107
-0.442248
1.17361
-0.429576
1.17657
-0.415885
1.17946
-0.400702
1.1821
-0.383772
1.18457
-0.365783
1.18732
-0.347149
1.19189
-0.328048
1.20017
-0.308801
1.21237
-0.289459
1.22832
-0.269989
1.24775
-0.250504
1.2703
-0.231317
1.2957
-0.212809
1.32355
-0.195198
1.35156
-0.178252
1.37512
-0.160847
1.39337
-0.141518
1.40709
-0.121228
1.4168
-0.101185
1.42317
-0.0827454
1.42675
-0.0664431
1.42785
-0.0521806
1.4272
-0.0406454
1.42545
-0.0314153
1.42324
-0.0239004
1.42132
-0.0180893
1.42024
-0.0137094
1.42017
-0.00999751
1.42076
-0.00658828
-0.00304079
1.42138
26.0322
-1.15041
24.3717
-3.26787
20.298
-5.07404
15.3288
-6.05
10.9609
-6.48276
7.55339
-6.54518
4.88744
-6.36324
2.89261
-6.03409
1.49509
-5.63996
0.588619
-5.23372
0.0521646
-4.83934
-0.220643
-4.45811
-0.315951
-4.09
-0.301772
-3.75075
-0.220394
-3.44293
-0.0958449
-3.17039
0.0605011
-2.93183
0.235914
-2.719
0.412277
-2.52912
0.578292
-2.35533
0.727738
-2.1961
0.856715
-2.05024
0.968211
-1.91636
1.06638
-1.79333
1.15299
-1.68032
1.22894
-1.57656
1.2952
-1.48139
1.35276
-1.39424
1.40238
-1.31459
1.44459
-1.24194
1.47982
-1.17579
1.50852
-1.11553
1.53123
-1.06054
1.54839
-1.01066
1.56022
-0.966136
1.56707
-0.926794
1.56958
-0.89198
1.56857
-0.860993
1.565
-0.833277
1.55943
-0.808239
1.55195
-0.785471
1.54278
-0.765389
1.53237
-0.7481
1.52119
-0.732709
1.50952
-0.718353
1.49761
-0.704723
1.4857
-0.691727
1.47385
-0.679047
1.46207
-0.666605
1.45047
-0.654559
1.43927
-0.642978
1.42865
-0.631806
1.41863
-0.620873
1.40909
-0.610109
1.39979
-0.599431
1.39059
-0.588686
1.38147
-0.577889
1.37243
-0.567078
1.36348
-0.556307
1.35466
-0.545679
1.3461
-0.535267
1.33797
-0.525041
1.33039
-0.514875
1.3234
-0.504527
1.31692
-0.493973
1.31077
-0.483286
1.30471
-0.472363
1.29862
-0.461136
1.29243
-0.449527
1.28617
-0.437454
1.27996
-0.424826
1.27418
-0.411548
1.26961
-0.397571
1.26742
-0.383009
1.26798
-0.367776
1.27113
-0.351731
1.27668
-0.335036
1.28438
-0.31792
1.2941
-0.300591
1.30579
-0.283088
1.3194
-0.265498
1.33453
-0.247832
1.35037
-0.230013
1.36594
-0.212123
1.37968
-0.193326
1.39093
-0.173399
1.40096
-0.15282
1.41038
-0.131901
1.41915
-0.111199
1.42687
-0.0916857
1.43366
-0.0744303
1.4394
-0.0590895
1.44391
-0.0462825
1.4474
-0.0359998
1.45051
-0.0280804
1.45383
-0.0224409
1.45742
-0.0183047
1.46112
-0.0146728
1.46454
-0.0109447
-0.0067864
1.46741
20.8681
-0.700898
19.5007
-1.90044
17.3552
-2.92853
14.9513
-3.64619
12.5741
-4.10555
10.3928
-4.36393
8.49117
-4.46166
6.90108
-4.44407
5.61432
-4.35327
4.59716
-4.21666
3.80614
-4.04843
3.20427
-3.85638
2.76199
-3.64788
2.44345
-3.4324
2.21935
-3.21903
2.06341
-3.01468
1.95423
-2.82292
1.87929
-2.64435
1.82806
-2.47819
1.79549
-2.3231
1.77714
-2.1781
1.76908
-2.04256
1.76833
-1.91601
1.77263
-1.79806
1.7802
-1.68833
1.7896
-1.58643
1.7997
-1.49198
1.8096
-1.40465
1.81857
-1.32408
1.82605
-1.24996
1.83169
-1.18199
1.83539
-1.11982
1.83735
-1.06311
1.83775
-1.0117
1.83642
-0.965454
1.83298
-0.924027
1.82716
-0.886857
1.81885
-0.853396
1.80821
-0.823375
1.79567
-0.796462
1.78161
-0.772193
1.76603
-0.750611
1.74888
-0.731784
1.73045
-0.715128
1.71121
-0.699992
1.69163
-0.68605
1.67201
-0.673043
1.65244
-0.660428
1.63304
-0.648189
1.61412
-0.636649
1.59601
-0.625905
1.579
-0.61586
1.56333
-0.606294
1.54901
-0.596899
1.53574
-0.587303
1.5232
-0.577301
1.51108
-0.566948
1.49915
-0.556351
1.48725
-0.545627
1.47531
-0.534978
1.46338
-0.524578
1.45154
-0.514463
1.43998
-0.504584
1.42905
-0.494873
1.41912
-0.48533
1.41033
-0.475788
1.40265
-0.465981
1.39599
-0.455779
1.39026
-0.445097
1.38543
-0.433935
1.38161
-0.422311
1.37894
-0.410191
1.37752
-0.397463
1.37719
-0.383987
1.37779
-0.369694
1.37937
-0.354629
1.38189
-0.338869
1.3851
-0.322452
1.38874
-0.305553
1.39252
-0.288202
1.39623
-0.270534
1.39982
-0.252761
1.40339
-0.234918
1.40693
-0.216979
1.41101
-0.198702
1.41635
-0.180009
1.42285
-0.160575
1.42971
-0.139992
1.43685
-0.119567
1.44487
-0.100919
1.45396
-0.0846989
1.46367
-0.0699579
1.47314
-0.0568639
1.4824
-0.0463407
1.49163
-0.0383535
1.50041
-0.032226
1.50822
-0.0270866
1.51495
-0.0223318
1.52073
-0.0176301
-0.0127455
1.52585
17.1861
-0.446089
16.4809
-1.19524
15.3855
-1.83314
14.0604
-2.32119
12.6527
-2.69781
11.2677
-2.979
9.97364
-3.16765
8.80313
-3.27361
7.76341
-3.31363
6.85077
-3.3041
6.0596
-3.25735
5.38461
-3.18151
4.81894
-3.08233
4.35156
-2.96517
3.96835
-2.83598
3.65427
-2.70079
3.39568
-2.56453
3.18159
-2.43049
3.00363
-2.30048
2.8556
-2.17534
2.73259
-2.05539
2.63048
-1.94077
2.54569
-1.83155
2.47506
-1.72779
2.41585
-1.62951
2.36572
-1.53671
2.32273
-1.44942
2.28533
-1.3677
2.25236
-1.29159
2.22299
-1.22109
2.1966
-1.15613
2.17277
-1.09652
2.15102
-1.04193
2.1307
-0.991969
2.11103
-0.946393
2.0914
-0.905035
2.07151
-0.867618
2.05121
-0.833773
2.03048
-0.80334
2.00948
-0.77618
1.98845
-0.751903
1.96708
-0.730001
1.94483
-0.71032
1.92173
-0.692829
1.89831
-0.67739
1.87514
-0.66372
1.8525
-0.651272
1.83036
-0.639162
1.80849
-0.627228
1.78685
-0.61593
1.76569
-0.605689
1.7454
-0.596528
1.72618
-0.588054
1.70795
-0.579664
1.69052
-0.570883
1.67375
-0.561562
1.65757
-0.551806
1.6419
-0.541742
1.62669
-0.531489
1.61198
-0.52136
1.59794
-0.511637
1.5847
-0.502337
1.57236
-0.493365
1.56096
-0.484613
1.55045
-0.475958
1.54074
-0.467228
1.53181
-0.458215
1.52357
-0.448708
1.51589
-0.438586
1.50874
-0.427975
1.50227
-0.417025
1.49653
-0.405651
1.49137
-0.393513
1.4864
-0.380236
1.48128
-0.365797
1.47592
-0.350513
1.47052
-0.334721
1.46545
-0.318649
1.46112
-0.302491
1.45757
-0.285934
1.45441
-0.268665
1.45126
-0.250888
1.44814
-0.23307
1.44525
-0.215358
1.44289
-0.197587
1.44155
-0.179909
1.4427
-0.162959
1.44774
-0.146261
1.4563
-0.129335
1.46688
-0.112692
1.47868
-0.0976688
1.49233
-0.0847429
1.50758
-0.0732136
1.52323
-0.0630436
1.53792
-0.0540561
1.5507
-0.0459768
1.56144
-0.0387551
1.57064
-0.0324195
1.57883
-0.0266717
-0.0211635
1.58644
14.6974
-0.291968
14.2916
-0.789457
13.6799
-1.22153
12.9265
-1.56773
12.087
-1.8584
11.2081
-2.10009
10.3294
-2.28901
9.48103
-2.42533
8.68147
-2.51413
7.93992
-2.56264
7.26059
-2.57811
6.64549
-2.56652
6.09533
-2.53229
5.60898
-2.47896
5.18294
-2.41009
4.81161
-2.32963
4.48839
-2.2415
4.20677
-2.14907
3.96097
-2.0549
3.74616
-1.96077
3.55835
-1.86784
3.39417
-1.77687
3.25069
-1.68838
3.12531
-1.60273
3.01563
-1.52018
2.91949
-1.44095
2.83492
-1.36524
2.76011
-1.29331
2.69345
-1.22537
2.6335
-1.1616
2.579
-1.10212
2.52892
-1.04695
2.48246
-0.996004
2.43911
-0.949179
2.39851
-0.906371
2.36033
-0.867456
2.32431
-0.832227
2.29021
-0.800322
2.25758
-0.771379
2.2259
-0.745189
2.19486
-0.721571
2.16429
-0.700162
2.13401
-0.680789
2.10388
-0.663479
2.07383
-0.648132
2.04367
-0.634378
2.0134
-0.621836
1.98356
-0.610178
1.95482
-0.59937
1.92755
-0.589548
1.90182
-0.58088
1.87758
-0.573218
1.85459
-0.566006
1.83252
-0.558552
1.81113
-0.55048
1.79044
-0.541863
1.77061
-0.532988
1.75187
-0.524033
1.73436
-0.515013
1.71801
-0.506063
1.70266
-0.49736
1.68818
-0.488937
1.67448
-0.480753
1.66149
-0.472721
1.64914
-0.46471
1.63735
-0.456555
1.62608
-0.448072
1.6153
-0.439065
1.605
-0.429426
1.59515
-0.419274
1.58571
-0.408743
1.57662
-0.397737
1.5677
-0.385771
1.55853
-0.372254
1.5487
-0.357171
1.53815
-0.341186
1.52724
-0.325043
1.51647
-0.309125
1.50598
-0.293247
1.4951
-0.276312
1.48363
-0.258464
1.4724
-0.240924
1.46281
-0.224745
1.45586
-0.209672
1.45221
-0.195203
1.45157
-0.180523
1.45316
-0.165804
1.45762
-0.151958
1.46669
-0.139622
1.48137
-0.128567
1.50035
-0.117793
1.52111
-0.106615
1.54172
-0.0948866
1.56082
-0.0831549
1.57792
-0.072125
1.59322
-0.0622066
1.60689
-0.0533127
1.61908
-0.0454557
1.62999
-0.0383949
-0.0317976
1.63987
12.9788
-0.201847
12.7364
-0.547093
12.3653
-0.850422
11.8978
-1.10029
11.3593
-1.31999
10.7733
-1.51404
10.1622
-1.67801
9.54631
-1.80949
8.94135
-1.90924
8.35837
-1.97974
7.8045
-2.02432
7.28423
-2.04635
6.80056
-2.04874
6.35537
-2.0339
5.94923
-2.00409
5.58118
-1.96175
5.24902
-1.90951
4.94976
-1.85
4.68021
-1.78557
4.43742
-1.7182
4.21877
-1.64944
4.02205
-1.58042
3.84531
-1.51193
3.68674
-1.44447
3.54462
-1.37839
3.41725
-1.31393
3.30295
-1.25132
3.2001
-1.19086
3.10716
-1.13285
3.02273
-1.07761
2.94557
-1.02543
2.87467
-0.976538
2.8092
-0.931049
2.74849
-0.889
2.69192
-0.850352
2.63887
-0.814985
2.58874
-0.782703
2.54106
-0.753259
2.49548
-0.726449
2.45181
-0.702179
2.40991
-0.680366
2.36979
-0.660747
2.33123
-0.642966
2.29385
-0.626852
2.25734
-0.612392
2.22154
-0.599373
2.18636
-0.587466
2.1519
-0.576545
2.11834
-0.566665
2.08574
-0.557825
2.05389
-0.549918
2.02237
-0.542608
1.99101
-0.535574
1.96012
-0.528615
1.93028
-0.521598
1.90198
-0.514549
1.87558
-0.507593
1.85132
-0.500791
1.82934
-0.494074
1.80957
-0.487334
1.79164
-0.480491
1.7752
-0.473571
1.75997
-0.466601
1.7457
-0.459537
1.73215
-0.45226
1.71912
-0.444625
1.70644
-0.436503
1.69404
-0.427791
1.6819
-0.418413
1.66978
-0.408298
1.65729
-0.397395
1.64395
-0.385554
1.62914
-0.372137
1.61237
-0.356674
1.59407
-0.340088
1.57533
-0.323678
1.55698
-0.307946
1.53943
-0.292842
1.52297
-0.278068
1.50861
-0.263246
1.49792
-0.249079
1.49145
-0.235751
1.48857
-0.223166
1.48873
-0.211117
1.49223
-0.199969
1.5002
-0.189747
1.51302
-0.179851
1.52937
-0.169496
1.54687
-0.158271
1.5636
-0.146389
1.57888
-0.134137
1.59286
-0.121614
1.60613
-0.109131
1.61929
-0.09726