/*--------------------------------*- C++ -*----------------------------------*\
| =========                 |                                                 |
| \\      /  F ield         | OpenFOAM: The Open Source CFD Toolbox           |
|  \\    /   O peration     | Version:  2412                                  |
|   \\  /    A nd           | Website:  www.openfoam.com                      |
|    \\/     M anipulation  |                                                 |
\*---------------------------------------------------------------------------*/
FoamFile
{
    version     2.0;
    format      ascii;
    arch        "LSB;label=32;scalar=64";
    class       volVectorField;
    location    "4";
    object      U;
}
// * * * * * * * * * * * * * * * * * * * * * * * * * * * * * * * * * * * * * //

dimensions      [0 1 -1 0 0 0 0];

internalField   nonuniform List<vector> 
20000
(
(-3736.99 -378.837 0)
(43.8404 -379.134 0)
(-512.703 -278.343 0)
(-484.636 -182.483 0)
(-400.971 -126.427 0)
(-320.914 -100.021 0)
(-265.916 -85.6298 0)
(-225.508 -71.9095 0)
(-193.986 -54.8375 0)
(-170.263 -39.7033 0)
(-154.616 -27.6096 0)
(-147.537 -17.9179 0)
(-148.533 -9.70328 0)
(-155.283 -3.13922 0)
(-166.123 2.00606 0)
(-179.012 6.02786 0)
(-192.297 9.15669 0)
(-204.985 11.4392 0)
(-217.427 12.8784 0)
(-230.877 13.6555 0)
(-245.634 14.1373 0)
(-260.642 14.5586 0)
(-275.067 14.9071 0)
(-288.637 15.1444 0)
(-301.237 15.2429 0)
(-312.868 15.1708 0)
(-323.505 14.8927 0)
(-333.044 14.3635 0)
(-341.316 13.5286 0)
(-348.123 12.3216 0)
(-353.264 10.6602 0)
(-356.526 8.45085 0)
(-357.659 5.5988 0)
(-356.372 2.01414 0)
(-352.321 -2.38851 0)
(-345.138 -7.63576 0)
(-334.708 -13.3954 0)
(-321.128 -19.3985 0)
(-304.743 -25.2731 0)
(-285.903 -30.6707 0)
(-264.758 -35.3005 0)
(-241.178 -39.0158 0)
(-214.988 -41.8465 0)
(-186.591 -43.9377 0)
(-157.554 -45.3938 0)
(-130.225 -46.1856 0)
(-106.64 -46.2655 0)
(-88.4492 -45.4967 0)
(-76.9287 -43.4088 0)
(-71.0842 -39.4043 0)
(-65.5372 -33.0259 0)
(-52.7305 -24.7767 0)
(-31.7188 -16.4015 0)
(-9.83516 -8.9317 0)
(10.0287 -2.37944 0)
(30.6652 0.10841 0)
(67.1758 6.27325 0)
(89.949 12.4675 0)
(109.904 14.0755 0)
(126 14.2212 0)
(137.86 13.816 0)
(145.427 13.4492 0)
(151.825 14.201 0)
(161.425 16.7754 0)
(177.859 21.0044 0)
(199.562 27.0212 0)
(216.069 31.187 0)
(222.899 29.3634 0)
(222.69 25.5163 0)
(209.841 20.7481 0)
(189.443 15.7034 0)
(167.581 10.9959 0)
(147.748 6.67827 0)
(130.148 2.65976 0)
(114.647 -0.197241 0)
(103.344 -1.1097 0)
(98.7984 -1.05529 0)
(100.503 -1.06641 0)
(104.056 -1.5359 0)
(105.738 -1.94601 0)
(106.077 -1.80575 0)
(107.495 -1.19652 0)
(110.954 -0.409948 0)
(115.796 0.322831 0)
(120.869 0.870913 0)
(125.323 1.23303 0)
(128.825 1.43393 0)
(131.207 1.52178 0)
(132.797 1.65318 0)
(134.401 1.89206 0)
(135.898 2.178 0)
(136.428 2.62033 0)
(136.27 3.49889 0)
(136.993 4.92763 0)
(139.551 6.70503 0)
(142.923 8.50992 0)
(144.657 10.1612 0)
(142.196 11.7607 0)
(134.29 13.6644 0)
(122.452 16.2696 0)
(-3057.16 382.305 0)
(-714.448 -333.115 0)
(295.733 -371.063 0)
(-141.145 -254.132 0)
(-197.122 -206.222 0)
(-174.413 -184.294 0)
(-140.805 -162.974 0)
(-126.156 -138.525 0)
(-144.046 -92.9664 0)
(-153.471 -50.794 0)
(-166.17 -16.1001 0)
(-185.415 7.88241 0)
(-207.864 23.9252 0)
(-232.233 34.4675 0)
(-256.729 41.3763 0)
(-279.915 45.8875 0)
(-301.222 48.7245 0)
(-320.525 50.205 0)
(-337.975 50.494 0)
(-353.874 49.878 0)
(-368.288 48.7525 0)
(-381.025 47.321 0)
(-391.863 45.5297 0)
(-400.525 43.2455 0)
(-406.804 40.2881 0)
(-410.589 36.4592 0)
(-411.748 31.5532 0)
(-410.099 25.3585 0)
(-405.416 17.6894 0)
(-397.482 8.42763 0)
(-386.117 -2.45478 0)
(-371.511 -14.6779 0)
(-354.266 -27.6522 0)
(-334.931 -40.8261 0)
(-314.158 -53.5706 0)
(-292.578 -65.2569 0)
(-270.442 -75.5692 0)
(-248.197 -84.1034 0)
(-226.313 -90.6262 0)
(-205.281 -94.9786 0)
(-185.41 -97.1506 0)
(-166.634 -97.3571 0)
(-148.459 -96.0927 0)
(-130.31 -94.1005 0)
(-112.357 -92.1309 0)
(-95.9802 -90.5027 0)
(-82.5845 -88.92 0)
(-72.4726 -86.809 0)
(-65.5206 -83.3996 0)
(-60.3912 -77.7671 0)
(-53.7171 -69.336 0)
(-42.9155 -59.0198 0)
(-28.9253 -49.0855 0)
(-14.5411 -40.3524 0)
(-0.326299 -32.1427 0)
(14.2008 -24.8176 0)
(28.474 -19.0206 0)
(42.8018 -15.2724 0)
(57.169 -13.9447 0)
(68.9808 -16.2805 0)
(79.6978 -16.9964 0)
(88.7687 -9.86873 0)
(99.0129 -1.67616 0)
(112.987 7.3286 0)
(126.243 16.5744 0)
(137.259 25.481 0)
(146.802 29.0343 0)
(152.671 29.3726 0)
(150.906 27.262 0)
(144.648 23.5776 0)
(134.369 19.4076 0)
(122.143 15.653 0)
(110.694 12.2766 0)
(101.832 9.22147 0)
(96.4164 6.98143 0)
(95.2453 6.12597 0)
(96.8412 5.57903 0)
(99.6222 4.36855 0)
(103.302 2.43234 0)
(106.76 0.496521 0)
(109.528 -0.5531 0)
(112.066 -0.645737 0)
(114.865 -0.338539 0)
(117.962 -0.201436 0)
(121.038 -0.396996 0)
(123.722 -0.843166 0)
(125.767 -1.48142 0)
(127.26 -2.22608 0)
(128.48 -2.88951 0)
(129.629 -3.38457 0)
(130.68 -3.69348 0)
(131.644 -3.55946 0)
(132.903 -2.60372 0)
(134.935 -0.813754 0)
(137.664 1.33337 0)
(140.2 3.29543 0)
(141.408 5.00868 0)
(140.404 6.93154 0)
(136.896 9.7782 0)
(134.774 14.0583 0)
(574.074 76.5028 0)
(667.075 78.0509 0)
(673.794 79.6827 0)
(616.477 86.3053 0)
(510.684 84.4507 0)
(387.366 64.1929 0)
(291.235 6.07047 0)
(213.813 -98.6636 0)
(87.0551 -31.5665 0)
(-10.7469 49.0013 0)
(-85.3512 81.6465 0)
(-139.293 98.6124 0)
(-183.116 106.708 0)
(-220.169 109.399 0)
(-251.4 108.793 0)
(-277.485 106.005 0)
(-299.154 101.643 0)
(-316.927 96.0431 0)
(-331.05 89.3947 0)
(-341.701 81.8499 0)
(-349.065 73.5313 0)
(-353.262 64.4461 0)
(-354.363 54.5091 0)
(-352.364 43.566 0)
(-347.246 31.4076 0)
(-339.034 17.8751 0)
(-327.818 2.93257 0)
(-313.736 -13.2735 0)
(-297.846 -29.8267 0)
(-280.719 -46.0485 0)
(-263.101 -61.194 0)
(-245.4 -74.7884 0)
(-227.562 -86.747 0)
(-210.056 -96.8983 0)
(-193.216 -105.167 0)
(-177.169 -111.53 0)
(-161.887 -116.046 0)
(-147.623 -118.84 0)
(-134.857 -120.095 0)
(-123.905 -120.054 0)
(-114.789 -118.961 0)
(-107.229 -117.004 0)
(-100.679 -114.364 0)
(-94.6547 -111.35 0)
(-88.8315 -108.446 0)
(-82.7733 -105.985 0)
(-76.3413 -103.741 0)
(-70.2145 -101.156 0)
(-65.0763 -97.7263 0)
(-60.2552 -92.9637 0)
(-54.35 -86.8769 0)
(-46.9444 -80.1417 0)
(-38.1251 -73.5747 0)
(-27.9624 -67.4294 0)
(-17.1349 -61.5113 0)
(-6.53102 -55.889 0)
(3.45189 -50.5228 0)
(12.895 -45.3519 0)
(22.0717 -40.4738 0)
(31.109 -35.8829 0)
(40.1212 -31.5272 0)
(50.3835 -27.7922 0)
(61.1257 -27.8728 0)
(73.2833 -28.3232 0)
(84.4631 -15.3171 0)
(91.347 -4.4697 0)
(96.8562 2.50972 0)
(100.502 8.96794 0)
(104.9 15.5384 0)
(108.237 20.1878 0)
(109.202 22.0153 0)
(107.597 21.3665 0)
(102.386 19.5074 0)
(95.2643 16.8514 0)
(90.0121 14.04 0)
(88.4405 11.7364 0)
(90.4626 10.2098 0)
(93.3688 8.11208 0)
(96.429 5.01299 0)
(101.149 1.6997 0)
(106.683 -1.14076 0)
(111.72 -3.32091 0)
(115.549 -4.88558 0)
(118.655 -5.94984 0)
(121.622 -6.63977 0)
(124.33 -7.24684 0)
(126.372 -7.93781 0)
(127.655 -8.59235 0)
(128.311 -9.01044 0)
(128.654 -9.04099 0)
(129.013 -8.60964 0)
(129.51 -7.70908 0)
(129.998 -6.38084 0)
(130.078 -4.79035 0)
(129.268 -3.2604 0)
(127.243 -2.05789 0)
(123.979 -1.10606 0)
(119.636 0.105507 0)
(114.61 2.49313 0)
(112.851 6.83521 0)
(859.873 91.1367 0)
(875.384 218.295 0)
(817.842 312.294 0)
(725.074 365.858 0)
(598.937 387.113 0)
(455.24 380.671 0)
(340.432 349.253 0)
(267.014 302.725 0)
(152.5 245.46 0)
(12.027 240.141 0)
(-72.1684 234.952 0)
(-134.879 223.27 0)
(-182.755 208.177 0)
(-219.454 191.55 0)
(-247.031 174.409 0)
(-267.1 157.158 0)
(-280.832 139.941 0)
(-289.106 122.77 0)
(-292.557 105.562 0)
(-291.738 88.1508 0)
(-287.248 70.3502 0)
(-279.724 51.9705 0)
(-269.861 32.8656 0)
(-258.435 12.9972 0)
(-246.201 -7.47408 0)
(-233.925 -27.4142 0)
(-222.15 -45.7751 0)
(-211.504 -61.6845 0)
(-200.394 -75.4101 0)
(-188.744 -86.828 0)
(-176.671 -95.9839 0)
(-164.508 -103.115 0)
(-152.755 -108.54 0)
(-141.872 -112.578 0)
(-132.049 -115.533 0)
(-123.126 -117.699 0)
(-114.836 -119.334 0)
(-107.173 -120.638 0)
(-100.484 -121.677 0)
(-95.0912 -122.411 0)
(-90.8585 -122.765 0)
(-87.1871 -122.628 0)
(-83.502 -121.902 0)
(-79.7842 -120.556 0)
(-76.4116 -118.618 0)
(-73.3928 -116.162 0)
(-70.2135 -113.353 0)
(-66.6216 -110.269 0)
(-62.7985 -106.754 0)
(-58.6787 -102.582 0)
(-53.8926 -97.8501 0)
(-48.3134 -92.8397 0)
(-42.1673 -87.7482 0)
(-35.6242 -82.8108 0)
(-28.7245 -78.2128 0)
(-21.5509 -73.9561 0)
(-14.2047 -69.9197 0)
(-6.76287 -65.9608 0)
(0.809005 -61.9629 0)
(8.67909 -57.8507 0)
(17.1019 -53.553 0)
(26.2809 -49.1188 0)
(35.8786 -45.1058 0)
(44.9979 -42.23 0)
(54.5301 -41.004 0)
(63.9146 -42.3202 0)
(74.1362 -40.1593 0)
(82.6664 -27.6502 0)
(86.9232 -13.2603 0)
(87.5276 -1.85268 0)
(88.4367 6.05125 0)
(90.1065 11.603 0)
(91.4639 16.6091 0)
(89.6496 19.1498 0)
(85.8667 18.3486 0)
(84.3038 16.7089 0)
(84.2743 14.4567 0)
(86.3753 12.0123 0)
(89.5114 9.28318 0)
(92.7793 5.32089 0)
(97.3287 0.716864 0)
(102.883 -3.74142 0)
(108.987 -7.60363 0)
(114.786 -10.5838 0)
(119.432 -12.7964 0)
(122.656 -14.4799 0)
(124.93 -15.6265 0)
(126.952 -16.2503 0)
(128.989 -16.391 0)
(130.884 -16.028 0)
(132.239 -15.1839 0)
(132.783 -13.9927 0)
(132.532 -12.604 0)
(131.44 -11.1956 0)
(129.262 -9.89686 0)
(125.869 -8.67097 0)
(121.456 -7.34876 0)
(116.483 -5.75175 0)
(111.378 -3.68316 0)
(108.641 -0.682687 0)
(1140.55 150.523 0)
(1166.43 385.769 0)
(981.901 590.911 0)
(761.262 713.174 0)
(550.783 753.917 0)
(355.993 743.336 0)
(221.392 697.603 0)
(123.318 598.104 0)
(14.3268 499.908 0)
(-91.2965 445.622 0)
(-160.416 394.321 0)
(-209.973 345.672 0)
(-244.753 300.585 0)
(-267.729 259.317 0)
(-281.265 221.615 0)
(-287.317 187.001 0)
(-287.398 154.919 0)
(-282.759 124.806 0)
(-274.509 96.0949 0)
(-263.71 68.275 0)
(-251.465 41.0063 0)
(-238.9 14.2392 0)
(-226.943 -11.5287 0)
(-215.715 -34.4585 0)
(-205.616 -53.7866 0)
(-195.632 -70.0186 0)
(-185.254 -83.4852 0)
(-174.372 -94.3632 0)
(-163.021 -102.941 0)
(-151.511 -109.57 0)
(-140.314 -114.648 0)
(-129.814 -118.583 0)
(-120.223 -121.74 0)
(-111.737 -124.333 0)
(-104.495 -126.436 0)
(-98.2726 -128.115 0)
(-92.6275 -129.473 0)
(-87.3566 -130.61 0)
(-82.5663 -131.557 0)
(-78.4478 -132.218 0)
(-74.9947 -132.443 0)
(-71.9483 -132.138 0)
(-69.018 -131.326 0)
(-66.1357 -130.09 0)
(-63.3538 -128.434 0)
(-60.6241 -126.271 0)
(-57.8388 -123.579 0)
(-54.9281 -120.459 0)
(-51.8555 -116.97 0)
(-48.5907 -113.116 0)
(-45.0473 -108.967 0)
(-41.113 -104.671 0)
(-36.7838 -100.35 0)
(-32.1394 -96.057 0)
(-27.2557 -91.8452 0)
(-22.1659 -87.7524 0)
(-16.8486 -83.7982 0)
(-11.252 -79.9728 0)
(-5.31658 -76.2475 0)
(1.01039 -72.5972 0)
(7.75878 -69.0234 0)
(14.9214 -65.5655 0)
(22.4498 -62.2821 0)
(30.3293 -59.1159 0)
(38.7121 -55.9583 0)
(47.6261 -53.3704 0)
(56.966 -51.969 0)
(65.7415 -52.5085 0)
(74.4878 -51.1306 0)
(80.7093 -40.7122 0)
(81.0154 -28.3164 0)
(79.4365 -15.4453 0)
(79.7254 -3.9032 0)
(82.4068 4.8698 0)
(85.2912 10.6757 0)
(83.8491 13.6655 0)
(82.8366 14.0555 0)
(83.4241 12.7206 0)
(85.1896 10.4828 0)
(87.9464 7.60612 0)
(90.9852 3.76944 0)
(94.3445 -0.799459 0)
(99.142 -5.44553 0)
(105.239 -9.76313 0)
(111.731 -13.4912 0)
(117.974 -16.2845 0)
(123.371 -18.049 0)
(127.622 -18.9512 0)
(130.973 -19.2545 0)
(133.742 -19.1493 0)
(135.867 -18.7212 0)
(137.135 -17.8583 0)
(137.299 -16.4027 0)
(136.139 -14.3833 0)
(133.811 -12.0532 0)
(130.678 -9.63813 0)
(126.92 -7.16127 0)
(122.578 -4.56 0)
(117.809 -1.86612 0)
(114.329 0.858475 0)
(1508.55 539.13 0)
(1575.16 1238.46 0)
(1246.72 1503.12 0)
(784.3 1563.87 0)
(375.824 1531.97 0)
(86.3792 1373.38 0)
(-78.732 1105.73 0)
(-178.933 905.757 0)
(-263.945 743.81 0)
(-324.156 618.395 0)
(-357.499 511.657 0)
(-374.661 420.606 0)
(-379.455 343.21 0)
(-374.92 277.275 0)
(-363.585 220.591 0)
(-347.519 171.124 0)
(-328.419 127.096 0)
(-307.881 87.0433 0)
(-287.398 49.9919 0)
(-268.089 15.5581 0)
(-250.012 -14.8209 0)
(-233.101 -40.0453 0)
(-217.408 -60.3985 0)
(-202.213 -77.4547 0)
(-187.434 -91.5809 0)
(-173.005 -103.057 0)
(-158.911 -112.172 0)
(-145.25 -119.266 0)
(-132.221 -124.767 0)
(-120.066 -129.11 0)
(-109.031 -132.637 0)
(-99.3338 -135.555 0)
(-90.9603 -137.996 0)
(-83.6611 -140.045 0)
(-77.2734 -141.701 0)
(-71.7148 -142.905 0)
(-66.8168 -143.67 0)
(-62.4351 -144.076 0)
(-58.5202 -144.19 0)
(-55.0696 -143.999 0)
(-52.0386 -143.429 0)
(-49.2974 -142.415 0)
(-46.7242 -140.963 0)
(-44.2913 -139.124 0)
(-42.0133 -136.934 0)
(-39.8721 -134.407 0)
(-37.8122 -131.569 0)
(-35.7507 -128.458 0)
(-33.6001 -125.108 0)
(-31.2958 -121.555 0)
(-28.7942 -117.829 0)
(-26.0642 -113.987 0)
(-23.0901 -110.096 0)
(-19.866 -106.208 0)
(-16.3931 -102.357 0)
(-12.6733 -98.5663 0)
(-8.69606 -94.8524 0)
(-4.43101 -91.2356 0)
(0.163892 -87.7394 0)
(5.12635 -84.389 0)
(10.4744 -81.2073 0)
(16.1996 -78.2081 0)
(22.2719 -75.3871 0)
(28.6618 -72.7159 0)
(35.3902 -70.1753 0)
(42.5708 -67.8214 0)
(50.3371 -65.7093 0)
(58.6768 -64.0388 0)
(66.8874 -63.1844 0)
(73.369 -62.1196 0)
(74.6041 -54.8837 0)
(73.0567 -45.7377 0)
(71.7807 -37.2779 0)
(72.2594 -28.2337 0)
(74.9842 -19.277 0)
(79.3027 -11.9121 0)
(82.8739 -6.0485 0)
(83.8065 -2.05135 0)
(84.4968 -0.110558 0)
(85.8967 0.202654 0)
(88.0599 -0.499745 0)
(90.7092 -2.10905 0)
(93.8517 -4.58754 0)
(98.0331 -7.70681 0)
(103.356 -10.9269 0)
(109.948 -13.828 0)
(117.157 -16.1232 0)
(123.882 -17.6605 0)
(129.235 -18.4818 0)
(133.15 -18.7545 0)
(136.118 -18.685 0)
(138.656 -18.2679 0)
(140.782 -17.3248 0)
(141.672 -15.6009 0)
(140.611 -13.0371 0)
(137.951 -10.0186 0)
(134.44 -6.94408 0)
(130.327 -3.97004 0)
(125.548 -1.13634 0)
(121.447 1.51434 0)
(2627.13 -1209.05 0)
(2361.03 1491.83 0)
(761.739 3255.72 0)
(-287.193 3356.77 0)
(-520.361 2490.47 0)
(-677.911 1886.2 0)
(-742.324 1417.25 0)
(-755.481 1082.08 0)
(-742.097 834.886 0)
(-711.851 648.779 0)
(-670.32 503.972 0)
(-622.067 389.131 0)
(-570.033 295.734 0)
(-517.397 217.584 0)
(-466.529 150.378 0)
(-419.102 91.2137 0)
(-376.251 38.2939 0)
(-337.25 -4.43275 0)
(-302.324 -38.0453 0)
(-271.239 -63.7849 0)
(-243.488 -84.0759 0)
(-218.301 -100.721 0)
(-195.175 -114.252 0)
(-173.752 -125.108 0)
(-153.856 -133.649 0)
(-135.418 -140.214 0)
(-118.488 -145.165 0)
(-103.222 -148.887 0)
(-89.7427 -151.723 0)
(-78.0267 -153.92 0)
(-67.8944 -155.653 0)
(-59.1502 -157.013 0)
(-51.6582 -158.008 0)
(-45.2646 -158.634 0)
(-39.7643 -158.914 0)
(-34.9867 -158.853 0)
(-30.8442 -158.468 0)
(-27.2765 -157.796 0)
(-24.2037 -156.861 0)
(-21.511 -155.659 0)
(-19.0801 -154.171 0)
(-16.8571 -152.384 0)
(-14.8486 -150.316 0)
(-13.0762 -148.004 0)
(-11.5262 -145.483 0)
(-10.1426 -142.771 0)
(-8.85848 -139.879 0)
(-7.60632 -136.815 0)
(-6.31547 -133.594 0)
(-4.92253 -130.243 0)
(-3.37614 -126.794 0)
(-1.63483 -123.281 0)
(0.326692 -119.733 0)
(2.51488 -116.175 0)
(4.92916 -112.631 0)
(7.57323 -109.127 0)
(10.4589 -105.69 0)
(13.6102 -102.344 0)
(17.0572 -99.116 0)
(20.8308 -96.0348 0)
(24.9544 -93.1273 0)
(29.4323 -90.4109 0)
(34.2313 -87.8823 0)
(39.2537 -85.5035 0)
(44.3867 -83.2234 0)
(49.7299 -81.0576 0)
(55.4354 -79.0314 0)
(61.4389 -77.1166 0)
(67.0668 -75.11 0)
(70.5085 -72.8264 0)
(70.8282 -68.3676 0)
(69.7548 -62.8695 0)
(68.9188 -57.1288 0)
(69.2411 -51.3892 0)
(70.8733 -45.7463 0)
(73.9141 -40.3141 0)
(78.6913 -35.2956 0)
(84.3872 -30.6129 0)
(88.5112 -25.259 0)
(90.3225 -20.5078 0)
(90.6487 -16.8191 0)
(91.4848 -14.1696 0)
(93.0434 -12.305 0)
(95.5194 -11.8415 0)
(99.2125 -12.4948 0)
(104.381 -13.4779 0)
(110.758 -14.6336 0)
(117.714 -15.8463 0)
(124.506 -16.8783 0)
(130.369 -17.5296 0)
(135.002 -17.7241 0)
(138.817 -17.5165 0)
(142.243 -16.9582 0)
(145.068 -15.8881 0)
(146.105 -13.9741 0)
(144.653 -11.3035 0)
(141.36 -8.36798 0)
(136.991 -5.49585 0)
(131.853 -2.81031 0)
(127.182 -0.383952 0)
(-16296.5 4495.66 0)
(534.364 7059.29 0)
(-4352.72 4969.57 0)
(-3262.12 3840.03 0)
(-2694.61 2721.53 0)
(-2241.02 1944.34 0)
(-1880.6 1388.71 0)
(-1588.16 991.75 0)
(-1347.87 699.69 0)
(-1148.34 477.341 0)
(-981.07 301.308 0)
(-839.517 160.339 0)
(-717.739 59.2321 0)
(-613.489 -12.8968 0)
(-524.278 -63.7192 0)
(-448.127 -98.2641 0)
(-383.478 -120 0)
(-328.733 -136.341 0)
(-281.91 -148.983 0)
(-241.356 -158.735 0)
(-205.759 -166.191 0)
(-174.216 -171.749 0)
(-146.122 -175.694 0)
(-121.067 -178.326 0)
(-98.7352 -179.923 0)
(-78.9373 -180.676 0)
(-61.6291 -180.744 0)
(-46.7876 -180.417 0)
(-34.0996 -179.877 0)
(-23.3369 -179.16 0)
(-14.3466 -178.259 0)
(-6.92094 -177.177 0)
(-0.768404 -175.924 0)
(4.38244 -174.503 0)
(8.71422 -172.9 0)
(12.3491 -171.107 0)
(15.375 -169.154 0)
(17.8886 -167.087 0)
(19.9648 -164.938 0)
(21.6545 -162.72 0)
(23.0617 -160.437 0)
(24.2567 -158.082 0)
(25.2669 -155.627 0)
(26.0869 -153.066 0)
(26.7177 -150.413 0)
(27.198 -147.684 0)
(27.5946 -144.886 0)
(27.9835 -142.015 0)
(28.4258 -139.063 0)
(28.9621 -136.033 0)
(29.6278 -132.942 0)
(30.4609 -129.82 0)
(31.4944 -126.692 0)
(32.7379 -123.572 0)
(34.1893 -120.472 0)
(35.851 -117.407 0)
(37.7237 -114.4 0)
(39.823 -111.473 0)
(42.1671 -108.647 0)
(44.775 -105.942 0)
(47.6636 -103.374 0)
(50.8388 -100.955 0)
(54.259 -98.6719 0)
(57.6827 -96.432 0)
(60.642 -94.0989 0)
(63.3174 -91.7489 0)
(66.1923 -89.4552 0)
(69.1062 -87.1721 0)
(71.1873 -84.3538 0)
(71.5228 -80.9918 0)
(71.3728 -77.5235 0)
(71.4043 -73.838 0)
(71.9432 -69.9355 0)
(73.0679 -65.9094 0)
(74.7907 -61.81 0)
(77.2062 -57.6873 0)
(80.3138 -53.5126 0)
(83.7717 -49.057 0)
(87.3507 -44.0705 0)
(88.9834 -38.2305 0)
(90.024 -33.1815 0)
(90.5568 -28.416 0)
(91.7069 -23.7445 0)
(93.8299 -19.6875 0)
(97.076 -17.1421 0)
(101.716 -15.9839 0)
(107.47 -15.2387 0)
(113.911 -14.8966 0)
(120.511 -14.9706 0)
(126.949 -15.2241 0)
(132.815 -15.3878 0)
(137.908 -15.2946 0)
(142.477 -14.8951 0)
(146.665 -14.1555 0)
(149.505 -12.9071 0)
(149.543 -10.9871 0)
(146.937 -8.67619 0)
(142.769 -6.25513 0)
(137.514 -3.91514 0)
(132.382 -1.79909 0)
(-45284.6 561.028 0)
(-146.87 -552.376 0)
(-9410.24 -213.474 0)
(-6022.77 -265.872 0)
(-4666.84 -357.733 0)
(-3564.42 -409.588 0)
(-2759.13 -444.557 0)
(-2155.98 -458.531 0)
(-1700.39 -455.613 0)
(-1352.76 -439.492 0)
(-1085.11 -412.113 0)
(-877.773 -377.924 0)
(-716.404 -351.895 0)
(-588.836 -331.731 0)
(-486.451 -315.399 0)
(-402.945 -301.603 0)
(-333.679 -289.595 0)
(-275.331 -278.996 0)
(-225.638 -269.544 0)
(-182.905 -260.989 0)
(-145.824 -253.146 0)
(-113.409 -245.796 0)
(-84.9748 -238.656 0)
(-60.2216 -231.772 0)
(-38.6768 -225.369 0)
(-19.9049 -219.365 0)
(-3.76899 -213.322 0)
(9.49538 -207.607 0)
(20.6606 -202.508 0)
(30.0376 -197.966 0)
(37.7815 -193.838 0)
(44.0573 -189.963 0)
(49.0752 -186.236 0)
(53.1027 -182.636 0)
(56.3756 -179.145 0)
(59.0355 -175.685 0)
(61.1179 -172.246 0)
(62.6804 -168.883 0)
(63.7482 -165.669 0)
(64.3179 -162.674 0)
(64.6077 -159.913 0)
(64.7847 -157.347 0)
(64.9074 -154.867 0)
(64.9345 -152.388 0)
(64.817 -149.901 0)
(64.5785 -147.427 0)
(64.2864 -144.972 0)
(64.0207 -142.52 0)
(63.8365 -140.042 0)
(63.7487 -137.508 0)
(63.7542 -134.919 0)
(63.8635 -132.301 0)
(64.1072 -129.681 0)
(64.4843 -127.074 0)
(64.9799 -124.48 0)
(65.6029 -121.899 0)
(66.3371 -119.348 0)
(67.1906 -116.845 0)
(68.1749 -114.4 0)
(69.2994 -112.022 0)
(70.5722 -109.71 0)
(72.0127 -107.466 0)
(73.6284 -105.285 0)
(75.1374 -103.006 0)
(75.813 -100.356 0)
(75.9198 -97.5875 0)
(76.0608 -94.8326 0)
(76.2803 -92.1051 0)
(76.5946 -89.3909 0)
(77.0466 -86.6301 0)
(77.7046 -83.773 0)
(78.652 -80.8237 0)
(79.9573 -77.7998 0)
(81.5303 -74.6661 0)
(83.1979 -71.3819 0)
(85.0837 -67.9036 0)
(87.1404 -64.0935 0)
(88.7212 -59.5249 0)
(89.3471 -54.0651 0)
(89.7318 -48.388 0)
(90.247 -42.854 0)
(90.8989 -37.1629 0)
(92.2857 -31.4985 0)
(94.7127 -26.1835 0)
(98.2546 -21.7329 0)
(103.087 -19.1357 0)
(108.366 -17.2736 0)
(114.021 -15.7972 0)
(119.911 -14.782 0)
(125.896 -14.1454 0)
(131.861 -13.7476 0)
(137.566 -13.4178 0)
(142.889 -12.9824 0)
(147.832 -12.3551 0)
(151.688 -11.439 0)
(152.933 -10.0603 0)
(151.188 -8.29774 0)
(147.388 -6.36179 0)
(142.088 -4.48766 0)
(136.619 -2.82149 0)
(-27224 -199.01 0)
(2556.92 -7170.82 0)
(-3304.65 -4744.01 0)
(-2451.49 -3846.49 0)
(-2136.52 -2972.02 0)
(-1798.2 -2283.58 0)
(-1511.92 -1809.11 0)
(-1265.05 -1465.34 0)
(-1054.9 -1208.28 0)
(-877.656 -1013.6 0)
(-729.379 -865.15 0)
(-605.825 -750.515 0)
(-502.761 -660.297 0)
(-416.575 -588.178 0)
(-343.879 -529.669 0)
(-282.06 -481.586 0)
(-229.135 -441.554 0)
(-183.476 -408.097 0)
(-143.807 -380.174 0)
(-109.014 -356.524 0)
(-78.2836 -336.118 0)
(-51.0447 -317.942 0)
(-26.8606 -300.619 0)
(-6.29634 -284.103 0)
(11.0969 -269.134 0)
(25.9284 -255.822 0)
(38.8068 -242.446 0)
(48.8464 -229.872 0)
(57.2216 -218.749 0)
(64.3517 -209.079 0)
(70.3718 -200.706 0)
(75.3638 -193.397 0)
(79.4538 -186.919 0)
(82.8558 -181.133 0)
(85.7228 -175.941 0)
(88.0811 -171.155 0)
(89.8643 -166.636 0)
(91.1032 -162.357 0)
(91.7735 -158.371 0)
(91.7866 -154.798 0)
(91.4477 -151.687 0)
(91.0306 -149.017 0)
(90.6672 -146.641 0)
(90.3344 -144.387 0)
(89.9313 -142.19 0)
(89.4378 -140.056 0)
(88.914 -137.997 0)
(88.4485 -135.991 0)
(88.0858 -133.999 0)
(87.8125 -131.965 0)
(87.5878 -129.866 0)
(87.3792 -127.719 0)
(87.1947 -125.548 0)
(87.0015 -123.378 0)
(86.766 -121.207 0)
(86.5378 -119.016 0)
(86.308 -116.808 0)
(86.0873 -114.592 0)
(85.8903 -112.371 0)
(85.7315 -110.148 0)
(85.6213 -107.92 0)
(85.5695 -105.688 0)
(85.5873 -103.466 0)
(85.694 -101.267 0)
(85.8658 -99.0945 0)
(86.056 -96.9318 0)
(86.3205 -94.7511 0)
(86.6745 -92.5382 0)
(87.1482 -90.2752 0)
(87.7743 -87.9395 0)
(88.5785 -85.5064 0)
(89.581 -82.9533 0)
(90.7884 -80.2497 0)
(91.911 -77.2964 0)
(92.5779 -74.0892 0)
(93.1564 -70.5917 0)
(93.5866 -66.6277 0)
(93.5175 -62.105 0)
(93.4237 -57.4785 0)
(93.4874 -52.6321 0)
(93.9446 -47.4183 0)
(95.0477 -41.9545 0)
(96.9611 -36.4033 0)
(99.8132 -30.9581 0)
(103.756 -26.0732 0)
(108.409 -22.9165 0)
(112.65 -20.4262 0)
(116.921 -17.9519 0)
(121.697 -15.7457 0)
(126.953 -13.8553 0)
(132.534 -12.2633 0)
(138.153 -10.8987 0)
(143.581 -9.71361 0)
(148.726 -8.62566 0)
(153.005 -7.52322 0)
(154.969 -6.35718 0)
(153.93 -5.04908 0)
(150.451 -3.6997 0)
(145.04 -2.51377 0)
(139.296 -1.54721 0)
(2857.3 1032.9 0)
(2850.23 -1072.74 0)
(1460.86 -2369.68 0)
(516.014 -3024.5 0)
(-14.8175 -2756.51 0)
(-235.217 -2261.26 0)
(-361.338 -1917.06 0)
(-412.349 -1637.2 0)
(-411.379 -1402.05 0)
(-377.476 -1209.1 0)
(-327.029 -1054.44 0)
(-273.824 -929.284 0)
(-225.997 -825.164 0)
(-185.63 -737.487 0)
(-151.087 -662.755 0)
(-120.985 -599.035 0)
(-94.3934 -544.417 0)
(-70.4369 -497.609 0)
(-48.4737 -458.439 0)
(-27.7101 -425.273 0)
(-7.87509 -396.83 0)
(10.7823 -371.953 0)
(28.6297 -347.929 0)
(43.8888 -325.051 0)
(56.2343 -303.835 0)
(66.1342 -284.076 0)
(74.0676 -265.715 0)
(80.5692 -248.812 0)
(86.056 -233.488 0)
(90.7775 -219.809 0)
(94.8759 -207.75 0)
(98.44 -197.183 0)
(101.595 -187.903 0)
(104.523 -179.776 0)
(107.253 -172.733 0)
(109.64 -166.544 0)
(111.463 -160.941 0)
(112.634 -155.763 0)
(113.021 -150.894 0)
(112.544 -146.374 0)
(111.585 -142.328 0)
(110.504 -138.847 0)
(109.517 -135.844 0)
(108.622 -133.114 0)
(107.691 -130.547 0)
(106.699 -128.131 0)
(105.736 -125.877 0)
(104.928 -123.756 0)
(104.323 -121.729 0)
(103.887 -119.744 0)
(103.559 -117.761 0)
(103.277 -115.782 0)
(103.021 -113.826 0)
(102.697 -111.939 0)
(102.25 -110.13 0)
(101.787 -108.352 0)
(101.322 -106.589 0)
(100.882 -104.84 0)
(100.495 -103.106 0)
(100.178 -101.385 0)
(99.9348 -99.6674 0)
(99.7673 -97.9411 0)
(99.6793 -96.1996 0)
(99.6808 -94.4388 0)
(99.6694 -92.6873 0)
(99.5161 -90.978 0)
(99.3375 -89.2828 0)
(99.1704 -87.5649 0)
(99.0575 -85.786 0)
(99.0317 -83.9032 0)
(99.1111 -81.8659 0)
(99.3115 -79.6162 0)
(99.5919 -77.0864 0)
(99.6009 -74.142 0)
(99.2828 -70.9857 0)
(98.796 -67.7162 0)
(98.2666 -64.2505 0)
(97.9518 -60.5765 0)
(97.9757 -56.6362 0)
(98.4019 -52.4135 0)
(99.3275 -47.9766 0)
(100.827 -43.3976 0)
(102.933 -38.746 0)
(105.757 -34.2108 0)
(109.1 -30.358 0)
(112.341 -26.9963 0)
(115.279 -23.3153 0)
(118.436 -19.5228 0)
(122.379 -15.877 0)
(127.331 -12.5688 0)
(132.886 -9.64646 0)
(138.607 -7.10659 0)
(144.207 -5.01895 0)
(149.583 -3.30419 0)
(154.033 -1.89263 0)
(156.245 -0.856698 0)
(155.533 -0.0796326 0)
(152.046 0.392009 0)
(146.368 0.538761 0)
(140.396 0.512836 0)
(1911.39 -410.475 0)
(2071.12 -1065.44 0)
(1756.32 -1391.04 0)
(1425.4 -1566.58 0)
(1153.86 -1658.39 0)
(885.386 -1662.5 0)
(614.069 -1584.23 0)
(376.902 -1452.17 0)
(202.467 -1300.73 0)
(96.1677 -1158.01 0)
(46.5322 -1037.52 0)
(32.2675 -936.666 0)
(33.6546 -848.693 0)
(38.6629 -772.849 0)
(43.5052 -705.145 0)
(47.5871 -644.915 0)
(50.9836 -591.16 0)
(54.8849 -542.381 0)
(59.6979 -500.386 0)
(65.4212 -463.205 0)
(72.2951 -430.192 0)
(80.0909 -400.776 0)
(88.278 -374.338 0)
(96.2478 -350.237 0)
(103.436 -327.944 0)
(109.462 -307.077 0)
(114.226 -287.415 0)
(117.806 -268.902 0)
(120.376 -251.619 0)
(122.169 -235.687 0)
(123.396 -221.196 0)
(124.252 -208.154 0)
(125.015 -196.461 0)
(126.016 -186.058 0)
(127.337 -176.983 0)
(128.707 -169.095 0)
(129.718 -162.137 0)
(130.153 -155.893 0)
(130.002 -150.177 0)
(129.355 -144.794 0)
(128.362 -139.67 0)
(127.204 -134.958 0)
(126.09 -130.766 0)
(125.019 -126.977 0)
(123.838 -123.467 0)
(122.513 -120.216 0)
(121.179 -117.227 0)
(120.03 -114.454 0)
(119.137 -111.877 0)
(118.447 -109.485 0)
(117.88 -107.256 0)
(117.357 -105.175 0)
(116.847 -103.217 0)
(116.247 -101.358 0)
(115.541 -99.5967 0)
(114.818 -97.9063 0)
(114.104 -96.2659 0)
(113.418 -94.6729 0)
(112.781 -93.1317 0)
(112.201 -91.6479 0)
(111.669 -90.2128 0)
(111.184 -88.8067 0)
(110.751 -87.4057 0)
(110.366 -85.9771 0)
(109.893 -84.4913 0)
(109.279 -82.9804 0)
(108.599 -81.4546 0)
(107.899 -79.8806 0)
(107.222 -78.2283 0)
(106.581 -76.4659 0)
(105.97 -74.5615 0)
(105.377 -72.4911 0)
(104.789 -70.2506 0)
(104.248 -67.8641 0)
(103.818 -65.306 0)
(103.533 -62.5291 0)
(103.447 -59.5448 0)
(103.611 -56.3677 0)
(104.032 -52.9997 0)
(104.716 -49.4415 0)
(105.706 -45.7332 0)
(107.068 -41.9919 0)
(108.684 -38.3983 0)
(110.579 -35.0405 0)
(112.56 -31.4912 0)
(114.459 -27.5971 0)
(116.43 -23.475 0)
(118.976 -19.1287 0)
(122.663 -14.7644 0)
(127.75 -10.6575 0)
(133.731 -6.89841 0)
(139.869 -3.52923 0)
(145.781 -0.677 0)
(151.284 1.66473 0)
(155.492 3.35385 0)
(157.262 4.2368 0)
(156.003 4.33046 0)
(151.894 3.7551 0)
(145.936 2.81928 0)
(140.055 1.86813 0)
(1498.15 -161.932 0)
(1594.37 -436.733 0)
(1420.51 -669.068 0)
(1275.19 -829.965 0)
(1166.62 -934.836 0)
(1032.65 -993.965 0)
(864.273 -1012.85 0)
(688.908 -1000.18 0)
(533.704 -966.865 0)
(413.673 -922.513 0)
(331.888 -873.812 0)
(281.881 -824.239 0)
(252.637 -774.961 0)
(234.376 -726.255 0)
(220.709 -678.421 0)
(208.306 -632.017 0)
(196.136 -587.667 0)
(184.467 -545.793 0)
(173.847 -506.669 0)
(164.808 -470.573 0)
(157.887 -437.699 0)
(153.427 -408.051 0)
(151.387 -381.387 0)
(151.316 -357.272 0)
(152.488 -335.194 0)
(154.155 -314.676 0)
(155.678 -295.379 0)
(156.576 -277.144 0)
(156.623 -259.957 0)
(155.846 -243.894 0)
(154.422 -229.057 0)
(152.684 -215.501 0)
(151.102 -203.217 0)
(150.09 -192.201 0)
(149.784 -182.441 0)
(149.9 -173.852 0)
(149.963 -166.267 0)
(149.743 -159.464 0)
(149.264 -153.191 0)
(148.583 -147.19 0)
(147.597 -141.332 0)
(146.199 -135.812 0)
(144.535 -130.816 0)
(142.723 -126.237 0)
(140.712 -121.938 0)
(138.491 -117.889 0)
(136.239 -114.067 0)
(134.162 -110.371 0)
(132.314 -106.825 0)
(130.676 -103.55 0)
(129.182 -100.615 0)
(127.762 -98.0201 0)
(126.42 -95.7214 0)
(125.18 -93.6427 0)
(124.05 -91.6908 0)
(123.008 -89.799 0)
(122.028 -87.9466 0)
(121.095 -86.1317 0)
(120.211 -84.3671 0)
(119.375 -82.6839 0)
(118.573 -81.1054 0)
(117.786 -79.6334 0)
(116.994 -78.2584 0)
(116.191 -76.9656 0)
(115.386 -75.7405 0)
(114.606 -74.5365 0)
(113.87 -73.2912 0)
(113.202 -71.9656 0)
(112.624 -70.5339 0)
(112.142 -68.9852 0)
(111.744 -67.3129 0)
(111.412 -65.5066 0)
(111.125 -63.5442 0)
(110.878 -61.3886 0)
(110.677 -59.013 0)
(110.541 -56.418 0)
(110.525 -53.6205 0)
(110.68 -50.6697 0)
(110.963 -47.6418 0)
(111.331 -44.5542 0)
(111.77 -41.4371 0)
(112.345 -38.2881 0)
(113.142 -35.001 0)
(114.118 -31.514 0)
(115.148 -27.9185 0)
(116.318 -24.321 0)
(117.991 -20.6469 0)
(120.628 -16.7409 0)
(124.653 -12.4431 0)
(130.324 -8.0449 0)
(136.844 -3.94 0)
(143.276 -0.186359 0)
(149.24 3.0932 0)
(154.225 5.59734 0)
(157.24 6.95253 0)
(157.419 7.02257 0)
(154.682 6.01578 0)
(149.853 4.40596 0)
(144.099 2.70724 0)
(138.803 1.27045 0)
(1238.82 -102.9 0)
(1311.64 -269.862 0)
(1215.07 -408.997 0)
(1145.32 -516.816 0)
(1096.42 -605.695 0)
(1026.12 -675.887 0)
(927.075 -722.872 0)
(812.573 -745.796 0)
(697.533 -748.376 0)
(593.907 -736.685 0)
(509.844 -716.667 0)
(447.893 -692.477 0)
(404.922 -666.048 0)
(374.809 -637.914 0)
(351.525 -608.219 0)
(330.92 -577.215 0)
(310.992 -545.348 0)
(291.253 -513.228 0)
(271.996 -481.551 0)
(253.873 -450.98 0)
(237.685 -422.083 0)
(224.174 -395.256 0)
(213.79 -370.664 0)
(206.509 -348.223 0)
(201.825 -327.656 0)
(198.93 -308.596 0)
(196.919 -290.701 0)
(194.975 -273.732 0)
(192.554 -257.569 0)
(189.45 -242.219 0)
(185.744 -227.771 0)
(181.77 -214.332 0)
(178.007 -202.002 0)
(174.834 -190.869 0)
(172.36 -181.004 0)
(170.451 -172.403 0)
(168.897 -164.913 0)
(167.692 -158.296 0)
(166.872 -152.355 0)
(166.233 -146.924 0)
(165.281 -141.854 0)
(163.771 -137.074 0)
(161.873 -132.509 0)
(159.839 -128.024 0)
(157.616 -123.57 0)
(155.115 -119.22 0)
(152.588 -115.012 0)
(150.258 -110.828 0)
(148.022 -106.724 0)
(145.764 -102.908 0)
(143.501 -99.4945 0)
(141.303 -96.4926 0)
(139.24 -93.8337 0)
(137.348 -91.3925 0)
(135.626 -89.0484 0)
(134.052 -86.7322 0)
(132.593 -84.4246 0)
(131.227 -82.1264 0)
(129.939 -79.8608 0)
(128.714 -77.71 0)
(127.548 -75.7625 0)
(126.446 -74.0463 0)
(125.402 -72.5404 0)
(124.424 -71.1966 0)
(123.516 -69.9504 0)
(122.677 -68.7309 0)
(121.903 -67.4701 0)
(121.198 -66.1052 0)
(120.561 -64.6006 0)
(119.974 -62.9774 0)
(119.42 -61.2765 0)
(118.892 -59.5063 0)
(118.379 -57.6249 0)
(117.874 -55.5691 0)
(117.364 -53.3086 0)
(116.847 -50.8519 0)
(116.353 -48.2079 0)
(115.92 -45.3935 0)
(115.611 -42.492 0)
(115.493 -39.5165 0)
(115.515 -36.5048 0)
(115.622 -33.5515 0)
(115.854 -30.7508 0)
(116.184 -28.1195 0)
(116.638 -25.467 0)
(117.357 -22.547 0)
(118.89 -19.1549 0)
(122.423 -15.0201 0)
(128.116 -10.2953 0)
(134.632 -5.43519 0)