/*--------------------------------*- C++ -*----------------------------------*\
| =========                 |                                                 |
| \\      /  F ield         | OpenFOAM: The Open Source CFD Toolbox           |
|  \\    /   O peration     | Version:  2412                                  |
|   \\  /    A nd           | Website:  www.openfoam.com                      |
|    \\/     M anipulation  |                                                 |
\*---------------------------------------------------------------------------*/
FoamFile
{
    version     2.0;
    format      ascii;
    arch        "LSB;label=32;scalar=64";
    class       volScalarField;
    location    "2.5";
    object      p;
}
// * * * * * * * * * * * * * * * * * * * * * * * * * * * * * * * * * * * * * //

dimensions      [1 -1 -2 0 0 0 0];

internalField   nonuniform List<scalar> 
200
(
1.17374
0.880237
1.06946
0.928751
1.03674
0.978903
1.00492
0.999381
0.998017
0.997701
1.16686
0.857486
1.05069
0.989136
1.00164
0.99745
0.998951
0.995307
0.995987
0.995366
1.17292
0.856878
1.0385
0.991013
1.00126
0.9997
0.998974
0.997731
0.997558
0.996548
1.16147
0.891577
1.03071
0.951522
0.997474
0.985095
0.995119
0.988975
0.996505
0.991344
1.20565
0.930684
1.01167
0.986152
0.993998
0.994033
0.997358
0.991741
0.997629
0.994481
1.17343
0.891851
1.02862
0.941512
1.00668
0.974123
1.00137
0.983296
0.998862
0.989035
1.16794
0.850628
1.02795
0.995628
0.996209
0.998052
0.999554
0.998969
0.999289
0.997133
1.17995
0.865659
1.08215
0.980163
1.00403
0.993874
0.995016
0.99624
0.997679
0.997083
1.18185
0.882144
1.05889
0.90498
1.03494
0.973609
1.00421
0.993075
0.999408
0.995784
1.18039
0.875379
1.06643
0.946068
1.02597
0.97983
1.00625
0.989167
1.00452
0.995363
0.997423
0.9964
0.996818
0.996677
0.996892
0.996914
0.996833
0.99671
0.996582
0.996481
0.994892
0.994647
0.996336
0.995851
0.997052
0.996751
0.996781
0.996648
0.996519
0.996438
0.996972
0.996485
0.99701
0.996637
0.996956
0.996638
0.996626
0.99652
0.996414
0.996351
0.998407
0.994105
0.996996
0.995772
0.996918
0.996262
0.996598
0.996382
0.996302
0.996257
0.996411
0.995717
0.997125
0.996243
0.996771
0.996354
0.99641
0.996262
0.996171
0.996118
0.999274
0.994229
0.996961
0.995859
0.996595
0.99611
0.996253
0.996115
0.996034
0.99599
0.997835
0.995672
0.997017
0.996219
0.996487
0.996221
0.996145
0.996031
0.995931
0.995868
0.997525
0.996193
0.996534
0.99623
0.996079
0.995947
0.995899
0.995856
0.995788
0.99572
0.998191
0.995792
0.996466
0.996247
0.996107
0.995984
0.99589
0.995813
0.995747
0.995703
0.999278
0.996217
0.996645
0.996386
0.996173
0.996017
0.995883
0.995778
0.995697
0.995647
)
;

boundaryField
{
    inlet
    {
        type            fixedValue;
        value           uniform 1;
    }
    sym
    {
        type            slip;
    }
    wedge
    {
        type            slip;
    }
    top
    {
        type            slip;
    }
    back
    {
        type            empty;
    }
    front
    {
        type            empty;
    }
    outlet
    {
        type            zeroGradient;
    }
}


// ************************************************************************* //
