/*--------------------------------*- C++ -*----------------------------------*\
| =========                 |                                                 |
| \\      /  F ield         | OpenFOAM: The Open Source CFD Toolbox           |
|  \\    /   O peration     | Version:  2412                                  |
|   \\  /    A nd           | Website:  www.openfoam.com                      |
|    \\/     M anipulation  |                                                 |
\*---------------------------------------------------------------------------*/
FoamFile
{
    version     2.0;
    format      ascii;
    arch        "LSB;label=32;scalar=64";
    class       surfaceScalarField;
    location    "2.5";
    object      phi;
}
// * * * * * * * * * * * * * * * * * * * * * * * * * * * * * * * * * * * * * //

dimensions      [1 0 -1 0 0 0 0];

oriented        oriented;

internalField   nonuniform List<scalar> 
370
(
6.38452e-05
0.000141325
-0.000179168
0.000247913
-0.000185401
1.49556e-05
0.00029434
-0.000483863
0.000254832
4.26328e-05
0.000449913
-0.000194945
0.000475213
-2.72532e-05
0.000513619
-3.94992e-05
0.000562527
-5.01724e-05
-2.22888e-05
0.000583543
0.000348293
-1.2546e-05
0.000737386
-0.000150078
0.000822029
-6.91185e-05
0.000415277
-7.7996e-05
0.000274929
0.000183507
-4.55839e-05
0.000122939
-0.000135429
6.14269e-05
-0.000234306
5.77739e-05
-0.000205836
-7.98961e-05
-5.3302e-05
-0.000176018
0.000358806
-0.000208225
0.00075619
-0.000550325
0.000646294
3.97065e-05
0.000424626
0.000135872
0.00035758
0.000248837
0.000120592
0.000357884
8.74487e-05
9.23577e-05
-1.44887e-06
0.000144424
-5.01603e-05
-3.25307e-05
-5.76464e-05
-4.7619e-05
0.00020618
-0.000253982
-5.66344e-05
-0.000290056
-0.000368375
0.000354443
-0.000321596
8.93124e-05
-0.000257603
0.00018582
-9.44213e-05
0.000193088
-5.69084e-05
5.59617e-05
3.9802e-05
4.59955e-05
9.29861e-06
-2.02964e-06
-5.69857e-05
8.03345e-06
-0.000759328
0.000356592
-0.00148807
0.00043827
-0.000892202
-0.00024011
-0.000744115
-5.88618e-05
-0.000369039
-0.000187821
-0.000140834
-3.69147e-05
5.14326e-05
-0.000136068
0.000195727
-9.88319e-05
0.000279283
-8.64374e-05
-1.82406e-05
0.000240236
0.000161361
0.000353243
-3.48563e-05
0.0006325
-0.000213252
-5.79068e-05
-0.000122153
-0.000148193
-0.00022233
-8.16657e-05
-1.76569e-05
-0.00023947
-6.21728e-05
-9.09114e-05
6.88204e-05
-0.000229649
4.95431e-05
-6.69499e-05
-4.42201e-05
7.55779e-05
0.000440304
9.08931e-05
0.000956482
0.000118332
0.000938381
-5.09803e-05
0.000662448
0.00012309
0.000616081
-3.43192e-05
0.000414633
-3.49542e-05
0.000330721
-5.4566e-06
0.000118459
-1.78781e-05
7.64835e-06
4.40386e-05
3.79337e-05
-7.55083e-05
0.000248646
-3.25091e-05
0.000605051
-0.000244761
0.000728448
-0.000175285
0.000637694
0.000220161
0.0007959
-0.000189563
0.000633431
0.000128542
0.000584178
4.24788e-05
0.000390427
0.000174005
0.000351105
8.13665e-05
0.000108404
0.000279665
0.000150333
1.62592e-05
-6.99305e-05
-2.64514e-05
-4.40677e-05
-0.000198772
0.000407018
-0.000211069
0.000272141
-5.41195e-05
0.000342511
4.85733e-05
0.000211983
0.000175169
0.000171172
0.000212617
0.000188127
6.54377e-05
7.33154e-05
0.000222589
0.000213865
0.000182846
-1.41654e-05
-0.000226879
-0.000280282
-0.000228933
-5.42018e-05
0.000159411
0.000225799
0.000299821
0.000603634
-2.25471e-05
0.000500852
0.00010038
0.000444218
5.50118e-05
0.000333815
0.000109341
0.00026135
7.23598e-05
0.000199394
6.11678e-05
0.000161223
3.69529e-05
0.000140262
1.95402e-05
0.00012854
1.02616e-05
4.12638e-06
-9.16105e-05
-0.000109001
-4.33861e-05
5.07467e-05
2.78986e-05
-1.75105e-05
7.85058e-05
5.79369e-05
9.37891e-05
5.61416e-05
0.000108531
4.51884e-05
0.00011472
2.93471e-05
0.000116246
1.65239e-05
0.000116225
8.7616e-06
3.08137e-06
-7.93186e-05
-7.93511e-05
5.97538e-05
-9.02643e-05
4.49574e-05
-4.42209e-06
7.75434e-05
2.37694e-05
9.66661e-05
3.55512e-05
0.000106534
3.38559e-05
0.000116388
1.79852e-05
0.000120276
1.10296e-05
0.000121515
5.91871e-06
1.70854e-06
-7.53203e-05
1.44052e-06
1.14964e-05
-0.000178285
-2.92901e-05
3.41838e-05
1.94875e-05
-2.6537e-05
3.29225e-05
2.04299e-05
7.3066e-05
-7.8721e-06
8.8467e-05
1.02259e-06
0.000102342
-4.5181e-06
0.000110376
-3.76536e-06
-2.87532e-06
0.000211016
2.82829e-05
4.32717e-05
-1.31601e-05
3.92881e-05
3.60257e-05
6.2325e-05
-5.12843e-05
8.5288e-05
-4.315e-06
0.000101834
-2.61579e-05
0.000115245
-1.41663e-05
0.00012086
-1.18954e-05
0.000123514
-8.14967e-06
-4.77173e-06
-4.43507e-05
0.000144745
-3.95429e-05
-1.76552e-05
1.34491e-05
-1.93596e-05
4.7571e-05
-8.64969e-05
7.39023e-05
-3.23121e-05
9.37945e-05
-4.76879e-05
0.0001075
-2.95568e-05
0.000116974
-2.3072e-05
0.000122378
-1.52909e-05
-7.82826e-06
1.80169e-05
4.91894e-05
9.90787e-05
-9.94039e-05
0.000150995
-7.26854e-05
0.000151831
-8.83717e-05
0.000165367
-4.69009e-05
0.000157126
-4.06833e-05
0.000151641
-2.55508e-05
0.000143881
-1.69106e-05
0.000137814
-1.09186e-05
-5.95378e-06
0.000352218
-2.38738e-05
0.000316898
-6.40407e-05
0.000321848
-7.85179e-05
0.000298246
-6.59521e-05
0.00028443
-3.42304e-05
0.000254837
-1.18839e-05
0.000224522
3.75534e-06
0.000196778
9.48725e-06
0.000175613
8.74476e-06
4.51361e-06
0.000225495
-2.46419e-05
0.000199553
-3.80701e-05
0.000155996
-3.523e-05
0.000115356
-2.59224e-05
9.74564e-05
-1.72452e-05
9.74327e-05
-1.3056e-05
0.000106005
-6.19018e-06
0.000115038
-1.00831e-06
0.000121223
1.02106e-06
6.39145e-07
0.000277038
0.000239336
0.000204289
0.000178069
0.000160131
0.000146045
0.000138564
0.000136136
0.00013567
)
;

boundaryField
{
    inlet
    {
        type            calculated;
        value           nonuniform List<scalar> 10(-0.000179288 -0.000174276 -0.000148876 -0.000154693 0.000153 -0.000145701 -0.000164122 -0.000133439 -0.000182244 -0.000179725);
    }
    sym
    {
        type            calculated;
        value           uniform 0;
    }
    wedge
    {
        type            calculated;
        value           nonuniform List<scalar> 10(2.39236e-20 0 0 -2.38505e-20 -1.19554e-20 2.39753e-20 0 1.19869e-20 -1.19818e-20 1.19872e-20);
    }
    top
    {
        type            calculated;
        value           uniform 0;
    }
    back
    {
        type            empty;
    }
    front
    {
        type            empty;
    }
    outlet
    {
        type            calculated;
        value           nonuniform List<scalar> 10(0.000122978 0.000115774 0.000121326 0.000113366 0.000123812 0.000123844 0.000134342 0.000163586 0.000123631 0.000134839);
    }
}


// ************************************************************************* //
