/*--------------------------------*- C++ -*----------------------------------*\
| =========                 |                                                 |
| \\      /  F ield         | OpenFOAM: The Open Source CFD Toolbox           |
|  \\    /   O peration     | Version:  2412                                  |
|   \\  /    A nd           | Website:  www.openfoam.com                      |
|    \\/     M anipulation  |                                                 |
\*---------------------------------------------------------------------------*/
FoamFile
{
    version     2.0;
    format      ascii;
    arch        "LSB;label=32;scalar=64";
    class       surfaceScalarField;
    location    "2.5";
    object      phi;
}
// * * * * * * * * * * * * * * * * * * * * * * * * * * * * * * * * * * * * * //

dimensions      [1 0 -1 0 0 0 0];

oriented        oriented;

internalField   nonuniform List<scalar> 
370
(
0.529202
6.26252e-08
0.529201
3.77558e-07
0.5292
1.22505e-06
0.529197
3.2636e-06
0.529189
7.99536e-06
0.52917
1.88607e-05
0.529126
4.38316e-05
0.529024
0.000101825
0.528782
0.000240205
0.000590626
0.528189
0.529202
3.20451e-08
0.529202
2.00761e-07
0.529203
6.7491e-07
0.529204
1.83025e-06
0.529207
4.51706e-06
0.529216
1.06618e-05
0.529235
2.46346e-05
0.52928
5.64224e-05
0.52939
0.000128798
0.000296737
0.529683
0.529202
1.01163e-08
0.529202
6.32978e-08
0.529203
2.12353e-07
0.529204
5.74201e-07
0.529207
1.41136e-06
0.529214
3.31338e-06
0.529231
7.60253e-06
0.52927
1.72664e-05
0.52936
3.8905e-05
8.79943e-05
0.529568
0.529202
3.18555e-09
0.529202
1.99426e-08
0.529202
6.69101e-08
0.529202
1.80769e-07
0.529203
4.4351e-07
0.529206
1.03828e-06
0.529211
2.37348e-06
0.529223
5.36412e-06
0.52925
1.20209e-05
2.69534e-05
0.529311
0.529202
1.00616e-09
0.529202
6.2947e-09
0.529202
2.11062e-08
0.529202
5.7002e-08
0.529202
1.39825e-07
0.529203
3.27297e-07
0.529205
7.48138e-07
0.529208
1.69056e-06
0.529217
3.78825e-06
8.48657e-06
0.529235
0.529202
3.2627e-10
0.529202
2.04107e-09
0.529202
6.84365e-09
0.529202
1.84841e-08
0.529202
4.53482e-08
0.529202
1.06174e-07
0.529203
2.42763e-07
0.529204
5.48759e-07
0.529206
1.23e-06
2.75441e-06
0.529212
0.529202
1.05635e-10
0.529202
6.60824e-10
0.529202
2.21576e-09
0.529202
5.98489e-09
0.529202
1.46845e-08
0.529202
3.43858e-08
0.529202
7.86351e-08
0.529203
1.77789e-07
0.529203
3.98566e-07
8.92322e-07
0.529205
0.529202
3.30903e-11
0.529202
2.0709e-10
0.529202
6.94622e-10
0.529202
1.87642e-09
0.529202
4.60368e-09
0.529202
1.07782e-08
0.529202
2.46414e-08
0.529202
5.56948e-08
0.529202
1.248e-07
2.79144e-07
0.529203
0.529202
9.06276e-12
0.529202
5.67767e-11
0.529202
1.90608e-10
0.529202
5.15033e-10
0.529202
1.26338e-09
0.529202
2.95638e-09
0.529202
6.75421e-09
0.529202
1.52519e-08
0.529202
3.4148e-08
7.62895e-08
0.529202
0.529202
0.529202
0.529202
0.529202
0.529202
0.529202
0.529202
0.529202
0.529202
0.529202
0.643571
-0.115405
0.753743
-0.110228
0.855559
-0.101844
0.950041
-0.094432
1.02326
-0.0731785
1.06682
-0.0435509
1.06594
0.000896153
0.982811
0.0831368
0.888839
0.093945
0.0654666
0.529277
-0.115006
0.527713
-0.108678
0.529458
-0.103603
0.530842
-0.0957936
0.548831
-0.091126
0.576703
-0.071391
0.620218
-0.0426128
0.690549
0.0127065
0.721806
0.0626632
0.0935897
0.519001
-0.10444
0.512747
-0.102427
0.509595
-0.100456
0.511087
-0.0972874
0.51437
-0.094401
0.53197
-0.0889721
0.568865
-0.0795116
0.6499
-0.068371
0.757958
-0.045413
0.0569099
0.515787
-0.0909164
0.503399
-0.0900399
0.492171
-0.0892281
0.482701
-0.0878208
0.474679
-0.0863766
0.47003
-0.0843164
0.470308
-0.0797873
0.473845
-0.0719127
0.486087
-0.0576752
-0.0337848
0.5145
-0.0761811
0.500311
-0.0758513
0.486576
-0.0754929
0.47366
-0.0749062
0.46151
-0.0742264
0.450466
-0.0732708
0.442438
-0.0717573
0.438676
-0.068151
0.443226
-0.0622279
-0.0540813
0.514104
-0.0610724
0.499209
-0.0609568
0.484517
-0.0608006
0.470173
-0.0605635
0.45619
-0.0602425
0.442726
-0.0598063
0.430103
-0.059134
0.419845
-0.057893
0.412985
-0.0553685
-0.0519471
0.513973
-0.0458401
0.498818
-0.0458023
0.483757
-0.0457395
0.468837
-0.0456432
0.454087
-0.045493
0.439573
-0.0452914
0.425411
-0.0449715
0.411982
-0.0444646
0.400059
-0.0434457
-0.041943
0.513932
-0.0305691
0.498687
-0.0305575
0.483482
-0.0305345
0.468331
-0.0304924
0.453263
-0.030425
0.438303
-0.0303306
0.423509
-0.0301773
0.40899
-0.0299463
0.39507
-0.029525
-0.0288574
0.513919
-0.015286
0.498644
-0.0152824
0.483384
-0.0152748
0.468151
-0.0152588
0.452959
-0.0152334
0.43782
-0.0151918
0.422772
-0.0151289
0.407858
-0.0150323
0.393206
-0.0148735
-0.0146059
0.513916
0.498634
0.483359
0.4681
0.452867
0.437675
0.422546
0.407513
0.39264
)
;

boundaryField
{
    inlet
    {
        type            calculated;
        value           nonuniform List<scalar> 10(-0.529202 -0.529202 -0.529202 -0.529202 -0.529202 -0.529202 -0.529202 -0.529202 -0.529202 -0.529202);
    }
    sym
    {
        type            calculated;
        value           uniform 0;
    }
    wedge
    {
        type            calculated;
        value           nonuniform List<scalar> 10(2.1894e-17 0 0 4.14096e-17 4.65299e-17 1.18763e-16 1.18764e-16 0 0 1.06807e-16);
    }
    top
    {
        type            calculated;
        value           uniform 0;
    }
    back
    {
        type            empty;
    }
    front
    {
        type            empty;
    }
    outlet
    {
        type            calculated;
        value           nonuniform List<scalar> 10(0.823351 0.69371 0.794663 0.576726 0.463512 0.410848 0.390054 0.381984 0.378955 0.378034);
    }
}


// ************************************************************************* //
