/*--------------------------------*- C++ -*----------------------------------*\
| =========                 |                                                 |
| \\      /  F ield         | OpenFOAM: The Open Source CFD Toolbox           |
|  \\    /   O peration     | Version:  2412                                  |
|   \\  /    A nd           | Website:  www.openfoam.com                      |
|    \\/     M anipulation  |                                                 |
\*---------------------------------------------------------------------------*/
FoamFile
{
    version     2.0;
    format      ascii;
    arch        "LSB;label=32;scalar=64";
    class       volVectorField;
    location    "2.5";
    object      U;
}
// * * * * * * * * * * * * * * * * * * * * * * * * * * * * * * * * * * * * * //

dimensions      [0 1 -1 0 0 0 0];

internalField   nonuniform List<vector> 
200
(
(2.99999 6.12344e-07 0)
(2.99996 3.77999e-06 0)
(2.99989 1.25394e-05 0)
(2.99974 3.37969e-05 0)
(2.99941 8.32529e-05 0)
(2.99865 0.000196633 0)
(2.99693 0.000455506 0)
(2.99299 0.00104704 0)
(2.9838 0.00241066 0)
(2.96304 0.00560168 0)
(3 8.00438e-07 0)
(2.99999 4.94045e-06 0)
(2.99997 1.63839e-05 0)
(2.99992 4.41346e-05 0)
(2.99982 0.000108629 0)
(2.99959 0.000256288 0)
(2.99907 0.000592797 0)
(2.99791 0.0013601 0)
(2.99527 0.0031191 0)
(2.99099 0.00721128 0)
(3 2.49036e-07 0)
(3 1.53624e-06 0)
(2.99999 5.08759e-06 0)
(2.99997 1.36711e-05 0)
(2.99994 3.35236e-05 0)
(2.99987 7.86957e-05 0)
(2.99971 0.000180806 0)
(2.99935 0.000411573 0)
(2.99855 0.000930054 0)
(2.99722 0.00211251 0)
(3 7.96262e-08 0)
(3 4.90992e-07 0)
(3 1.62418e-06 0)
(2.99999 4.35481e-06 0)
(2.99998 1.06415e-05 0)
(2.99996 2.48601e-05 0)
(2.99991 5.67662e-05 0)
(2.9998 0.000128244 0)
(2.99955 0.000287157 0)
(2.99911 0.000643953 0)
(3 2.47235e-08 0)
(3 1.52448e-07 0)
(3 5.04271e-07 0)
(3 1.35198e-06 0)
(2.99999 3.30342e-06 0)
(2.99999 7.71625e-06 0)
(2.99997 1.76176e-05 0)
(2.99993 3.97833e-05 0)
(2.99985 8.91209e-05 0)
(2.99971 0.000199699 0)
(3 8.00309e-09 0)
(3 4.93488e-08 0)
(3 1.63245e-07 0)
(3 4.37708e-07 0)
(3 1.06964e-06 0)
(3 2.49898e-06 0)
(2.99999 5.70684e-06 0)
(2.99998 1.28916e-05 0)
(2.99995 2.88763e-05 0)
(2.9999 6.46611e-05 0)
(3 2.5999e-09 0)
(3 1.60319e-08 0)
(3 5.30368e-08 0)
(3 1.42226e-07 0)
(3 3.47635e-07 0)
(3 8.12401e-07 0)
(3 1.85591e-06 0)
(2.99999 4.19396e-06 0)
(2.99998 9.39926e-06 0)
(2.99997 2.10481e-05 0)
(3 8.32422e-10 0)
(3 5.13292e-09 0)
(3 1.69803e-08 0)
(3 4.55328e-08 0)
(3 1.11284e-07 0)
(3 2.60036e-07 0)
(3 5.9396e-07 0)
(3 1.34206e-06 0)
(3 3.00672e-06 0)
(2.99999 6.72769e-06 0)
(3 2.47851e-10 0)
(3 1.52823e-09 0)
(3 5.05484e-09 0)
(3 1.3551e-08 0)
(3 3.31057e-08 0)
(3 7.73154e-08 0)
(3 1.76481e-07 0)
(3 3.98445e-07 0)
(3 8.91948e-07 0)
(3 1.99326e-06 0)
(3 5.15544e-11 0)
(3 3.17852e-10 0)
(3 1.05111e-09 0)
(3 2.81663e-09 0)
(3 6.87675e-09 0)
(3 1.6046e-08 0)
(3 3.65884e-08 0)
(3 8.24986e-08 0)
(3 1.84477e-07 0)
(3 4.11739e-07 0)
(2.88955 0.026279 -1.12671e-21)
(2.81131 0.0750522 0)
(2.7188 0.140705 0)
(2.61545 0.238344 0)
(2.49189 0.352848 3.48545e-20)
(2.39002 0.499505 0)
(2.35592 0.614185 0)
(2.34935 0.683884 0)
(2.37167 0.700823 0)
(2.38878 0.699309 -2.45783e-20)
(2.97259 0.0269248 -1.32089e-20)
(2.94034 0.08109 1.23827e-20)
(2.89159 0.160125 0)
(2.81931 0.292288 0)
(2.72029 0.456931 -1.30038e-20)
(2.57856 0.705113 0)
(2.40525 0.938708 0)
(2.21531 1.10073 0)
(2.14608 1.15528 0)
(2.17099 1.09298 0)
(2.99219 0.00617096 0)
(2.98377 0.01644 -1.27902e-20)
(2.97041 0.0318873 0)
(2.95002 0.0607823 0)
(2.92328 0.100044 -3.01368e-20)
(2.87619 0.168325 1.4216e-20)
(2.79533 0.259189 0)
(2.65002 0.415455 1.64774e-20)
(2.41158 0.633635 0)
(2.27025 0.781016 2.07285e-20)
(2.99745 0.00194257 0)
(2.99459 0.00522256 0)
(2.98991 0.010801 0)
(2.98251 0.0214454 0)
(2.97224 0.0373856 1.45469e-20)
(2.95609 0.0620462 -1.58028e-20)
(2.92538 0.104521 0)
(2.86061 0.185643 -3.70787e-20)
(2.72049 0.335343 0)
(2.55174 0.642568 -3.20365e-20)
(2.99914 0.000635859 5.83302e-21)
(2.99812 0.00175745 6.00898e-21)
(2.99638 0.0037868 0)
(2.99363 0.00757355 6.40182e-21)
(2.98966 0.013581 6.62301e-21)
(2.98369 0.0228804 0)
(2.97325 0.0381188 0)
(2.95206 0.0670673 1.71044e-20)
(2.90685 0.127742 0)
(2.85954 0.26394 0)
(2.99971 0.000215548 -5.84583e-21)
(2.99934 0.000611614 -6.03004e-21)
(2.99869 0.00137636 0)
(2.99763 0.00282541 -6.45534e-21)
(2.99604 0.00521532 -6.70485e-21)
(2.99365 0.00900848 0)
(2.98979 0.0150151 0)
(2.98244 0.0256855 0)
(2.9672 0.0467291 0)
(2.95287 0.0909045 0)
(2.9999 7.31796e-05 5.84968e-21)
(2.99977 0.000212282 0)
(2.99953 0.000499672 0)
(2.99912 0.00106109 0)
(2.99849 0.00202314 6.62489e-21)
(2.99752 0.00358759 0)
(2.99596 0.00609421 0)
(2.99321 0.0102731 0)
(2.98771 0.0181352 0)
(2.98289 0.0340572 7.96191e-21)
(2.99997 2.42515e-05 -2.93014e-21)
(2.99992 7.16717e-05 3.0177e-21)
(2.99984 0.000175659 0)
(2.99968 0.000388747 3.21103e-21)
(2.99943 0.000766988 -3.33033e-21)
(2.99903 0.0014016 3.43146e-21)
(2.99838 0.00243528 3.5541e-21)
(2.99727 0.00414258 0)
(2.99512 0.00720068 3.83164e-21)
(2.99336 0.0132032 -4.18556e-21)
(2.99999 7.42634e-06 -4.40166e-21)
(2.99997 2.23167e-05 -4.53443e-21)
(2.99994 5.65678e-05 0)
(2.99988 0.000130582 -4.82627e-21)
(2.99977 0.000265742 -1.66395e-21)
(2.9996 0.000501279 -5.16035e-21)
(2.9993 0.000891246 -3.56682e-21)
(2.99879 0.00154047 0)
(2.99783 0.00266955 -3.85522e-21)
(2.9971 0.00484471 -6.01984e-21)
(2.99999 1.58548e-06 1.46963e-21)
(2.99999 4.84553e-06 1.514e-21)
(2.99997 1.25645e-05 0)
(2.99994 2.98313e-05 1.61143e-21)
(2.99988 6.20071e-05 -1.66513e-21)
(2.99978 0.000120377 1.72268e-21)
(2.99959 0.000218326 0)
(2.99927 0.000383561 0)
(2.99868 0.000667043 0)
(2.99826 0.00120863 2.00438e-21)
)
;

boundaryField
{
    inlet
    {
        type            fixedValue;
        value           uniform (3 0 0);
    }
    sym
    {
        type            slip;
    }
    wedge
    {
        type            slip;
    }
    top
    {
        type            slip;
    }
    back
    {
        type            empty;
    }
    front
    {
        type            empty;
    }
    outlet
    {
        type            inletOutlet;
        inletValue      uniform (3 0 0);
        value           nonuniform List<vector> 10((2.38878 0.699309 -2.45783e-20) (2.17099 1.09298 0) (2.27025 0.781016 2.07285e-20) (2.55174 0.642568 -3.20365e-20) (2.85954 0.26394 0) (2.95287 0.0909045 0) (2.98289 0.0340572 7.96191e-21) (2.99336 0.0132032 -4.18556e-21) (2.9971 0.00484471 -6.01984e-21) (2.99826 0.00120863 2.00438e-21));
    }
}


// ************************************************************************* //
