/*--------------------------------*- C++ -*----------------------------------*\
| =========                 |                                                 |
| \\      /  F ield         | OpenFOAM: The Open Source CFD Toolbox           |
|  \\    /   O peration     | Version:  2412                                  |
|   \\  /    A nd           | Website:  www.openfoam.com                      |
|    \\/     M anipulation  |                                                 |
\*---------------------------------------------------------------------------*/
FoamFile
{
    version     2.0;
    format      ascii;
    arch        "LSB;label=32;scalar=64";
    class       volVectorField;
    location    "2.5";
    object      U;
}
// * * * * * * * * * * * * * * * * * * * * * * * * * * * * * * * * * * * * * //

dimensions      [0 1 -1 0 0 0 0];

internalField   nonuniform List<vector> 
200
(
(-20.7555 0.600187 0)
(15.2115 1.86661 0)
(-11.3189 -1.38652 0)
(7.11897 -3.84226 0)
(-3.12928 -1.50233 0)
(2.91346 -1.81262 0)
(0.349045 -1.28195 0)
(1.19332 -0.845959 0)
(1.30097 -0.554173 0)
(1.35712 -0.292738 0)
(-15.0805 0.325445 0)
(10.2574 0.823572 0)
(-1.30454 1.49315 0)
(2.51219 -0.482334 0)
(0.350078 1.72624 0)
(0.529676 -0.0188626 0)
(-0.618444 0.874152 0)
(-0.192668 0.285694 0)
(-0.707959 -0.105679 0)
(-0.325804 -0.0196654 0)
(-14.7314 -0.35819 0)
(10.0233 -3.17537 0)
(-1.49911 -2.34188 0)
(2.34112 -0.583285 0)
(0.43805 0.774825 0)
(0.879628 1.52048 0)
(-0.251841 -0.0498393 0)
(0.592207 0.547977 0)
(-0.585356 -0.714296 0)
(0.297077 -0.48454 0)
(-14.8298 -1.73307 0)
(10.3104 -3.35184 0)
(-6.8413 2.89216 0)
(3.1482 1.52719 0)
(-3.31354 2.04225 0)
(1.42804 1.98765 0)
(-1.56182 0.995602 0)
(1.10158 0.835069 0)
(-0.7403 0.279337 0)
(0.652586 -0.338573 0)
(-11.6954 0.289042 0)
(2.76985 0.535999 0)
(-5.48131 0.464066 0)
(-0.161612 0.163213 0)
(-2.47929 -0.149996 0)
(0.450959 0.775702 0)
(-0.898648 -0.368083 0)
(0.967374 -0.139717 0)
(0.254008 -0.295681 0)
(0.719751 -0.162713 0)
(-16.7396 1.96582 0)
(12.0226 3.91539 0)
(-8.48901 -2.67526 0)
(5.37976 -1.39652 0)
(-4.48662 -1.56444 0)
(2.58742 -1.48708 0)
(-2.06228 -1.02731 0)
(1.32441 -1.31205 0)
(-0.667152 -0.6657 0)
(0.654108 -0.148798 0)
(-14.1176 1.05967 0)
(9.81652 3.39771 0)
(-0.0687074 1.79924 0)
(2.04062 0.477134 0)
(1.64844 0.334367 0)
(1.20328 -0.597365 0)
(0.787306 -0.103867 0)
(0.587804 -0.818584 0)
(0.0466718 -0.077875 0)
(-0.0408407 -0.210393 0)
(-17.2328 -0.254546 0)
(11.7205 -1.32592 0)
(-2.92209 -1.96268 0)
(3.57268 0.807804 0)
(0.987823 -0.798119 0)
(1.77175 0.0978613 0)
(1.49307 -0.00551904 0)
(1.13659 0.527594 0)
(0.785751 0.505653 0)
(0.693405 0.567865 0)
(-22.0081 0.0241921 0)
(16.9582 -1.2484 0)
(-12.7221 -0.426456 0)
(8.9636 0.833972 0)
(-4.02928 -0.779583 0)
(3.72812 1.0215 0)
(-0.962818 0.650414 0)
(1.38764 1.37812 0)
(-0.239805 0.489908 0)
(0.83988 0.608343 0)
(-19.7573 0.0631067 0)
(14.6066 0.807452 0)
(-8.65121 -1.14928 0)
(5.64391 -2.44079 0)
(-4.78927 -0.0690063 0)
(2.33869 -0.22676 0)
(-2.52301 1.22513 0)
(1.83066 1.18473 0)
(-0.586244 0.382169 0)
(1.16759 0.2955 0)
(1.39893 0.163405 -6.23233e-21)
(1.36666 0.423134 0)
(1.18775 0.501005 0)
(0.998168 0.570292 0)
(0.78246 0.466438 1.12469e-17)
(0.605589 0.393051 0)
(0.494488 0.288525 0)
(0.433149 0.212134 0)
(0.401979 0.170736 0)
(0.397501 0.15113 -6.78626e-18)
(-0.56274 -0.0669954 -5.00219e-18)
(0.078824 0.545211 5.17777e-18)
(-0.240637 0.0930466 0)
(0.338688 0.440964 0)
(0.130064 0.272667 1.82642e-22)
(0.322177 0.250962 0)
(0.3083 0.192457 0)
(0.336968 0.154232 0)
(0.352406 0.135057 0)
(0.374251 0.126269 0)
(-0.835568 -0.886686 0)
(0.402422 -0.0347807 -5.1578e-18)
(-0.0698863 -0.263304 0)
(0.262573 0.122519 0)
(0.179291 0.124548 -1.13228e-17)
(0.301681 0.205797 5.85009e-18)
(0.314159 0.148278 0)
(0.345487 0.136568 6.28717e-18)
(0.366963 0.122949 0)
(0.392184 0.113363 6.79101e-18)
(-1.08879 -0.0087579 0)
(0.577224 -0.342371 0)
(-0.471755 0.0924473 0)
(0.26864 0.117818 0)
(-0.130594 0.103318 5.68222e-18)
(0.267121 0.11576 -5.87177e-18)
(0.181071 0.09122 0)
(0.29569 0.0894639 -1.25942e-17)
(0.326021 0.0891502 0)
(0.366437 0.0906435 -6.79602e-18)
(0.509565 -0.129443 2.48103e-18)
(0.373262 -0.359735 2.56382e-18)
(-0.108466 -0.00393483 0)
(0.258801 -0.127127 2.7465e-18)
(0.111268 0.00473945 2.83625e-18)
(0.302649 -0.0265105 0)
(0.294185 0.0170717 0)
(0.348245 0.02665 6.28385e-18)
(0.372375 0.0414077 0)
(0.400228 0.0582444 0)
(-0.428186 0.367378 -2.48936e-18)
(0.0916981 0.334225 -2.58756e-18)
(-0.203233 0.134623 0)
(0.234887 -0.111445 -2.74734e-18)
(0.0569635 -0.00108902 -2.83802e-18)
(0.293969 -0.0326223 0)
(0.262055 0.00466468 0)
(0.332418 0.0248207 0)
(0.365054 0.0438117 0)
(0.400337 0.0606268 0)
(-0.29424 0.270151 2.50257e-18)
(0.338655 -0.345126 0)
(0.232481 -0.224999 0)
(0.452859 -0.258036 0)
(0.39135 -0.106395 2.82669e-18)
(0.457892 -0.110889 0)
(0.43633 -0.0651865 0)
(0.429981 -0.0400463 0)
(0.425536 -0.0133376 0)
(0.434276 0.0175353 3.38947e-18)
(0.702879 0.071099 -1.24815e-18)
(0.853298 -0.073959 1.2794e-18)
(0.78482 -0.11277 0)
(0.796006 -0.133302 1.36002e-18)
(0.778219 -0.0594198 -1.40826e-18)
(0.745493 -0.0133562 1.45558e-18)
(0.679751 0.0276227 1.50634e-18)
(0.612332 0.0487997 0)
(0.560069 0.0532224 1.623e-18)
(0.528592 0.0491188 -1.69064e-18)
(0.213818 -0.126637 -1.88076e-18)
(0.687881 -0.226663 -1.92976e-18)
(0.393223 -0.268582 0)
(0.348347 -0.170179 -2.05267e-18)
(0.257944 -0.0498978 -7.07562e-19)
(0.258147 0.0249997 -2.19628e-18)
(0.28851 0.0684619 -1.51591e-18)
(0.324793 0.0784826 0)
(0.357638 0.068001 -1.63027e-18)
(0.399671 0.0481217 -2.54457e-18)
(0.306235 0.0244563 6.23317e-19)
(0.793791 0.0862581 6.41851e-19)
(0.491004 0.112466 0)
(0.492278 0.0606997 6.83203e-19)
(0.442849 -0.0192962 -7.06084e-19)
(0.413098 -0.0731671 7.3027e-19)
(0.401645 -0.078562 0)
(0.400836 -0.0585575 0)
(0.410205 -0.035123 0)
(0.435818 -0.0149589 8.4741e-19)
)
;

boundaryField
{
    inlet
    {
        type            fixedValue;
        value           uniform (3 0 0);
    }
    sym
    {
        type            slip;
    }
    wedge
    {
        type            slip;
    }
    top
    {
        type            slip;
    }
    back
    {
        type            empty;
    }
    front
    {
        type            empty;
    }
    outlet
    {
        type            inletOutlet;
        inletValue      uniform (3 0 0);
        value           nonuniform List<vector> 10((0.397501 0.15113 -6.78626e-18) (0.374251 0.126269 0) (0.392184 0.113363 6.79101e-18) (0.366437 0.0906435 -6.79602e-18) (0.400228 0.0582444 0) (0.400337 0.0606268 0) (0.434276 0.0175353 3.38947e-18) (0.528592 0.0491188 -1.69064e-18) (0.399671 0.0481217 -2.54457e-18) (0.435818 -0.0149589 8.4741e-19));
    }
}


// ************************************************************************* //
