/*--------------------------------*- C++ -*----------------------------------*\
| =========                 |                                                 |
| \\      /  F ield         | OpenFOAM: The Open Source CFD Toolbox           |
|  \\    /   O peration     | Version:  2412                                  |
|   \\  /    A nd           | Website:  www.openfoam.com                      |
|    \\/     M anipulation  |                                                 |
\*---------------------------------------------------------------------------*/
FoamFile
{
    version     2.0;
    format      ascii;
    arch        "LSB;label=32;scalar=64";
    class       surfaceScalarField;
    location    "9.5";
    object      phi;
}
// * * * * * * * * * * * * * * * * * * * * * * * * * * * * * * * * * * * * * //

dimensions      [1 0 -1 0 0 0 0];

oriented        oriented;

internalField   nonuniform List<scalar> 
10325
(
0.00840003
1.40282e-10
0.00840003
1.09007e-09
0.00840002
3.32877e-09
0.00840001
1.00536e-08
0.00839999
2.41114e-08
0.00839992
6.1141e-08
0.00839976
1.56027e-07
0.00839943
3.01701e-07
0.00839844
9.5878e-07
0.00839686
1.41565e-06
0.00839209
4.64184e-06
0.00838069
1.05842e-05
0.00834984
3.1145e-05
0.00821757
0.000129277
0.00764243
0.000569248
0.00703984
0.000602113
0.00642872
0.000610689
0.00580042
0.000627786
0.00514334
0.000656296
0.00443692
0.000705542
0.00367152
0.000764528
0.00284779
0.000822796
0.0019668
0.000880033
0.00102343
0.000942404
0.0010225
0.00840003
2.49147e-10
0.00840003
1.93986e-09
0.00840002
5.94436e-09
0.00840002
1.79386e-08
0.0084
4.29202e-08
0.00839994
1.10077e-07
0.00839982
2.71401e-07
0.00839952
5.75712e-07
0.00839883
1.61921e-06
0.00839713
2.95292e-06
0.00839311
8.50796e-06
0.00838188
2.10219e-05
0.00834695
6.63191e-05
0.00821733
0.000255979
0.00763332
0.00114724
0.00702383
0.00121113
0.00641792
0.00121618
0.00579898
0.00124623
0.00514365
0.00131083
0.00442889
0.0014194
0.0036563
0.00153626
0.0028238
0.00165431
0.00193138
0.00177143
0.000982282
0.00189049
0.00200378
0.00840003
3.31309e-10
0.00840003
2.56992e-09
0.00840003
7.89562e-09
0.00840002
2.3763e-08
0.0084
5.66429e-08
0.00839996
1.46878e-07
0.00839988
3.48943e-07
0.00839962
8.08813e-07
0.00839921
2.02536e-06
0.0083975
4.49304e-06
0.00839423
1.1713e-05
0.00838386
3.07343e-05
0.00834562
0.00010394
0.00822269
0.000376633
0.00763393
0.00172979
0.00701554
0.00182914
0.00641763
0.00181376
0.00580312
0.00186028
0.00515286
0.00196031
0.0044438
0.00212761
0.00367278
0.00230639
0.00283728
0.00248898
0.00193779
0.00266998
0.000983277
0.00284399
0.00298605
0.00840003
3.93903e-10
0.00840003
3.0546e-09
0.00840003
9.39383e-09
0.00840002
2.82897e-08
0.00840001
6.72047e-08
0.00839997
1.76817e-07
0.00839992
4.06679e-07
0.00839967
1.02091e-06
0.00839936
2.33167e-06
0.00839756
6.12642e-06
0.00839451
1.47047e-05
0.008383
4.15731e-05
0.00834887
0.000137434
0.00822088
0.00050236
0.00762994
0.00231414
0.00700785
0.00245105
0.00642842
0.00239304
0.00581691
0.00247133
0.00517884
0.00259763
0.00448684
0.00281898
0.00372771
0.00306458
0.00289702
0.00331863
0.00198951
0.00357647
0.00101158
0.00382109
0.00399663
0.00840003
4.44423e-10
0.00840003
3.44542e-09
0.00840003
1.05766e-08
0.00840002
3.19016e-08
0.00840001
7.55249e-08
0.00839998
2.01055e-07
0.00839994
4.52853e-07
0.00839973
1.19635e-06
0.00839947
2.5979e-06
0.00839785
7.56289e-06
0.00839568
1.68575e-05
0.0083819
5.46476e-05
0.00835243
0.00016628
0.00822501
0.000627459
0.0076382
0.00289375
0.00701343
0.00307599
0.0064474
0.00295913
0.00586005
0.00305828
0.00524009
0.00321709
0.00456437
0.00349393
0.00381905
0.00380937
0.00299488
0.00414187
0.00208163
0.00448877
0.0010757
0.00482566
0.00507129
0.00840003
4.70853e-10
0.00840003
3.65002e-09
0.00840003
1.12396e-08
0.00840002
3.38813e-08
0.00840002
8.00273e-08
0.0084
2.1508e-07
0.00839998
4.73311e-07
0.00839983
1.31314e-06
0.0083997
2.73877e-06
0.00839863
8.43997e-06
0.00839755
1.79749e-05
0.00838612
6.52619e-05
0.0083744
0.000177643
0.00824761
0.000751743
0.00771728
0.00341603
0.00708624
0.00370775
0.00652162
0.00352406
0.00595006
0.00362934
0.00535114
0.00381556
0.00470033
0.00414423
0.00397333
0.00453603
0.00315466
0.00495983
0.0022238
0.00541894
0.00116782
0.00588103
0.00623813
0.00840003
5.00804e-10
0.00840003
3.88091e-09
0.00840003
1.19014e-08
0.00840002
3.5951e-08
0.00840002
8.45201e-08
0.0084
2.2983e-07
0.00839998
4.95521e-07
0.00839983
1.43648e-06
0.00839969
2.88124e-06
0.00839847
9.47555e-06
0.00839672
1.97422e-05
0.00838785
7.3351e-05
0.0083675
0.000197428
0.00828153
0.000834699
0.00788071
0.00380757
0.00723521
0.00435452
0.00665993
0.00410017
0.0060996
0.00418934
0.00552116
0.00439347
0.00489298
0.00477133
0.00418897
0.00523947
0.00338586
0.00576235
0.00245028
0.00635347
0.00133184
0.00699825
0.00756898
0.00840003
5.11367e-10
0.00840003
3.97358e-09
0.00840003
1.23629e-08
0.00840003
3.72183e-08
0.00840002
8.77423e-08
0.00840001
2.40038e-07
0.0084
5.0304e-07
0.00839985
1.5624e-06
0.00839989
2.84449e-06
0.00839839
1.07923e-05
0.0083975
2.06656e-05
0.00839055
7.94981e-05
0.00837462
0.000212703
0.00833595
0.000870487
0.00820316
0.00392961
0.00751264
0.00504711
0.00689871
0.00471505
0.0063389
0.00474919
0.00578552
0.00494697
0.00518409
0.00537245
0.0045067
0.0059162
0.00371668
0.0065518
0.00277997
0.00728977
0.00159456
0.00818322
0.00916266
0.00840003
4.54664e-10
0.00840003
4.8596e-09
0.00840003
1.37273e-08
0.00840002
4.39271e-08
0.00840001
9.78111e-08
0.00839997
2.75392e-07
0.00839989
5.82189e-07
0.00839979
1.6376e-06
0.00839936
3.27214e-06
0.00839925
1.07334e-05
0.00839977
2.01499e-05
0.00839731
8.11411e-05
0.0084058
0.000203507
0.00844424
0.000829225
0.00877134
0.00359115
0.00804903
0.00577199
0.00729771
0.00546749
0.00672694
0.00531933
0.00615602
0.00551675
0.00557556
0.00595231
0.00492891
0.0065622
0.00421585
0.00726405
0.00333546
0.00816912
0.00208628
0.00943138
0.0112481
0.00840003
4.42753e-11
0.00840003
5.35866e-09
0.00840004
6.26343e-09
0.00840003
4.54378e-08
0.00840009
4.60415e-08
0.00840007
2.84385e-07
0.0084004
2.54526e-07
0.00840019
1.82562e-06
0.00840229
1.16848e-06
0.00839941
1.34568e-05
0.00841274
6.81572e-06
0.00839642
9.66795e-05
0.0084914
0.000107673
0.00864146
0.000676926
0.0097456
0.00247409
0.00893572
0.00658495
0.00792725
0.00647855
0.0073488
0.00589931
0.00673223
0.00613344
0.00615289
0.00653144
0.00556203
0.00715269
0.00491698
0.00790875
0.00409541
0.00899027
0.00290775
0.0106184
0.0141553
0.00840003
1.00693e-09
0.00840003
1.73136e-09
0.00840002
1.56494e-08
0.00840005
1.88543e-08
0.00839998
1.08472e-07
0.00840015
1.2287e-07
0.00839974
6.5282e-07
0.00840083
7.33288e-07
0.0083979
4.04235e-06
0.00840728
4.06352e-06
0.00838465
2.918e-05
0.00845639
2.47629e-05
0.00833691
0.000226012
0.0086774
0.000336201
0.00922548
0.00191893
0.0090339
0.00677172
0.00861732
0.00689328
0.00788424
0.00663255
0.00733129
0.0066866
0.00681927
0.00704267
0.00634069
0.00763039
0.00583551
0.00841302
0.00539463
0.00943038
0.00537234
0.01064
0.0114409
0.00808595
0.00840003
5.16322e-10
0.00840003
2.88144e-09
0.00840003
9.8119e-09
0.00840003
2.78007e-08
0.00840006
7.0046e-08
0.00840001
1.78126e-07
0.00840023
4.24226e-07
0.00839988
1.07145e-06
0.0084014
2.51709e-06
0.00839877
6.59837e-06
0.00841211
1.5837e-05
0.00839198
4.43787e-05
0.00849918
0.000118529
0.00839669
0.00043705
0.00896637
0.0013449
0.00917139
0.0065578
0.00879555
0.00726697
0.00825547
0.00717089
0.00778095
0.00715981
0.00733576
0.00748686
0.00696481
0.00800022
0.00667753
0.00869905
0.00657127
0.00953564
0.00696397
0.0102467
0.0104928
0.00791224
0.00840003
4.17614e-10
0.00840003
3.23797e-09
0.00840003
9.84242e-09
0.00840003
2.98285e-08
0.00840003
7.05312e-08
0.00840001
1.89058e-07
0.00840001
4.26591e-07
0.00839996
1.11276e-06
0.00839993
2.53409e-06
0.00840004
6.42485e-06
0.00840075
1.51038e-05
0.00840341
4.1316e-05
0.00841455
0.000107182
0.00847604
0.000374079
0.00866442
0.00115334
0.00915213
0.006061
0.00889406
0.00752376
0.00853179
0.00753158
0.00817316
0.00751697
0.00784397
0.0078146
0.00755684
0.00828586
0.00742212
0.00883204
0.00754959
0.00940608
0.00798375
0.0098107
0.00987583
0.00859989
0.00840003
3.45212e-10
0.00840003
2.67289e-09
0.00840003
8.30802e-09
0.00840004
2.48908e-08
0.00840005
5.90171e-08
0.00840008
1.55589e-07
0.00840016
3.48231e-07
0.00840034
9.20367e-07
0.00840095
1.91746e-06
0.00840135
5.96276e-06
0.00840604
1.04181e-05
0.00840442
4.2564e-05
0.00843023
8.12342e-05
0.00843316
0.000369864
0.00858696
0.000997608
0.00934844
0.00528972
0.0091325
0.007739
0.00881377
0.00784925
0.00853597
0.00779257
0.00831271
0.00803618
0.00814587
0.00845112
0.00809986
0.00887655
0.0082433
0.00926067
0.00860891
0.00944283
0.0093835
0.00909867
0.00840003
3.35698e-10
0.00840003
2.5998e-09
0.00840003
7.97846e-09
0.00840003
2.40389e-08
0.00840003
5.68982e-08
0.00840004
1.51134e-07
0.00840004
3.39737e-07
0.00840007
8.86331e-07
0.00840003
1.9557e-06
0.00840066
5.27974e-06
0.0083998
1.12779e-05
0.00840616
3.5889e-05
0.00841447
7.28708e-05
0.00847686
0.000306306
0.00865942
0.000813021
0.00998932
0.00395076
0.00959259
0.00813446
0.00922112
0.00821945
0.00891388
0.00809807
0.00873786
0.00820917
0.0086552
0.00853107
0.00866927
0.00886005
0.00879748
0.00913044
0.00906136
0.00917628
0.00899131
0.00945055
0.00840003
3.05515e-10
0.00840003
2.37232e-09
0.00840003
7.28024e-09
0.00840003
2.19783e-08
0.00840004
5.20321e-08
0.00840005
1.38632e-07
0.00840008
3.12107e-07
0.00840014
8.13732e-07
0.00840028
1.81667e-06
0.00840081
4.70366e-06
0.00840116
1.09047e-05
0.00840967
2.71501e-05
0.00840977
7.25989e-05
0.0085116
0.000203374
0.00872052
0.000604045
0.0102147
0.00244954
0.0101127
0.00823058
0.00981605
0.00851412
0.00934419
0.00856823
0.00913631
0.00841488
0.0090799
0.00858409
0.00913142
0.00880456
0.0092763
0.00898192
0.00947165
0.00897748
0.00871925
0.00973928
0.00840003
2.59567e-10
0.00840003
2.01477e-09
0.00840003
6.20153e-09
0.00840003
1.8674e-08
0.00840004
4.43143e-08
0.00840006
1.17367e-07
0.00840011
2.65002e-07
0.00840024
6.80782e-07
0.0084005
1.54788e-06
0.00840132
3.84942e-06
0.0084031
9.09613e-06
0.0084073
2.2757e-05
0.00842481
5.48354e-05
0.00846499
0.000162291
0.00857832
0.000489445
0.00917504
0.00184917
0.0101258
0.00726776
0.00996875
0.0086677
0.00971221
0.00882207
0.00949353
0.00863122
0.00943072
0.00864438
0.00947302
0.0087585
0.00961824
0.00883148
0.00979806
0.00879193
0.00850803
0.0100026
0.00840003
1.97217e-10
0.00840003
1.62136e-09
0.00840003
5.01532e-09
0.00840004
1.49241e-08
0.00840004
3.55927e-08
0.00840007
9.29496e-08
0.00840012
2.10203e-07
0.00840026
5.39396e-07
0.00840062
1.18345e-06
0.00840125
3.1848e-06
0.00840378
6.57206e-06
0.00840623
2.00962e-05
0.00842012
4.09498e-05
0.00843847
0.000143008
0.00855005
0.000376976
0.0088756
0.00152046
0.0100889
0.00604302
0.0100936
0.00866058
0.00995944
0.00895361
0.00977558
0.00881243
0.00974021
0.00867525
0.0097841
0.00871023
0.00990513
0.00870509
0.0100769
0.00861318
0.00833488
0.0102428
0.00840003
6.42489e-11
0.00840003
1.65465e-09
0.00840003
2.91022e-09
0.00840003
1.43917e-08
0.00840005
2.13635e-08
0.00840005
8.86893e-08
0.00840013
1.26013e-07
0.00840016
5.13708e-07
0.00840064
6.96067e-07
0.00840073
3.06919e-06
0.00840373
3.56887e-06
0.00840322
2.04306e-05
0.00842425
1.98802e-05
0.00842216
0.000144214
0.00857629
0.000221949
0.00896543
0.00112805
0.010835
0.00416039
0.0105922
0.00890033
0.0104421
0.00910168
0.0101872
0.00906424
0.0100467
0.00881096
0.0100539
0.00869579
0.01014
0.00861136
0.0102985
0.00844466
0.0081875
0.0104371
0.00840003
1.65289e-10
0.00840003
9.39357e-10
0.00840003
3.51192e-09
0.00840004
8.93817e-09
0.00840003
2.48559e-08
0.00840006
5.63141e-08
0.00840004
1.48279e-07
0.00840023
3.27907e-07
0.00840006
8.56756e-07
0.00840123
1.89521e-06
0.0083998
4.93757e-06
0.0084088
1.14078e-05
0.00839897
2.9388e-05
0.00846713
7.58462e-05
0.00846945
0.000218198
0.00894513
0.000651785
0.0105452
0.00255248
0.01111
0.0083255
0.0109002
0.0093074
0.010621
0.00933951
0.0104074
0.00901921
0.0103548
0.00874096
0.0103888
0.00856725
0.0105096
0.00831299
0.00806237
0.010621
0.00840003
1.9949e-10
0.00840003
5.71171e-10
0.00840003
3.38206e-09
0.00840003
5.85808e-09
0.00840003
2.34078e-08
0.00840005
3.72783e-08
0.00840006
1.38355e-07
0.00840017
2.15338e-07
0.00840023
7.95735e-07
0.00840091
1.21059e-06
0.00840111
4.69359e-06
0.00840594
6.55101e-06
0.00840464
3.04299e-05
0.00844211
3.81678e-05
0.00844796
0.000211152
0.00870084
0.000397325
0.00950912
0.00173978
0.0110443
0.00677325
0.0110506
0.00929384
0.0109212
0.0094622
0.0106877
0.00924684
0.0106387
0.00878021
0.0106738
0.00852014
0.010721
0.00825389
0.00795197
0.0108162
0.00840003
7.08154e-11
0.00840003
7.91614e-10
0.00840003
1.79192e-09
0.00840003
7.13025e-09
0.00840004
1.29611e-08
0.00840003
4.46164e-08
0.00840009
7.77678e-08
0.00840005
2.60124e-07
0.00840039
4.48284e-07
0.00840008
1.50274e-06
0.00840221
2.55609e-06
0.00839972
8.94211e-06
0.00841574
1.43959e-05
0.00839526
5.8046e-05
0.00851248
9.36783e-05
0.00846053
0.000446967
0.00911303
0.00108354
0.0114389
0.00442894
0.0114261
0.00929673
0.011273
0.00960691
0.0110673
0.00944411
0.0108897
0.00894725
0.0108867
0.00851106
0.010911
0.00821332
0.00783694
0.0110062
0.00840003
9.81895e-11
0.00840003
3.75217e-10
0.00840003
1.88185e-09
0.00840003
3.70685e-09
0.00840003
1.31706e-08
0.00840005
2.35671e-08
0.00840005
7.83045e-08
0.00840018
1.37168e-07
0.00840017
4.51821e-07
0.00840089
7.75515e-07
0.00840075
2.6596e-06
0.00840545
4.22281e-06
0.00840318
1.64729e-05
0.00843759
2.35005e-05
0.00842197
0.00010835
0.00868884
0.000178863
0.00892093
0.000847829
0.0109075
0.00243179
0.0119522
0.00823662
0.0117317
0.00981786
0.0115104
0.00965405
0.0112286
0.00921591
0.0111306
0.00859316
0.0111304
0.00819258
0.00772464
0.0112181
0.00840003
3.13612e-11
0.00840003
3.96458e-10
0.00840003
8.58042e-10
0.00840003
3.54494e-09
0.00840004
6.20571e-09
0.00840004
2.19237e-08
0.00840008
3.6689e-08
0.00840009
1.25739e-07
0.00840033
2.0667e-07
0.00840038
7.21629e-07
0.0084019
1.1332e-06
0.00840168
4.36968e-06
0.00841187
6.25352e-06
0.00840642
2.85234e-05
0.00847526
3.9261e-05
0.0084487
0.000203391
0.00890738
0.000386882
0.00955345
0.00177809
0.0116319
0.00613109
0.0118665
0.0095697
0.0119121
0.0095912
0.0116945
0.00941646
0.0114767
0.00879111
0.0114413
0.00820153
0.00763811
0.0114987
0.00840003
3.94891e-11
0.00840003
2.25201e-10
0.00840003
8.39109e-10
0.00840003
2.14285e-09
0.00840003
5.9165e-09
0.00840004
1.34373e-08
0.00840004
3.49788e-08
0.00840009
7.74168e-08
0.00840009
1.99206e-07
0.00840037
4.39267e-07
0.00840035
1.12902e-06
0.0084022
2.5105e-06
0.00840168
6.62266e-06
0.00841569
1.45056e-05
0.00841051
4.34343e-05
0.00851965
9.39701e-05
0.00855958
0.000343048
0.00940744
0.000924206
0.0117584
0.00374997
0.0121738
0.00913373
0.0119659
0.00977892
0.0119331
0.00942735
0.0118217
0.00887789
0.011798
0.00819398
0.00754863
0.0118522
0.00840003
4.43552e-11
0.00840003
1.38097e-10
0.00840003
7.66774e-10
0.00840003
1.40276e-09
0.00840003
5.31457e-09
0.00840004
8.93999e-09
0.00840004
3.14217e-08
0.00840006
5.19401e-08
0.00840008
1.80166e-07
0.00840022
2.95422e-07
0.0084003
1.03212e-06
0.00840112
1.66189e-06
0.00840156
6.07024e-06
0.00840686
9.06879e-06
0.00841157
3.80459e-05
0.00845027
5.43264e-05
0.00853095
0.000258572
0.00892018
0.000535576
0.0105193
0.00213366
0.0121286
0.00748742
0.012093
0.00978855
0.0120589
0.00943785
0.0121157
0.00879278
0.0121694
0.00810559
0.00740237
0.0122774
0.00840003
1.49405e-11
0.00840003
1.60644e-10
0.00840003
3.72855e-10
0.00840003
1.44874e-09
0.00840003
2.6884e-09
0.00840003
9.01778e-09
0.00840005
1.60354e-08
0.00840005
5.20871e-08
0.00840013
9.16964e-08
0.00840013
2.96602e-07
0.00840064
5.19027e-07
0.00840057
1.70106e-06
0.0084037
2.90078e-06
0.0084023
1.02194e-05
0.00842441
1.60022e-05
0.00840997
6.70416e-05
0.00856147
0.000106791
0.00858812
0.000502991
0.00942374
0.00128597
0.0120762
0.00478923
0.0123276
0.00949727
0.0122897
0.00943114
0.0123473
0.00869456
0.012513
0.00790311
0.00714991
0.012725
0.00840003
1.98606e-11
0.00840003
6.86772e-11
0.00840003
3.62245e-10
0.00840003
6.87843e-10
0.00840003
2.52075e-09
0.00840004
4.36496e-09
0.00840004
1.48678e-08
0.00840006
2.52442e-08
0.00840007
8.47519e-08
0.00840022
1.42733e-07
0.00840024
4.81078e-07
0.00840113
7.98064e-07
0.00840115
2.7909e-06
0.00840692
4.3424e-06
0.00840514
1.7228e-05
0.00844785
2.37152e-05
0.00843778
0.000114047
0.0087545
0.000181602
0.0091637
0.000864078
0.0114362
0.00247886
0.0125429
0.00832948
0.0126484
0.00926161
0.012734
0.00856092
0.0129243
0.00766814
0.00689901
0.0131443
0.00840003
8.43021e-12
0.00840003
5.98254e-11
0.00840003
1.86243e-10
0.00840003
5.56985e-10
0.00840003
1.32096e-09
0.00840003
3.46068e-09
0.00840004
7.76332e-09
0.00840004
1.97334e-08
0.00840008
4.36197e-08
0.00840011
1.10377e-07
0.00840034
2.42425e-07
0.00840047
6.25808e-07
0.0084019
1.32609e-06
0.00840226
3.73968e-06
0.0084118
7.40932e-06
0.00841088
2.32544e-05
0.00847523
4.789e-05
0.00848565
0.000163915
0.00890508
0.000434594
0.00960729
0.00174476
0.0119302
0.00589858
0.0126097
0.00851537
0.0129489
0.00818159
0.0132317
0.00734664
0.00666362
0.0134351
0.00840003
1.99159e-12
0.00840003
5.3127e-11
0.00840003
9.26728e-11
0.00840003
4.6079e-10
0.00840003
6.79301e-10
0.00840003
2.81717e-09
0.00840004
3.98992e-09
0.00840004
1.59978e-08
0.00840006
2.21819e-08
0.00840007
8.93143e-08
0.00840019
1.2066e-07
0.00840029
4.99021e-07
0.00840094
6.36241e-07
0.00840161
2.89254e-06
0.00840564
3.07914e-06
0.00840853
1.88499e-05
0.00844033
1.51793e-05
0.00846481
0.000131198
0.008721
0.000166555
0.00952321
0.000906934
0.0120923
0.00318324
0.0126557
0.00784783
0.0131438
0.00768873
0.0134022
0.00707438
0.0064496
0.0136265
0.00840003
4.59509e-12
0.00840003
2.61115e-11
0.00840003
9.75175e-11
0.00840003
2.484e-10
0.00840003
6.88046e-10
0.00840003
1.56039e-09
0.00840003
4.07966e-09
0.00840004
9.03534e-09
0.00840003
2.33383e-08
0.00840007
5.15247e-08
0.00840004
1.32494e-07
0.00840023
2.93434e-07
0.00840004
7.41012e-07
0.00840111
1.72475e-06
0.00839978
3.88602e-06
0.00840768
1.03162e-05
0.0083997
2.01049e-05
0.00846829
5.87533e-05
0.00847321
0.000147012
0.00892487
0.000439773
0.0102553
0.0017622
0.0117023
0.00623088
0.0125955
0.00677217
0.0131537
0.00650691
0.00611221
0.0135113
0.00840003
5.36442e-12
0.00840003
1.13626e-11
0.00840003
8.51014e-11
0.00840003
1.21031e-10
0.00840003
5.85193e-10
0.00840003
7.75762e-10
0.00840003
3.45389e-09
0.00840004
4.49344e-09
0.00840004
1.98151e-08
0.00840006
2.53161e-08
0.00840006
1.13668e-07
0.0084002
1.37345e-07
0.00840018
6.74794e-07
0.00840114
6.61102e-07
0.00840021
4.25613e-06
0.00840714
2.77875e-06
0.00839707
2.69978e-05
0.00843588
1.48724e-05
0.00839357
0.000175038
0.00860859
0.000200042
0.00908508
0.00121437
0.0103589
0.00471886
0.0114361
0.0056886
0.012339
0.00561659
0.005598
0.012882
0.00840003
5.25372e-13
0.00840003
1.68058e-11
0.00840003
2.27587e-11
0.00840003
1.44323e-10
0.00840003
1.67485e-10
0.00840003
8.8344e-10
0.00840003
9.78809e-10
0.00840003
5.03236e-09
0.00840005
5.37119e-09
0.00840004
2.83352e-08
0.00840012
2.85508e-08
0.00840005
1.65294e-07
0.00840054
1.37818e-07
0.00839986
1.08976e-06
0.00840321
5.84783e-07
0.00839694
7.62834e-06
0.00841938
2.8089e-06
0.0083747
5.18949e-05
0.00851505
2.36033e-05
0.00831092
0.000372167
0.00881314
0.000622463
0.00942321
0.0038354
0.0104092
0.00473588
0.0113987
0.00466712
0.00497767
0.012051
0.00840003
6.33589e-13
0.00840003
6.9542e-12
0.00840003
2.1095e-11
0.00840003
6.39592e-11
0.00840003
1.5123e-10
0.00840003
3.9552e-10
0.00840003
8.82479e-10
0.00840003
2.24417e-09
0.00840003
4.90496e-09
0.00840004
1.24916e-08
0.00840003
2.72726e-08
0.00840011
7.04385e-08
0.0084
1.60943e-07
0.0084006
4.18284e-07
0.00839962
1.00793e-06
0.00840382
2.95209e-06
0.00839687
6.33701e-06
0.00842313
2.16622e-05
0.0083779
5.09695e-05
0.00854426
0.000180184
0.00836618
0.000704734
0.00872518
0.00316179
0.00951826
0.00403207
0.0103233
0.00393037
0.00421533
0.0111178
0.00840003
1.35707e-12
0.00840003
5.08984e-12
0.00840003
2.2877e-11
0.00840003
5.00908e-11
0.00840003
1.59426e-10
0.00840003
3.1836e-10
0.00840003
9.63514e-10
0.00840003
1.85946e-09
0.00840003
5.67608e-09
0.00840003
1.07022e-08
0.00840001
3.32996e-08
0.0084
6.14498e-08
0.0083999
1.92021e-07
0.00839987
3.51908e-07
0.00839927
1.0731e-06
0.00839994
1.93557e-06
0.00839526
7.28224e-06
0.00840287
1.12156e-05
0.00837677
5.81474e-05
0.00839731
0.000132072
0.00842856
0.000580724
0.00858422
0.00264502
0.00918128
0.00356805
0.00975727
0.00344825
0.00358902
0.0104377
0.00840003
2.30019e-12
0.00840003
-9.6916e-13
0.00840003
2.53591e-11
0.00840003
2.18023e-12
0.00840003
1.67447e-10
0.00840003
2.00489e-11
0.00840003
9.63748e-10
0.00840003
6.09184e-11
0.00840003
5.3652e-09
0.00840004
-2.32045e-10
0.00840003
2.97244e-08
0.00840009
-5.9614e-09
0.00840004
1.74808e-07
0.00840039
-9.42442e-08
0.00839966
1.27912e-06
0.00840258
-1.38974e-06
0.00839503
1.15315e-05
0.0084129
-1.06533e-05
0.00836366
8.84836e-05
0.00844613
2.09711e-05
0.0084183
0.000515004
0.00879421
0.00189041
0.00931189
0.00319464
0.00963545
0.00322651
0.00319774
0.0100771
0.00840003
5.44687e-13
0.00840003
3.96465e-12
0.00840003
1.21644e-11
0.00840003
3.67034e-11
0.00840003
8.63749e-11
0.00840003
2.29929e-10
0.00840003
5.14416e-10
0.00840003
1.33433e-09
0.00840003
2.95481e-09
0.00840002
7.62655e-09
0.00840003
1.68291e-08
0.00839995
4.35236e-08
0.0084
9.54464e-08
0.00839951
2.50593e-07
0.00840006
5.41233e-07
0.0083961
1.518e-06
0.00840397
3.07944e-06
0.00837517
1.05597e-05
0.00843316
2.28224e-05
0.00832307
9.5134e-05
0.00847792
0.000261879
0.00867304
0.00138725
0.00899802
0.00290467
0.00927385
0.00297671
0.00285276
0.00963192
0.00840003
-2.59353e-13
0.00840003
8.5013e-12
0.00840003
5.69447e-12
0.00840003
6.97372e-11
0.00840003
4.57844e-11
0.00840003
4.34368e-10
0.00840003
2.89549e-10
0.00840003
2.57966e-09
0.00840003
1.74986e-09
0.00840002
1.52657e-08
0.00840002
1.03578e-08
0.00839995
9.11871e-08
0.00839996
5.49338e-08
0.0083995
5.73168e-07
0.00839967
2.08331e-07
0.00839657
3.74343e-06
0.00839884
-1.86662e-07
0.0083797
2.44999e-05
0.00839909
-3.79058e-06
0.00831962
0.000149844
0.00840518
0.000137197
0.00858536
0.00103281
0.00863377
0.00272694
0.0088734
0.00271871
0.00252413
0.00924467
0.00840003
1.35022e-12
0.00840003
-4.87622e-13
0.00840003
1.57329e-11
0.00840003
2.21079e-12
0.00840003
1.03647e-10
0.00840003
1.37386e-11
0.00840003
5.86047e-10
0.00840003
1.36186e-11
0.00840003
3.17493e-09
0.00840004
-4.97316e-10
0.00840003
1.70293e-08
0.00840012
-7.18905e-09
0.00840002
9.94104e-08
0.00840063
-8.81733e-08
0.00839981
7.37817e-07
0.0084042
-9.5515e-07
0.00839599
6.35247e-06
0.00842529
-7.23673e-06
0.00836674
4.67721e-05
0.00850715
-1.049e-05
0.00839399
0.000224635
0.0087134
0.000534849
0.00890815
0.00237264
0.00892896
0.00269974
0.00230449
0.00921974
0.00840003
3.70105e-13
0.00840003
2.54007e-12
0.00840003
7.87495e-12
0.00840003
2.29669e-11
0.00840003
5.48775e-11
0.00840003
1.4283e-10
0.00840003
3.2433e-10
0.00840003
8.2381e-10
0.00840003
1.85614e-09
0.00840002
4.65464e-09
0.00840002
1.05477e-08
0.00839996
2.57931e-08
0.00839997
6.05339e-08
0.00839962
1.34455e-07
0.00839987
3.62438e-07
0.00839764
7.4222e-07
0.00840099
2.11443e-06
0.00838564
4.97278e-06
0.00841463
1.26109e-05
0.00834489
4.33326e-05
0.00843621
0.000112018
0.00832502
0.000533638
0.00850312
0.00205048
0.00875301
0.0024317
0.00204903
0.00908406
0.00840003
-6.08944e-13
0.00840003
5.35268e-12
0.00840003
3.4897e-13
0.00840003
4.25855e-11
0.00840003
8.27298e-12
0.00840003
2.63851e-10
0.00840003
6.22103e-11
0.00840003
1.57976e-09
0.00840003
4.45244e-10
0.00840002
9.57533e-09
0.00840002
3.2777e-09
0.00839995
5.89587e-08
0.00839996
2.31082e-08
0.00839953
3.72453e-07
0.00839968
9.99124e-08
0.00839722
2.56089e-06
0.00839814
-7.01676e-07
0.0083827
1.8293e-05
0.00839524
-8.73184e-06
0.00831156
0.000113625
0.00836341
4.71523e-05
0.00820581
0.000616893
0.0082504
0.00186544
0.00852437
0.00211211
0.00171
0.00891268
0.00840003
7.16885e-13
0.00840003
1.93324e-13
0.00840003
1.02279e-11
0.00840003
4.75421e-12
0.00840003
6.8894e-11
0.00840003
3.25664e-11
0.00840003
4.08659e-10
0.00840003
1.94714e-10
0.00840003
2.3923e-09
0.00840003
1.14247e-09
0.00840002
1.41925e-08
0.00840006
6.16617e-09
0.00839996
9.03953e-08
0.00840028
1.01778e-08
0.00839951
6.73789e-07
0.00840226
-3.11863e-07
0.00839561
4.79704e-06
0.00841588
-2.69462e-06
0.00837256
3.0357e-05
0.00847724
-2.09106e-06
0.00835174
0.00016247
0.00860755
0.000276676
0.00877299
0.00158838
0.00902603
0.00179874
0.00160237
0.00918704
0.00840003
-9.54269e-13
0.00840003
2.379e-12
0.00840003
-8.14035e-12
0.00840003
1.62866e-11
0.00840003
-5.16245e-11
0.00840003
9.45712e-11
0.00840003
-3.10422e-10
0.00840003
5.28303e-10
0.00840003
-1.87158e-09
0.00840003
2.95263e-09
0.00840005
-1.13536e-08
0.00840002
1.77525e-08
0.00840016
-7.06545e-08
0.00839994
1.32306e-07
0.00840092
-4.73448e-07
0.00839879
1.28441e-06
0.00840606
-3.19723e-06
0.00838719
1.31433e-05
0.00843521
-2.03321e-05
0.00832725
9.33357e-05
0.00850047
-3.95433e-06
0.00824404
0.000472133
0.00828869
0.00143427
0.00867824
0.00138313
0.00131236
0.00899681
0.00840003
8.0767e-14
0.00840003
4.11415e-13
0.00840003
1.48731e-12
0.00840003
3.79041e-12
0.00840003
1.07457e-11
0.00840003
2.53728e-11
0.00840003
6.77335e-11
0.00840003
1.5806e-10
0.00840003
4.09684e-10
0.00840003
9.60786e-10
0.00840001
2.47814e-09
0.00840001
6.12615e-09
0.0083999
1.46749e-08
0.00839996
4.34997e-08
0.00839921
9.40159e-08
0.00840001
2.95287e-07
0.00839495
8.64287e-07
0.00840464
2.12186e-06
0.00837382
6.85437e-06
0.00843969
1.82308e-05
0.00835631
6.99689e-05
0.00854627
0.000231194
0.00876548
0.00110102
0.00900093
0.00114795
0.0011329
0.00918276
0.00840003
1.40948e-12
0.00840003
-3.05183e-12
0.00840003
1.24975e-11
0.00840003
-1.87401e-11
0.00840003
8.21624e-11
0.00840003
-1.02128e-10
0.00840003
4.99145e-10
0.00840003
-5.45374e-10
0.00840003
3.00899e-09
0.00840003
-2.8989e-09
0.00840001
1.82958e-08
0.00840002
-1.57977e-08
0.0083999
1.12943e-07
0.00840002
-1.03325e-07
0.00839923
7.77307e-07
0.00840046
-1.11379e-06
0.00839423
6.34697e-06
0.00840868
-1.27847e-05
0.00836526
4.65567e-05
0.00845699
-7.75563e-05
0.00832643
0.00018549
0.00851385
4.62853e-06
0.00882796
0.000683301
0.00905068
0.000924068
0.000990933
0.0091768
0.00840003
3.31417e-13
0.00840003
-4.76663e-13
0.00840003
3.03803e-12
0.00840003
-2.12718e-12
0.00840003
2.07443e-11
0.00840003
-9.22459e-12
0.00840003
1.27451e-10
0.00840003
-4.08281e-11
0.00840003
7.68592e-10
0.00840003
-1.73894e-10
0.00840004
4.6478e-09
0.00840001
-5.97426e-10
0.00840008
2.84204e-08
0.00839992
-2.45797e-09
0.00840045
1.84952e-07
0.00839911
-8.16668e-08
0.00840367
1.46262e-06
0.00839112
-1.80832e-06
0.00842491
1.07666e-05
0.00835224
-1.20052e-05
0.00847969
5.29951e-05
0.00836608
8.69235e-05
0.00840065
0.000564984
0.00863976
0.000681954
0.000746049
0.00887613
0.00840003
-1.32739e-13
0.00840003
1.95254e-12
0.00840003
2.0999e-12
0.00840003
1.60389e-11
0.00840003
1.7143e-11
0.00840003
9.77974e-11
0.00840003
1.02828e-10
0.00840003
5.66631e-10
0.00840003
5.76989e-10
0.00840002
3.23656e-09
0.00840002
3.06128e-09
0.00839999
1.82027e-08
0.0084
1.34387e-08
0.00839984
1.0068e-07
0.00839994
2.18831e-08
0.00839896
6.11815e-07
0.00840063
-5.34346e-07
0.00839299
4.42796e-06
0.00840659
-5.0046e-06
0.0083611
2.80364e-05
0.00840442
1.74973e-06
0.0083262
0.000139918
0.00830289
0.000510581
0.00845811
0.000523529
0.000498401
0.00869651
0.00840003
-6.86069e-13
0.00840003
3.75195e-12
0.00840003
-2.53794e-12
0.00840003
2.79853e-11
0.00840003
-1.37823e-11
0.00840003
1.66997e-10
0.00840003
-8.26454e-11
0.00840003
9.56635e-10
0.00840003
-5.17246e-10
0.00840003
5.45288e-09
0.00840003
-3.45399e-09
0.00840001
3.12792e-08
0.00840004
-2.7142e-08
0.00839989
1.95085e-07
0.00840015
-2.91705e-07
0.00839896
1.5333e-06
0.00840147
-3.33096e-06
0.00839217
1.23784e-05
0.00841065
-2.52945e-05
0.00835572
7.79197e-05
0.00841338
-6.30362e-05
0.008286
0.00024418
0.00824296
0.00048408
0.00843344
0.000329021
0.000264957
0.00865679
0.00840003
8.41944e-13
0.00840003
-2.55098e-12
0.00840003
6.80286e-12
0.00840003
-1.68816e-11
0.00840003
4.38948e-11
0.00840003
-9.71813e-11
0.00840003
2.63219e-10
0.00840003
-5.49052e-10
0.00840003
1.57348e-09
0.00840004
-3.10833e-09
0.00840002
9.57472e-09
0.00840006
-1.7899e-08
0.00839994
6.14824e-08
0.00840024
-1.22252e-07
0.00839934
4.87605e-07
0.0084018
-1.17429e-06
0.00839359
4.31614e-06
0.00841539
-1.03467e-05
0.00835643
3.051e-05
0.00849865
-6.6457e-05
0.00831469
0.000109462
0.00865358
-0.000114569
0.00900503
6.21169e-05
0.00913418
0.000175296
0.000218814
0.00914314
0.00840003
0.00840003
0.00840003
0.00840003
0.00840003
0.00840003
0.00840003
0.00840003
0.00840003
0.00840003
0.00840003
0.00840001
0.00840006
0.00839988
0.00840032
0.00839887
0.00840292
0.00839125
0.00842013
0.00834887
0.00845146
0.0083159
0.00831623
0.00848403
0.00868823
0.00374168
0.00434484
0.00143039
0.00231597
-0.000672196
0.00210911
-0.00155495
0.000885382
-0.00215947
0.00060763
-0.00247587
0.000319846
-0.00257418
0.000101045
-0.00265998
8.67562e-05
-0.00276744
0.000106735
-0.00285419
8.5396e-05
-0.00291011
5.29596e-05
-0.0029378
2.4165e-05
-0.00294445
2.43255e-06
-0.00293711
-1.17054e-05
-0.00291612
-2.53891e-05
-0.00287865
-4.15233e-05
-0.00282289
-5.92655e-05
-0.00274985
-7.62895e-05
-0.00266311
-8.93735e-05
-0.00256437
-0.000101161
-0.00245388
-0.000112985
-0.00233233
-0.00012416
-0.00219924
-0.000135485
-0.00205539
-0.000146539
-0.00190011
-0.000157791
-0.00173486
-0.000168163
-0.00155652
-0.000181603
-0.00137068
-0.000188932
-0.00117863
-0.000194636
-0.000982117
-0.000198887
-0.000780991
-0.000203271
-0.000576458
-0.000206598
-0.000368459
-0.000209739
-0.000155084
-0.000214641
6.81234e-05
-0.000224324
0.000287755
-0.00022037
0.000498076
-0.000210858
0.000704047
-0.000206231
0.000904732
-0.000200291
0.00110158
-0.000196131
0.00129164
-0.000189395
0.00147507
-0.000182657
0.00165277
-0.000177082
0.00182864
-0.000175008
0.00200345
-0.000173445
0.00217318
-0.000168012
0.00233566
-0.000161021
0.00249196
-0.000154696
0.00264241
-0.000148613
0.002787
-0.000142821
0.00292611
-0.000136894
0.00305953
-0.000131314
0.00318701
-0.00012547
0.00330936
-0.00012001
0.00342613
-0.000114405
0.00353806
-0.000109085