/*--------------------------------*- C++ -*----------------------------------*\
| =========                 |                                                 |
| \\      /  F ield         | OpenFOAM: The Open Source CFD Toolbox           |
|  \\    /   O peration     | Version:  2412                                  |
|   \\  /    A nd           | Website:  www.openfoam.com                      |
|    \\/     M anipulation  |                                                 |
\*---------------------------------------------------------------------------*/
FoamFile
{
    version     2.0;
    format      ascii;
    arch        "LSB;label=32;scalar=64";
    class       volScalarField;
    location    "9.5";
    object      T;
}
// * * * * * * * * * * * * * * * * * * * * * * * * * * * * * * * * * * * * * //

dimensions      [0 0 0 1 0 0 0];

internalField   nonuniform List<scalar> 
5250
(
1.00001
1.00003
1.00009
1.00016
1.00053
1.00096
1.00298
1.00581
1.0159
1.03858
1.09014
1.26315
1.68567
2.47198
2.72315
2.72429
2.72435
2.73011
2.74355
2.75773
2.76999
2.77831
2.78551
2.79064
2.79473
1.00001
1.00002
1.00009
1.00016
1.00052
1.00095
1.0029
1.00574
1.01547
1.03844
1.08866
1.26181
1.6735
2.46678
2.72094
2.72434
2.72428
2.72988
2.74306
2.75691
2.76896
2.77695
2.78415
2.78818
2.79168
1.00001
1.00002
1.00009
1.00016
1.0005
1.00092
1.00276
1.00561
1.0148
1.0379
1.08604
1.25815
1.65059
2.45297
2.71494
2.72368
2.72351
2.7288
2.74173
2.75494
2.76692
2.77452
2.78164
2.7859
2.78801
1.00001
1.00002
1.00008
1.00015
1.00048
1.00088
1.00261
1.0054
1.01402
1.03676
1.08268
1.25174
1.62025
2.42762
2.70418
2.72183
2.72139
2.72593
2.73892
2.75086
2.7627
2.76952
2.77531
2.77936
2.78334
1.00001
1.00002
1.00008
1.00014
1.00045
1.00083
1.00244
1.00512
1.01314
1.03497
1.07815
1.24213
1.58021
2.3898
2.68863
2.71943
2.71848
2.72125
2.734
2.74476
2.75676
2.7643
2.76996
2.77264
2.77306
1.00001
1.00002
1.00007
1.00013
1.00042
1.00077
1.00226
1.00478
1.01217
1.03263
1.07248
1.2276
1.52809
2.33448
2.66607
2.71593
2.71445
2.71485
2.72686
2.73662
2.74573
2.75198
2.75737
2.76202
2.76386
1.00001
1.00002
1.00007
1.00012
1.00038
1.00071
1.00208
1.0044
1.01121
1.02993
1.06675
1.20809
1.47886
2.26379
2.6353
2.71198
2.70917
2.70763
2.71848
2.72843
2.73755
2.74306
2.74582
2.7456
2.74387
1.00001
1.00002
1.00006
1.00011
1.00035
1.00064
1.0019
1.00395
1.01021
1.02671
1.06032
1.18495
1.42451
2.1645
2.5949
2.70478
2.70177
2.69629
2.70676
2.71363
2.72025
2.72338
2.72742
2.72692
2.72238
1.00001
1.00002
1.00005
1.0001
1.00032
1.00057
1.00176
1.00347
1.00935
1.02287
1.05332
1.159
1.36439
2.03048
2.54251
2.69326
2.68994
2.68213
2.69406
2.70107
2.70761
2.70677
2.70274
2.69367
2.67324
1.00001
1.00001
1.00005
1.00008
1.00026
1.00049
1.00145
1.00297
1.00774
1.0195
1.04492
1.13291
1.30012
1.86036
2.46628
2.67114
2.66945
2.66102
2.6713
2.67413
2.67998
2.6818
2.67339
2.65117
2.60063
1
1.00002
1.00003
1.0001
1.00019
1.00057
1.00108
1.00322
1.00648
1.01752
1.04235
1.10134
1.27837
1.80573
2.40498
2.64319
2.64207
2.64645
2.65717
2.65869
2.65543
2.64817
2.62919
2.5823
2.42452
1
1.00001
1.00004
1.00007
1.00021
1.00038
1.00118
1.00223
1.00642
1.01376
1.03524
1.09496
1.21709
1.62361
2.42502
2.6015
2.60563
2.61413
2.6214
2.63613
2.63437
2.61937
2.58424
2.52727
2.37137
1
1.00001
1.00003
1.00006
1.00018
1.00033
1.00105
1.00191
1.00583
1.01154
1.03125
1.07871
1.18241
1.53307
2.32515
2.56907
2.6055
2.5959
2.59599
2.60236
2.60342
2.59031
2.54832
2.49337
2.37369
1
1.00001
1.00003
1.00005
1.00015
1.00027
1.00086
1.00159
1.00465
1.00973
1.02497
1.06689
1.14787
1.45628
2.16307
2.50951
2.60273
2.58979
2.57616
2.5693
2.56594
2.55515
2.52293
2.47627
2.3786
1
1.00001
1.00002
1.00004
1.00013
1.00023
1.00073
1.00133
1.00413
1.00788
1.02226
1.05131
1.12403
1.34865
1.96447
2.42092
2.58792
2.5768
2.56751
2.54833
2.53305
2.51872
2.48873
2.45741
2.38708
1
1.00001
1.00002
1.00003
1.0001
1.00019
1.0006
1.00108
1.00335
1.00632
1.01836
1.03925
1.10309
1.25625
1.77247
2.31267
2.54954
2.54834
2.54436
2.53347
2.51254
2.49449
2.45702
2.42348
2.38079
1
1
1.00001
1.00003
1.00008
1.00015
1.00047
1.00085
1.00263
1.00501
1.01394
1.03221
1.07666
1.21786
1.54413
2.24579
2.51579
2.52826
2.51782
2.51096
2.49283
2.47767
2.44695
2.40403
2.36816
1
1
1.00001
1.00002
1.00006
1.00012
1.00036
1.00066
1.00199
1.00396
1.01052
1.02583
1.05969
1.17768
1.40575
2.06605
2.44809
2.51767
2.50126
2.49341
2.47446
2.4527
2.43163
2.39139
2.35288
1
1
1.00001
1.00002
1.00005
1.00009
1.00028
1.00051
1.00156
1.00303
1.00821
1.01941
1.04601
1.13308
1.30046
1.82786
2.31793
2.48958
2.48724
2.4795
2.46532
2.43986
2.42034
2.38948
2.34855
1
1
1
1.00002
1.00003
1.00009
1.00017
1.00052
1.00097
1.0029
1.00569
1.01591
1.03523
1.09081
1.22452
1.66896
2.18879
2.44178
2.45792
2.45146
2.4432
2.42363
2.40498
2.38641
2.35217
1
1
1
1.00001
1.00002
1.00007
1.00013
1.00039
1.00072
1.00218
1.00421
1.01157
1.02675
1.06389
1.17808
1.44349
2.02977
2.3753
2.4433
2.43986
2.42961
2.41495
2.39119
2.37623
2.35601
1
1
1
1.00001
1.00002
1.00004
1.00012
1.00023
1.00069
1.0013
1.00383
1.00776
1.02064
1.05071
1.11961
1.32932
1.91485
2.23366
2.38769
2.41617
2.41538
2.40909
2.39177
2.37513
2.36482
1
1
1
1.00001
1.00001
1.00004
1.00007
1.0002
1.00038
1.00113
1.0022
1.00609
1.01351
1.03349
1.09046
1.20565
1.55957
2.2011
2.34713
2.36604
2.38186
2.38683
2.38636
2.38019
2.37735
1
1
1
1
1.00001
1.00002
1.00006
1.00011
1.00034
1.00065
1.00178
1.00396
1.00965
1.02584
1.05739
1.17026
1.39254
1.97463
2.31254
2.37068
2.36838
2.36979
2.37298
2.38026
2.38807
1
1
1
1
1.00001
1.00002
1.00004
1.00011
1.0002
1.00062
1.00115
1.00342
1.00681
1.01823
1.04387
1.10286
1.28262
1.74645
2.20472
2.36426
2.37024
2.37096
2.37585
2.38483
2.39585
1
1
1
1
1
1.00001
1.00003
1.00008
1.00015
1.00045
1.00083
1.00252
1.0048
1.0138
1.02922
1.07667
1.18482
1.53964
2.01861
2.32231
2.38203
2.38971
2.39166
2.39714
2.40741
1
1
1
1
1
1.00001
1.00002
1.00004
1.00013
1.00024
1.00073
1.00139
1.00396
1.00839
1.02134
1.05552
1.12521
1.35677
1.92873
2.2083
2.36109
2.40503
2.42323
2.42595
2.43136
1
1
1
1
1
1.00001
1.00001
1.00004
1.00007
1.00022
1.00041
1.00121
1.00235
1.00653
1.01431
1.0357
1.09361
1.22109
1.56705
2.1919
2.36276
2.42567
2.44498
2.45202
2.4542
1
1
1
1
1
1
1.00001
1.00002
1.00007
1.00012
1.00037
1.0007
1.00199
1.00421
1.01065
1.02745
1.06225
1.18233
1.42149
2.04159
2.38545
2.48184
2.4844
2.48157
2.47231
1
1
1
1
1
1
1.00001
1.00002
1.00005
1.00009
1.00029
1.00052
1.00161
1.00307
1.00849
1.01931
1.0465
1.13222
1.2972
1.79506
2.31969
2.5392
2.53691
2.52106
2.49812
1
1
1
1
1
1
1.00001
1.00002
1.00003
1.0001
1.00018
1.00055
1.00103
1.00312
1.0061
1.01712
1.03881
1.09714
1.25521
1.73064
2.31511
2.57736
2.58754
2.55773
2.52705
1
1
1
1
1
1
1
1.00001
1.00002
1.00008
1.00014
1.00043
1.00082
1.00234
1.00512
1.01284
1.03468
1.07756
1.2338
1.58931
2.31255
2.61594
2.64949
2.60515
2.56774
1
1
1
1
1
1
1
1.00001
1.00003
1.00005
1.00015
1.00029
1.00079
1.0018
1.00445
1.01189
1.02727
1.08084
1.17215
1.55364
2.341
2.63167
2.68821
2.6365
2.5875
1
1
1
1
1
1
1
1.00001
1.00002
1.00006
1.00011
1.00032
1.00063
1.00172
1.00404
1.00971
1.02742
1.05962
1.19118
1.43818
2.1889
2.66988
2.73832
2.68608
2.62564
1
1
1
1
1
1
1
1.00001
1.00002
1.00005
1.0001
1.00031
1.00057
1.00176
1.00353
1.00945
1.0239
1.05549
1.16975
1.39518
2.07953
2.66099
2.75391
2.71335
2.64845
1
1
1
1
1
1
1
1.00001
1.00002
1.00005
1.00009
1.00027
1.00051
1.00146
1.00324
1.00804
1.02206
1.04947
1.15367
1.35363
1.98412
2.64307
2.75759
2.72268
2.66276
1
1
1
1
1
1
1
1.00001
1.00002
1.00004
1.00011
1.00021
1.00066
1.00124
1.00377
1.00761
1.02061
1.05166
1.1221
1.35419
2.00228
2.6026
2.7499
2.72415
2.67973
1
1
1
1
1
1
1
1.00001
1.00002
1.00003
1.00011
1.0002
1.00063
1.00116
1.00358
1.00709
1.01976
1.04729
1.11563
1.32434
1.95371
2.55595
2.75597
2.73476
2.68905
1
1
1
1
1
1
1
1.00001
1.00001
1.00004
1.00007
1.00022
1.00043
1.00117
1.00272
1.0066
1.01823
1.04068
1.12403
1.28011
1.76429
2.60124
2.7696
2.74461
2.69226
1
1
1
1
1
1
1
1.00001
1.00002
1.00003
1.0001
1.00018
1.00057
1.00107
1.00329
1.0065
1.018
1.04358
1.10465
1.29614
1.84335
2.53127
2.76264
2.73953
2.69811
1
1
1
1
1
1
1
1
1.00002
1.00003
1.00009
1.00017
1.00054
1.001
1.00309
1.00616
1.01718
1.04165
1.10105
1.28447
1.82391
2.51035
2.75194
2.72893
2.70556
1
1
1
1
1
1
1
1.00001
1.00001
1.00004
1.00007
1.00021
1.0004
1.00116
1.00244
1.00633
1.01602
1.0375
1.10982
1.24776
1.70219
2.5615
2.74626
2.72417
2.7081
1
1
1
1
1
1
1
1
1.00001
1.00003
1.00008
1.00015
1.00046
1.00094
1.0025
1.00609
1.01452
1.04112
1.08955
1.27661
1.72717
2.48732
2.74434
2.72982
2.7135
1
1
1
1
1
1
1
1.00001
1.00001
1.00004
1.00007
1.00021
1.00039
1.0012
1.0023
1.00663
1.01449
1.03714
1.10122
1.23681
1.66894
2.5324
2.72848
2.72468
2.70534
1
1
1
1
1
1
1
1.00001
1.00001
1.00004
1.00006
1.00021
1.00038
1.00118
1.00224
1.00648
1.01415
1.03609
1.09895
1.23003
1.65488
2.52206
2.72633
2.72408
2.70813
1
1
1
1
1
1
1
1
1.00001
1.00003
1.00008
1.00015
1.00047
1.00089
1.00253
1.00561
1.01395
1.03837
1.08421
1.26089
1.65886
2.44816
2.72191
2.72237
2.70681
1
1
1
1
1
1
1
1
1.00001
1.00003
1.00008
1.00015
1.00048
1.00088
1.00266
1.00543
1.01433
1.03707
1.0843
1.25402
1.64258
2.43712
2.71739
2.72184
2.70667
1
1
1
1
1
1
1
1
1.00001
1.00003
1.00008
1.00015
1.00045
1.00086
1.00243
1.00546
1.01349
1.03736
1.08174
1.25613
1.6361
2.43662
2.71689
2.72222
2.70628
1
1
1
1
1
1
1
1.00001
1.00001
1.00003
1.00006
1.00019
1.00035
1.00104
1.00215
1.00572
1.014
1.03371
1.09684
1.21928
1.63397
2.48612
2.69334
2.71013
2.69775
1
1
1
1
1
1
1
1
1.00001
1.00002
1.00008
1.00014
1.00044
1.00085
1.00239
1.0054
1.01327
1.03695
1.08059
1.25386
1.62566
2.42685
2.71042
2.72036
2.70356
2.44966
2.75399
2.99027
3.24786
3.21167
3.18046
3.16735
3.15827
3.14551
3.13022
3.11826
3.11146
3.10964
3.10772
3.10739
3.10944
3.11401
3.12027
3.12709
3.13557
3.14309
3.15136
3.15796
3.16505
3.16924
3.17376
3.1757
3.17639
3.17642
3.17372
3.17089
3.16495
3.15992
3.15304
3.14791
3.14201
3.13597
3.12881
3.1225
3.11071
3.10295
3.09199
3.0835
3.07337
3.0639
3.05149
3.04095
3.02936
3.01839
3.00626
2.99543
2.98235
2.97178
2.95899
2.94789
2.93521
2.92345
2.91128
2.89921
2.8869
2.8752
2.8627
2.85133
2.83889
2.82769
2.81524
2.80414
2.79167
2.78066
2.7683
2.75747
2.74524
2.73459
2.72263
2.71199
2.70053
2.68977
2.67888
2.66814
2.65762
2.64713
2.6368
2.62672
2.61654
2.60693
2.59701
2.58791
2.57843
2.56991
2.56114
2.55337
2.54562
2.53883
2.53254
2.52727
2.52291
2.5199
2.51785
2.51719
2.51412
2.348
2.52309
2.70331
3.03769
3.19431
3.30317
3.4321
3.45507
3.45815
3.46222
3.46282
3.46459
3.46427
3.45915
3.45156
3.44274
3.434
3.42131
3.40902
3.39425
3.37723
3.3578
3.34123
3.32889
3.3181
3.30268
3.28926
3.27036
3.25368
3.23274
3.21444
3.19347
3.17461
3.15749
3.13511
3.11931
3.09725
3.07999
3.05865
3.04105
3.0201
3.00266
2.98241
2.96562
2.94638
2.92834
2.91044
2.89326
2.87602
2.85943
2.84237
2.82686
2.81039
2.7958
2.78021
2.7658
2.75105
2.7367
2.72265
2.70872
2.69533
2.6819
2.66911
2.65615
2.6438
2.63126
2.61932
2.60709
2.59566
2.58373
2.57278
2.56134
2.55073
2.53994
2.52953
2.51941
2.5092
2.49957
2.48966
2.48035
2.47082
2.46183
2.45273
2.4441
2.43549
2.42731
2.41926
2.41166
2.40424
2.39738
2.39075
2.38478
2.37916
2.37444
2.37025
2.3672
2.36504
2.36413
2.36399
2.36179
2.31605
2.35277
2.45989
2.56492
2.77146
2.92888
3.16477
3.32346
3.417
3.48099
3.51234
3.52531
3.56659
3.58877
3.58093
3.56193
3.5371
3.50892
3.48118
3.44564
3.4133
3.3784
3.34172
3.30702
3.2695
3.23158
3.19279
3.15431
3.11922
3.08157
3.04791
3.01242
2.98216
2.94894
2.92117
2.89191
2.86664
2.84032
2.81727
2.79287
2.77106
2.74939
2.7296
2.71067
2.69113
2.67336
2.65475
2.63913
2.62186
2.60743
2.59138
2.57782
2.56296
2.55015
2.53613
2.52392
2.5105
2.49881
2.48596
2.47481
2.46247
2.45179
2.4399
2.42961
2.41815
2.40819
2.39716
2.38754
2.37686
2.36764
2.35719
2.34842
2.33811
2.32977
2.31965
2.31163
2.30177
2.29396
2.28444
2.27679
2.26763
2.26016
2.25139
2.24412
2.23574
2.22875
2.22085
2.21424
2.20699
2.2009
2.19448
2.18923
2.18394
2.17997
2.17617
2.17399
2.17223
2.17223
2.17264
2.17102
2.3164
2.28657
2.32468
2.36548
2.45141
2.55741
2.67275
2.82282
2.97439
3.09881
3.1944
3.2638
3.30534
3.3327
3.33055
3.31984
3.29966
3.27034
3.23523
3.19315
3.14858
3.10233
3.05457
3.00849
2.96155
2.91783
2.87553
2.83686
2.79991
2.76554
2.7336
2.70313
2.67581
2.64932
2.62678
2.60472
2.58617
2.5678
2.55239
2.53749
2.52439
2.51207
2.50117
2.49067
2.48031
2.4699
2.45988
2.45037
2.44108
2.43203
2.42303
2.41422
2.40542
2.3968
2.38813
2.37964
2.37104
2.36264
2.3541
2.34576
2.33727
2.32894
2.32051
2.31214
2.30377
2.29538
2.28705
2.27874
2.27038
2.26228
2.25386
2.24604
2.23758
2.23002
2.2216
2.21426
2.20592
2.19875
2.19053
2.18337
2.1753
2.16816
2.16035
2.15328
2.14583
2.13894
2.13193
2.12538
2.11886
2.11291
2.10701
2.10193
2.09698
2.09315
2.08958
2.0875
2.08605
2.08609
2.08665
2.08482
2.32025
2.27973
2.2624
2.28115
2.30905
2.3649
2.42417
2.5005
2.57006
2.64414
2.69611
2.74223
2.76664
2.78353
2.78077
2.77228
2.75596
2.74047
2.72052
2.69749
2.6743
2.64999
2.62633
2.60263
2.58054
2.56009
2.54201
2.52525
2.51081
2.49729
2.4859
2.47515
2.46604
2.45755
2.45021
2.44338
2.43721
2.43124
2.42554
2.41976
2.41418
2.40851
2.40351
2.39824
2.39295
2.38658
2.3805
2.3741
2.36815
2.36172
2.35554
2.34888
2.34239
2.33552
2.32879
2.32171
2.31479
2.30748
2.30042
2.29291
2.28578
2.27811
2.2709
2.26311
2.25573
2.24789
2.24025
2.23249
2.22458
2.21699
2.20886
2.20149
2.19325
2.18605
2.17777
2.17056
2.16236
2.15509
2.14714
2.13986
2.13228
2.12501
2.11778
2.11065
2.10373
2.09695
2.09034
2.08411
2.0779
2.07238
2.06682
2.06218
2.05773
2.05419
2.05146
2.04956
2.04921
2.04946
2.05058
2.04882
2.32381
2.2817
2.25588
2.2451
2.25577
2.2793
2.30785
2.34493
2.3805
2.40912
2.43607
2.44777
2.46061
2.46143
2.45981
2.45451
2.44781
2.43797
2.4332
2.4262
2.42011
2.41258
2.40565
2.39936
2.39345
2.38869
2.38459
2.38139
2.37889
2.37688
2.37533
2.37406
2.37276
2.37185
2.37042
2.36951
2.36764
2.36635
2.36377
2.36173
2.35839
2.35566
2.35229
2.34927
2.34525
2.34068
2.33546
2.33018
2.32489
2.31932
2.31377
2.30774
2.30178
2.29541
2.28913
2.28251
2.27593
2.26905
2.26219
2.25505
2.248
2.24069
2.23351
2.2261
2.21877
2.21135
2.20383
2.19648
2.18883
2.18158
2.17389
2.16672
2.15899
2.15178
2.1442
2.13701
2.12965
2.12249
2.1153
2.10827
2.10122
2.09441
2.08749
2.08098
2.07427
2.06807
2.06179
2.05591
2.05031
2.04485
2.04013
2.03542
2.03186
2.02842
2.0264
2.02503
2.02518
2.02547
2.02712
2.02533
2.32344
2.28237
2.25864
2.24109
2.24337
2.25365
2.27058
2.28537
2.30256
2.30925
2.31605
2.3146
2.31112
2.30741
2.30255
2.30008
2.29518
2.29259
2.29045
2.29258
2.29434
2.29589
2.29686
2.29826
2.29923
2.30109
2.30251
2.30461
2.30639
2.30861
2.31015
2.31156
2.3126
2.31328
2.3136
2.31345
2.31292
2.31211
2.31032
2.30874
2.30576
2.30343
2.30023
2.29766
2.29376
2.28975
2.28446
2.27953
2.27394
2.26872
2.2629
2.25727
2.25111
2.24509
2.23867
2.23236
2.22577
2.21921
2.21239
2.20557
2.19849
2.1915
2.1842
2.17716
2.16968
2.16265
2.15503
2.14801
2.14032
2.1333
2.12554
2.11852
2.11089
2.10399
2.09655
2.08979
2.0826
2.07594
2.06903
2.06246
2.05589
2.04943
2.04323
2.03697
2.03121
2.02528
2.02002
2.01464
2.0099
2.00533
2.00127
1.99777
1.99475
1.99266
1.99117
1.99121
1.99169
1.99211
1.99409
1.99236
2.31864
2.28433
2.26208
2.24507
2.2402
2.24843
2.26036
2.26962
2.27422
2.27392
2.2682
2.25866
2.24974
2.23929
2.23338
2.22763
2.22606
2.22289
2.22286
2.22398
2.22836
2.23282
2.23624
2.23977
2.24244
2.24553
2.24779
2.25091
2.25337
2.25622
2.25819
2.26018
2.26143
2.26246
2.26309
2.263
2.26266
2.26198
2.26042
2.25903
2.25626
2.25403
2.25109
2.24869
2.24526
2.24168
2.23696
2.23243
2.22723
2.22239
2.21693
2.21179
2.20594
2.20044
2.19423
2.18844
2.182
2.17598
2.16939
2.16314
2.15639
2.14991
2.14301
2.13636
2.12933
2.12264
2.11549
2.10881
2.10151
2.09484
2.08759
2.08088
2.07378
2.06696
2.06005
2.05318
2.04647
2.03961
2.03309
2.0263
2.01996
2.01334
2.00715
2.00093
1.9949
1.98926
1.98361
1.97865
1.97368
1.96952
1.96563
1.96251
1.9601
1.95843
1.95805
1.95831
1.95897
1.95992
1.9628
1.96198
2.31886
2.28989
2.26989
2.26517
2.25567
2.25744
2.26177
2.26513
2.26457
2.2572
2.24491
2.23165
2.21708
2.20489
2.19444
2.18795
2.1831
2.18116
2.17904
2.17924
2.18064
2.18491
2.18947
2.19317
2.19672
2.19994
2.2032
2.20636
2.20921
2.21193
2.21441
2.21671
2.21869
2.22027
2.22137
2.22196
2.22221
2.22187
2.22106
2.22007
2.21821
2.21633
2.21417
2.21219
2.20965
2.20661
2.2028
2.19874
2.19433
2.18986
2.18513
2.18029
2.17518
2.16989
2.16439
2.15872
2.1529
2.14695
2.1408
2.13465
2.12821
2.1219
2.11529
2.10885
2.10221
2.09564
2.08899
2.08235
2.07582
2.06919
2.06275
2.05615
2.04977
2.04324
2.03686
2.03046
2.02408
2.01785
2.01151
2.00543
1.99923
1.99328
1.98737
1.98157
1.97612
1.97062
1.96577
1.96083
1.95676
1.95278
1.94972
1.94716
1.94547
1.94484
1.94504
1.94558
1.94665
1.94825
1.95214
1.95227
2.32298
2.30102
2.28152
2.27542
2.27528
2.2773
2.27731
2.27354
2.26488
2.25255
2.23808
2.2205
2.20462
2.18867
2.1771
2.16727
2.16202
2.15735
2.15594
2.15378
2.15383
2.15415
2.15689
2.1603
2.16341
2.16655
2.16931
2.17198
2.17443
2.17684
2.17914
2.18127
2.18307
2.18473
2.18586
2.18689
2.18729
2.1875
2.18715
2.18645
2.18496
2.18351
2.18153
2.17988
2.17748
2.17477
2.17119
2.16745
2.16323
2.15898
2.15428
2.14965
2.1445
2.13945
2.134
2.12851
2.12292
2.11701
2.11126
2.105
2.09892
2.09245
2.08596
2.07944
2.07261
2.06612
2.05926
2.05277
2.04604
2.03942
2.03289
2.02611
2.01977
2.01294
2.00674
2.00004
1.9939
1.98748
1.98136
1.97529
1.96922
1.96353
1.95765
1.95239
1.94692
1.94218
1.93733
1.93334
1.92949
1.92649
1.92409
1.92246
1.92193
1.92217
1.9228
1.92401
1.92566
1.92893
1.93336
1.93498
2.33215
2.31787
2.30494
2.2976
2.29525
2.29351
2.28895
2.28229
2.26993
2.25398
2.23692
2.21913
2.20159
2.1859
2.17166
2.16036
2.15073
2.14404
2.13848
2.1349
2.13224
2.13056
2.13027
2.13157
2.13437
2.13736
2.14034
2.14305
2.14572
2.14795
2.15033
2.15229
2.15442
2.1561
2.15778
2.15897
2.15992
2.16036
2.16047
2.16003
2.15902
2.15774
2.1562
2.1547
2.15274
2.15027
2.14716
2.14361
2.13983
2.13562
2.13137
2.12671
2.12202
2.11706
2.11194
2.10678
2.10132
2.09597
2.09025
2.08465
2.07874
2.07285
2.06676
2.0606
2.05445
2.04818
2.042
2.03565
2.02941
2.02301
2.0167
2.01031
2.00393
1.99763
1.99125
1.98506
1.97882
1.97274
1.96675
1.96078
1.95511
1.94933
1.94403
1.9386
1.93377
1.92889
1.92477
1.92083
1.91774
1.91518
1.9135
1.9128
1.91297
1.91362
1.91454
1.91667
1.91944
1.92371
1.9287
1.93037
2.348
2.33641
2.32865
2.32125
2.31578
2.30841
2.29949
2.28699
2.27183
2.25529
2.23716
2.21923
2.20139
2.18508
2.16975
2.15658
2.145
2.1358
2.12814
2.12274
2.11837
2.11583
2.11358
2.11314
2.11285
2.11462
2.11636
2.1189
2.12083
2.12314
2.12498
2.12673
2.12843
2.12977
2.1312
2.1321
2.133
2.13336
2.13351
2.13322
2.13246
2.13128
2.13008
2.12877
2.12717
2.12512
2.12232
2.11929
2.11571
2.11195
2.10788
2.10348
2.09906
2.09411
2.0893
2.08399
2.07881
2.07335
2.06785
2.06232
2.05651
2.0508
2.04474
2.03885
2.03272
2.02665
2.02058
2.01434
2.00836
2.00203
1.99607
1.98973
1.98372
1.97745
1.97138
1.9653
1.95921
1.95344
1.94745
1.94204
1.93633
1.93132
1.92608
1.92155
1.91696
1.91299
1.90943
1.9064
1.9042
1.90259
1.90216
1.90242
1.90305
1.9044
1.9063
1.90997
1.91417
1.91878
1.92363
1.92505
2.37117
2.36287
2.35639
2.34792
2.33811
2.32538
2.31026
2.29459
2.27738
2.2595
2.24124
2.22355
2.20641
2.19013
2.17475
2.16047
2.14772
2.13648
2.1269
2.11853
2.11158
2.10595
2.10197
2.09892
2.09714
2.09632
2.09656
2.09829
2.0996
2.10196
2.10401
2.10568
2.10764
2.10876
2.11052
2.11144
2.11281
2.11335
2.11412
2.11406
2.11364
2.11287
2.11196
2.1108
2.10962
2.10772
2.10541
2.10266
2.09945
2.0962
2.09226
2.08847
2.08398
2.07957
2.07475
2.06977
2.06476
2.05939
2.05419
2.04857
2.04305
2.03725
2.03143
2.02552
2.01939
2.01338
2.00705
2.00098
1.99461
1.98849
1.98218
1.97602
1.96983
1.96363
1.95761
1.95143
1.94561
1.93958
1.93403
1.9283
1.92313
1.91788
1.91323
1.90864
1.90462
1.90105
1.89802
1.89584
1.89426
1.89388
1.8941
1.89481
1.89594
1.89844
1.90163
1.90639
1.91094
1.91519
1.91944
1.92039
2.39224
2.38941
2.38224
2.37146
2.35624
2.33975
2.32027
2.30066
2.28168
2.26347
2.24532
2.22805
2.21092
2.19485
2.17893
2.16406
2.14992
2.13711
2.12534
2.11518
2.10639
2.09901
2.09301
2.08844
2.08502
2.08316
2.08193
2.08199
2.08232
2.084
2.08586
2.08785
2.08982
2.0913
2.09317
2.09421
2.09564
2.09616
2.09692
2.09682
2.09642
2.09583
2.09474
2.09381
2.09249
2.09069
2.08852
2.08568
2.08285
2.07933
2.07575
2.07168
2.0674
2.06293
2.05815
2.05337
2.04824
2.04318
2.03784
2.03249
2.027
2.02145
2.01588
2.01013
2.00443
1.99853
1.99271
1.98676
1.98084
1.97492
1.96894
1.9631
1.95711
1.95136
1.94543
1.93979
1.93404
1.92858
1.92314
1.91801
1.91303
1.90843
1.90408
1.90011
1.89672
1.89379
1.89175
1.89026
1.89001
1.89025
1.89088
1.89228
1.89458
1.8984
1.90286
1.90755
1.91212
1.91529
1.91912
1.91912
2.40652
2.41067
2.40441
2.39177
2.37389
2.35436
2.33417
2.31434
2.29389
2.27485
2.25569
2.23801
2.22018
2.20358
2.18689
2.17134
2.15577
2.14182
2.12857
2.11709
2.10661
2.09779
2.09015
2.08423
2.07938
2.07583
2.07334
2.07213
2.07134
2.07153
2.07196
2.07345
2.07505
2.07646
2.07784
2.07882
2.07957
2.08001
2.08007
2.0798
2.07922
2.07822
2.07695
2.07577
2.07412
2.07235
2.06989
2.06728
2.06429
2.06099
2.05747
2.05355
2.04956
2.04517
2.04077
2.03601
2.03124
2.02623
2.02113
2.01597
2.0107
2.00548
2.00009
1.99475
1.98929
1.98378
1.97831
1.97264
1.96718
1.96143
1.95597
1.95022
1.94474
1.93908
1.93364
1.92816
1.92283
1.91767
1.91261
1.90795
1.90336
1.89939
1.89547
1.89241
1.88963
1.88792
1.88659
1.88664
1.88698
1.88769
1.88938
1.89168
1.89618
1.90029
1.90539
1.90914
1.91323
1.9153
1.91821
1.91761
2.41347
2.41882
2.41164
2.39659
2.37817
2.35812
2.33911
2.3205
2.30286
2.28519
2.26791
2.25036
2.23325
2.216
2.19939
2.18275
2.16691
2.15164
2.13751
2.12455
2.11258
2.10234
2.09259
2.0847
2.07742
2.07197
2.06718
2.06402
2.06134
2.0599
2.05853
2.05799
2.05801
2.05855
2.05917
2.05958
2.05973
2.05967
2.05935
2.05862
2.05772
2.05635
2.05487
2.05334
2.05156
2.04968
2.04715
2.0447
2.04165
2.03867
2.03519
2.03167
2.02779
2.02378
2.01953
2.01511
2.01056
2.00582
2.001
1.9961
1.9911
1.98609
1.98089
1.97575
1.97039
1.96513
1.9597
1.95436
1.94898
1.94358
1.93836
1.93291
1.92789
1.9225
1.91769
1.91249
1.90798
1.90312
1.89906
1.89479
1.89129
1.88782
1.88506
1.8828
1.88132
1.8806
1.88077
1.88132
1.88249
1.8842
1.88778
1.89144
1.89682
1.90097
1.90572
1.90861
1.91179
1.91285
1.915
1.91386
2.43157
2.42582
2.41197
2.39423
2.37625
2.3574
2.33949
2.32251
2.30658
2.29095
2.27524
2.25926
2.24287
2.22639
2.2096
2.19303
2.17643
2.16053
2.14523
2.13094
2.11747
2.10494
2.09345
2.08324
2.0739
2.06605
2.05899
2.05337
2.04858
2.04497
2.04202
2.03976
2.03803
2.03702
2.03646
2.03639
2.03635
2.03625
2.03591
2.03523
2.03453
2.0331
2.03194
2.03036
2.0291
2.02719
2.02516
2.02283
2.02018
2.01746
2.01426
2.01106
2.00737
2.00364
1.99956
1.99531
1.99093
1.98624
1.98163
1.97674
1.97196
1.96699
1.96196
1.95702
1.95173
1.94684
1.94137
1.93651
1.93101
1.92614
1.92078
1.91592
1.9108
1.90603
1.90123
1.89667
1.89235
1.88816
1.88451
1.88096
1.87806
1.87536
1.87369
1.87231
1.87226
1.87254
1.87344
1.87466
1.87741
1.88049
1.88554
1.88991
1.89495
1.89859
1.90229
1.90427
1.90619
1.90662
1.90782
1.90604
2.44785
2.43005
2.40965
2.38853
2.36973
2.35251
2.33625
2.32081
2.30583
2.29119
2.27612
2.26097
2.24528
2.22951
2.21321
2.19709
2.18051
2.16459
2.14845
2.13349
2.11841
2.10492
2.09155
2.07975
2.06848
2.05871
2.04965
2.04211
2.03525
2.0299
2.02528
2.02156
2.01867
2.01666
2.01545
2.01449
2.0143
2.01432
2.01431
2.0142
2.01382
2.01313
2.01208
2.01101
2.01002
2.00842
2.00688
2.00469
2.00256
1.99992
1.99709
1.994
1.99049
1.98694
1.98287
1.97884
1.97432
1.9698
1.96516
1.96028
1.95562
1.9505
1.94583
1.94063
1.93587
1.93071
1.92582
1.92075
1.91577
1.91084
1.90585
1.90111
1.89621
1.89174
1.88708
1.88297
1.87877
1.87526
1.87171
1.869
1.86634
1.8648
1.86364
1.86371
1.8642
1.86504
1.86693
1.8694
1.87382
1.87829
1.8835
1.88792
1.89211
1.89512
1.89752
1.89866
1.89957
1.8995
1.89988
1.89794
2.4559
2.43493
2.41102
2.38898
2.36994
2.35246
2.33636
2.32117
2.30627
2.29166
2.27674
2.26148
2.24599
2.23009
2.21405
2.19769
2.18132
2.16489
2.14871
2.13292
2.11755
2.10296
2.0889
2.0759
2.06352
2.05238
2.04203
2.03298
2.02466
2.01787
2.01184
2.00724
2.00307
2.00009
1.99806
1.99677
1.99594
1.99533
1.9952
1.99518
1.99504
1.99466
1.99379
1.99307
1.99205
1.99097
1.98944
1.98758
1.98563
1.98329
1.98085
1.978
1.97491
1.97158
1.96784
1.96404
1.95971
1.95552
1.95089
1.94641
1.94168
1.93699
1.93225
1.92742
1.9227
1.91778
1.91311
1.90816
1.90356
1.89867
1.89418
1.88947
1.88521
1.88079
1.87691
1.87301
1.86972
1.86657
1.86402
1.86176
1.86034
1.85962
1.85974
1.86029
1.86149
1.86324
1.86679
1.87077
1.87591
1.88056
1.88534
1.88918
1.89214
1.89452
1.89536
1.89621
1.89597
1.89552
1.89535
1.89353
2.46566
2.43767
2.41312
2.39127
2.37201
2.35496
2.33869
2.32342
2.30834
2.29336
2.27819
2.26278
2.24704
2.23118
2.21496
2.19867
2.18213
2.16568
2.14928
2.13329
2.1176
2.10252
2.08807
2.07434
2.06147
2.04937
2.03812
2.02779
2.01853
2.0103
2.003
1.99705
1.99181
1.98753
1.98393
1.98155
1.97987
1.97869
1.97797
1.97742
1.97722
1.97703
1.97659
1.976
1.97515
1.97438
1.97324
1.97179
1.96997
1.96777
1.96542
1.96258
1.95965
1.95628
1.95271
1.94892
1.94482
1.94081
1.93636
1.9322
1.9275
1.92323
1.91839
1.914
1.90916
1.90471
1.89996
1.8955
1.89089
1.8865
1.88213
1.87792
1.87389
1.87001
1.86656
1.86325
1.86066
1.85813
1.8565
1.85517
1.85517
1.85546
1.85624
1.85794
1.86026
1.86432
1.86882
1.87383
1.87885
1.88312
1.88716
1.88978
1.89197
1.89284
1.89311
1.89275
1.89227
1.89134
1.89058
1.88861
2.48459
2.44927
2.42133
2.39879
2.37923
2.36193
2.34533
2.32925
2.31352
2.29789
2.28218
2.26645
2.2504
2.23439
2.21802
2.2017
2.1851
2.16864
2.15213
2.13604
2.12016
2.1049
2.08999
2.07584
2.06214
2.04931
2.03707
2.02582
2.01528
2.00579
1.9974
1.98999
1.98374
1.97828
1.97347
1.96962
1.96666
1.96456
1.96328
1.96252
1.96222
1.96218
1.96215
1.962
1.96171
1.9614
1.9607
1.95984
1.95824
1.95644
1.95416
1.95147
1.94879
1.94534
1.94224
1.93818
1.93464
1.93026
1.92631
1.92174
1.91748
1.91279
1.9083
1.90356
1.89895
1.89426
1.88963
1.8851
1.8806
1.87635
1.87209
1.86827
1.8644
1.86121
1.85797
1.85563
1.85331
1.85187
1.8509
1.85102
1.85147
1.85242
1.85438
1.85741
1.86155
1.86655
1.87138
1.87644
1.88057
1.88435
1.88689
1.88865
1.88957
1.88943
1.88903
1.88832
1.88737
1.88558
1.88428
1.88211
2.52239
2.48573
2.45484
2.42842
2.40408
2.38114
2.36043
2.34157
2.32384
2.3066
2.28974
2.27316
2.25659
2.2402
2.22361
2.20707
2.1904
2.1738
2.1573
2.14109
2.12519
2.1097
2.09455
2.07999
2.06586
2.05245
2.03962
2.02762
2.01636
2.00601
1.99649
1.98787
1.98031
1.97354
1.96791
1.96278
1.95909
1.95666
1.95485
1.95383
1.95325
1.95301
1.95292
1.95289
1.95283
1.9527
1.95247
1.95198
1.95101
1.94973
1.94769
1.94567
1.94284
1.94015
1.93667
1.93327
1.92937
1.92542
1.92117
1.91681
1.91228
1.90765
1.90292
1.89814
1.89333
1.88854
1.8838
1.87912
1.87463
1.87019
1.86616
1.86213
1.85883
1.8555
1.85316
1.85085
1.84943
1.84855
1.84868
1.84898
1.84997
1.85209
1.85567
1.85985
1.86491
1.86951
1.87429
1.87812
1.88152
1.88398
1.88536
1.88624
1.88601
1.88554
1.88488
1.88378
1.88214
1.87999
1.87835
1.87631
2.53922
2.50346
2.4763
2.45336
2.43234
2.41169
2.39094
2.36973
2.34906
2.32901
2.30972
2.29128
2.27325
2.25559
2.23812
2.22076
2.20369
2.1864
2.16946
2.15249
2.13607
2.11999
2.10443
2.08954
2.07507
2.06151
2.04828
2.03603
2.02419
2.01338
2.00307
1.99381
1.9851
1.97761
1.97077
1.96498
1.95958
1.95542
1.95219
1.95001
1.94852
1.94772
1.94772
1.94785
1.94822
1.9485
1.94883
1.94877
1.94843
1.94767
1.94639
1.94456
1.94237
1.93968
1.93672
1.9334
1.92984
1.92595
1.9219
1.91756
1.91313
1.9085
1.9038
1.89901
1.8942
1.88944
1.8847
1.88013
1.87567
1.87143
1.86748
1.86379
1.86059
1.85782
1.85554
1.85381
1.85272
1.85242
1.85249
1.85349
1.85561
1.85948
1.86346
1.86816
1.87253
1.87682
1.88045
1.88333
1.88561
1.8866
1.88728
1.88694
1.88639
1.88566
1.88458
1.88281
1.88071
1.87833
1.87653
1.87447
2.57403
2.53775
2.50992
2.48467
2.46163
2.43938
2.4182
2.39751
2.37726
2.35756
2.338
2.31889
2.29982
2.28117
2.26248
2.24415
2.22585
2.20798
2.19029
2.17305
2.15635
2.14021
2.12477
2.10971
2.09526
2.08111
2.06752
2.05424
2.04179
2.02975
2.01855
2.00775
1.99801
1.98897
1.98122
1.97437
1.96851
1.96328
1.95929
1.95618
1.9541
1.95264
1.95181
1.95138
1.95116
1.95109
1.95096
1.95072
1.9503
1.94952
1.94842
1.94674
1.94481
1.94225
1.93955
1.93626
1.9329
1.92899
1.92505
1.92059
1.9162
1.91139
1.90671
1.90176
1.89694
1.89211
1.88736
1.88287
1.87846
1.87453
1.87079
1.86763
1.86497
1.86283
1.86128
1.86049
1.86023
1.86037
1.86201
1.86451
1.86827
1.87224
1.87667
1.88087
1.8847
1.88814
1.89045
1.89252
1.89317
1.89367
1.8931
1.89264
1.89181
1.89069
1.88896
1.88681
1.88452
1.88214
1.88026
1.87833
2.6016
2.56522
2.53567
2.50904
2.48511
2.46287
2.44134
2.42048
2.39967
2.37942
2.35937
2.3398
2.32055
2.3018
2.28346
2.26537
2.24767
2.23001
2.21266
2.19538
2.17862
2.16226
2.14621
2.13074
2.11533
2.10084
2.08628
2.07273
2.05949
2.04718
2.03515
2.02399
2.01398
2.00522
1.99739
1.99019
1.98364
1.97737
1.97161
1.9666
1.96243
1.95904
1.9564
1.95452
1.95318
1.95234
1.95177
1.95136
1.95099
1.95054
1.94989
1.94885
1.94757
1.94576
1.94373
1.94125
1.93851
1.93547
1.93209
1.92851
1.92463
1.92054
1.91628
1.91185
1.90735
1.90291
1.89829
1.89416
1.88971
1.88621
1.88241
1.87991
1.87733
1.87574
1.87466
1.87389
1.87429
1.87623
1.87889
1.88241
1.88627
1.8902
1.89425
1.89747
1.90077
1.90265
1.90449
1.90499
1.90516
1.90467
1.90393
1.90323
1.90203
1.90037
1.89829
1.89606
1.89367
1.89132
1.88936
1.88748
2.6271
2.60131
2.57621
2.54997
2.5224
2.49631
2.47068
2.44718
2.42438
2.40333
2.38275
2.36341
2.34433
2.32596
2.3077
2.28969
2.27175
2.25398
2.23654
2.21932
2.20257
2.18611
2.17023
2.15475
2.1396
2.12511
2.11106
2.09783
2.0848
2.07245
2.061
2.05016
2.03936
2.02808
2.01714
2.00619
1.99632
1.98682
1.97851
1.9711
1.96496
1.95997
1.95592
1.95303
1.9509
1.94963
1.94885
1.94849
1.94842
1.94837
1.94822
1.9479
1.94718
1.94628
1.94484
1.94312
1.94105
1.93852
1.93594
1.93267
1.92978
1.92598
1.92287
1.91875
1.91544
1.91136
1.90812
1.90458
1.90173
1.89918
1.89693
1.89569
1.89428
1.89367
1.89354
1.89456
1.89701
1.89997
1.90351
1.90754
1.91119
1.91517
1.918
1.92089
1.92259
1.92383
1.92434