/*--------------------------------*- C++ -*----------------------------------*\
| =========                 |                                                 |
| \\      /  F ield         | OpenFOAM: The Open Source CFD Toolbox           |
|  \\    /   O peration     | Version:  2412                                  |
|   \\  /    A nd           | Website:  www.openfoam.com                      |
|    \\/     M anipulation  |                                                 |
\*---------------------------------------------------------------------------*/
FoamFile
{
    version     2.0;
    format      ascii;
    arch        "LSB;label=32;scalar=64";
    class       volVectorField;
    location    "9.5";
    object      U;
}
// * * * * * * * * * * * * * * * * * * * * * * * * * * * * * * * * * * * * * //

dimensions      [0 1 -1 0 0 0 0];

internalField   nonuniform List<vector> 
5250
(
(2.99999 2.1094e-08 0)
(2.99998 1.64911e-07 0)
(2.99994 5.08166e-07 0)
(2.99986 1.53614e-06 0)
(2.99965 3.70075e-06 0)
(2.99922 9.36435e-06 0)
(2.99792 2.39385e-05 0)
(2.99555 4.63148e-05 0)
(2.98726 0.000145147 0)
(2.97291 0.000211134 0)
(2.91909 0.000649172 0)
(2.78595 0.00133429 0)
(2.42334 0.00339792 0)
(1.35273 0.00959849 0)
(0.605842 0.0208255 0)
(0.569274 0.0224967 0)
(0.58451 0.0238697 0)
(0.567151 0.0253198 0)
(0.508048 0.0270017 0)
(0.420538 0.0291184 0)
(0.341567 0.031733 0)
(0.273338 0.034713 0)
(0.202695 0.0379829 0)
(0.122212 0.0419756 0)
(0.0545701 0.0480267 0)
(2.99999 5.82437e-08 0)
(2.99998 4.55033e-07 0)
(2.99994 1.40102e-06 0)
(2.99987 4.23106e-06 0)
(2.99965 1.01614e-05 0)
(2.99923 2.59134e-05 0)
(2.99795 6.47443e-05 0)
(2.99566 0.000132663 0)
(2.98739 0.000385887 0)
(2.97334 0.000642209 0)
(2.91999 0.00183861 0)
(2.78827 0.00399528 0)
(2.42954 0.0107451 0)
(1.36551 0.0292917 0)
(0.614548 0.0630255 0)
(0.56872 0.0651883 0)
(0.583634 0.0665395 0)
(0.566323 0.0682818 0)
(0.507481 0.0709801 0)
(0.420283 0.0749943 0)
(0.34118 0.0796548 0)
(0.27225 0.0845754 0)
(0.200536 0.0893734 0)
(0.118652 0.094391 0)
(0.0506006 0.0999661 0)
(2.99999 8.64938e-08 0)
(2.99998 6.73553e-07 0)
(2.99994 2.07385e-06 0)
(2.99987 6.24963e-06 0)
(2.99966 1.49412e-05 0)
(2.99926 3.85126e-05 0)
(2.99801 9.29449e-05 0)
(2.99582 0.000206747 0)
(2.98768 0.00054008 0)
(2.97414 0.00108072 0)
(2.92177 0.00282205 0)
(2.79366 0.0065368 0)
(2.44278 0.0188628 0)
(1.39231 0.0495419 0)
(0.634129 0.109093 0)
(0.56789 0.110844 0)
(0.582738 0.111913 0)
(0.566396 0.114931 0)
(0.509004 0.12006 0)
(0.422871 0.127819 0)
(0.343991 0.136299 0)
(0.274739 0.145254 0)
(0.202347 0.154117 0)
(0.119376 0.16267 0)
(0.0497681 0.169942 0)
(2.99999 1.07972e-07 0)
(2.99998 8.38467e-07 0)
(2.99995 2.582e-06 0)
(2.99988 7.77366e-06 0)
(2.99968 1.8506e-05 0)
(2.9993 4.83135e-05 0)
(2.99809 0.000112718 0)
(2.99603 0.000271774 0)
(2.98812 0.000643806 0)
(2.97526 0.00153494 0)
(2.92434 0.00369987 0)
(2.80246 0.00915958 0)
(2.46293 0.0267844 0)
(1.43234 0.0702549 0)
(0.663861 0.157183 0)
(0.56498 0.156438 0)
(0.581189 0.155937 0)
(0.567473 0.161069 0)
(0.512737 0.168682 0)
(0.428554 0.180103 0)
(0.350372 0.192714 0)
(0.28132 0.206216 0)
(0.208448 0.219898 0)
(0.123789 0.232865 0)
(0.0510362 0.242452 0)
(2.99999 1.24809e-07 0)
(2.99998 9.69002e-07 0)
(2.99995 2.98282e-06 0)
(2.99988 8.99074e-06 0)
(2.9997 2.13373e-05 0)
(2.99934 5.64324e-05 0)
(2.99819 0.000128374 0)
(2.99627 0.000329737 0)
(2.98872 0.00073055 0)
(2.97671 0.00198629 0)
(2.92783 0.00446546 0)
(2.81434 0.0123782 0)
(2.49029 0.0342353 0)
(1.48992 0.0929788 0)
(0.705678 0.209641 0)
(0.560133 0.202791 0)
(0.580109 0.198909 0)
(0.570784 0.206282 0)
(0.518892 0.216234 0)
(0.437537 0.231123 0)
(0.360589 0.24815 0)
(0.291983 0.266719 0)
(0.218665 0.285896 0)
(0.131726 0.304119 0)
(0.0544185 0.316822 0)
(2.99999 1.36247e-07 0)
(2.99998 1.05692e-06 0)
(2.99995 3.25259e-06 0)
(2.99989 9.80733e-06 0)
(2.99972 2.31978e-05 0)
(2.99939 6.20052e-05 0)
(2.99832 0.000137961 0)
(2.99653 0.000372353 0)
(2.98948 0.000788871 0)
(2.97841 0.00232079 0)
(2.93258 0.00492377 0)
(2.82927 0.0155548 0)
(2.52556 0.039148 0)
(1.57358 0.116839 0)
(0.764973 0.266408 0)
(0.556217 0.249964 0)
(0.582576 0.241216 0)
(0.579191 0.250437 0)
(0.529886 0.262779 0)
(0.451757 0.281375 0)
(0.376393 0.303283 0)
(0.308356 0.327857 0)
(0.234401 0.354117 0)
(0.144052 0.37988 0)
(0.0600893 0.398043 0)
(2.99999 1.44642e-07 0)
(2.99998 1.122e-06 0)
(2.99996 3.45172e-06 0)
(2.9999 1.04168e-05 0)
(2.99974 2.45623e-05 0)
(2.99944 6.63618e-05 0)
(2.99845 0.000144565 0)
(2.99681 0.000408782 0)
(2.99033 0.000832966 0)
(2.9802 0.0026103 0)
(2.93831 0.00534719 0)
(2.8451 0.0181649 0)
(2.56818 0.0431711 0)
(1.68835 0.139597 0)
(0.840337 0.326641 0)
(0.552812 0.299119 0)
(0.589294 0.284274 0)
(0.593844 0.294539 0)
(0.547066 0.308864 0)
(0.472602 0.331322 0)
(0.399198 0.358642 0)
(0.332185 0.390282 0)
(0.258075 0.425526 0)
(0.163929 0.462293 0)
(0.070292 0.490964 0)
(3 1.4948e-07 0)
(2.99999 1.15607e-06 0)
(2.99996 3.5571e-06 0)
(2.99991 1.07184e-05 0)
(2.99977 2.51575e-05 0)
(2.99949 6.87274e-05 0)
(2.9986 0.000144918 0)
(2.99711 0.000437523 0)
(2.99131 0.000826533 0)
(2.98221 0.00291229 0)
(2.94492 0.00574191 0)
(2.86311 0.0201819 0)
(2.61819 0.0480777 0)
(1.83356 0.15747 0)
(0.936661 0.383413 0)
(0.556158 0.347401 0)
(0.603738 0.327351 0)
(0.617013 0.337572 0)
(0.572513 0.353557 0)
(0.50224 0.380299 0)
(0.431272 0.413851 0)
(0.365914 0.454109 0)
(0.292763 0.500926 0)
(0.195636 0.554273 0)
(0.088477 0.604026 0)
(3 1.74028e-07 0)
(2.99999 1.34741e-06 0)
(2.99996 4.14096e-06 0)
(2.99992 1.24959e-05 0)
(2.99979 2.9492e-05 0)
(2.99954 7.97227e-05 0)
(2.99876 0.000174553 0)
(2.99738 0.000492735 0)
(2.99238 0.00100261 0)
(2.98434 0.00320209 0)
(2.95207 0.00646393 0)
(2.88291 0.0218356 0)
(2.67321 0.0521541 0)
(2.0031 0.168701 0)
(1.05848 0.430151 0)
(0.579919 0.400756 0)
(0.63355 0.378162 0)
(0.653035 0.382572 0)
(0.610155 0.399104 0)
(0.543874 0.428884 0)
(0.475488 0.469139 0)
(0.412708 0.518078 0)
(0.343722 0.578972 0)
(0.249091 0.658067 0)
(0.123463 0.751661 0)
(3 4.26959e-09 0)
(2.99999 1.59211e-06 0)
(2.99997 2.56344e-06 0)
(2.99993 1.3706e-05 0)
(2.99982 1.88306e-05 0)
(2.99961 8.55572e-05 0)
(2.99895 0.000106706 0)
(2.9978 0.000533235 0)
(2.99355 0.000498574 0)
(2.98681 0.00375962 0)
(2.95987 0.00252692 0)
(2.90365 0.0259453 0)
(2.73108 0.0340357 0)
(2.19339 0.160635 0)
(1.22444 0.399269 0)
(0.653931 0.434411 0)
(0.689203 0.432406 0)
(0.706857 0.428264 0)
(0.665338 0.446966 0)
(0.601834 0.477955 0)
(0.535281 0.523575 0)
(0.476018 0.580634 0)
(0.418434 0.660105 0)
(0.341358 0.78136 0)
(0.191498 0.989209 0)
(3 1.23617e-07 0)
(2.99999 9.53522e-07 0)
(2.99997 2.93904e-06 0)
(2.99993 8.82001e-06 0)
(2.99985 2.07475e-05 0)
(2.99961 5.59416e-05 0)
(2.99913 0.000118969 0)
(2.99771 0.000351062 0)
(2.99505 0.000645887 0)
(2.98606 0.00232986 0)
(2.96966 0.00438436 0)
(2.91157 0.0146332 0)
(2.76622 0.0398318 0)
(2.37386 0.1018 0)
(1.33805 0.329095 0)
(0.708244 0.464129 0)
(0.719698 0.485627 0)
(0.74309 0.479727 0)
(0.719165 0.497156 0)
(0.664973 0.527461 0)
(0.606361 0.574876 0)
(0.558275 0.638964 0)
(0.528908 0.733021 0)
(0.527876 0.879604 0)
(0.557956 1.11945 0)
(3 2.72834e-07 0)
(2.99999 5.57239e-07 0)
(2.99998 4.04732e-06 0)
(2.99995 6.24391e-06 0)
(2.99986 2.82727e-05 0)
(2.99969 4.09728e-05 0)
(2.99919 0.000172208 0)
(2.99824 0.000239869 0)
(2.9952 0.00107053 0)
(2.98993 0.00123733 0)
(2.97009 0.00726495 0)
(2.93338 0.00693676 0)
(2.80159 0.0461819 0)
(2.43443 0.0795556 0)
(1.58777 0.266318 0)
(0.798889 0.513666 0)
(0.739375 0.533746 0)
(0.763124 0.530761 0)
(0.759543 0.543702 0)
(0.722772 0.574272 0)
(0.680263 0.621287 0)
(0.649945 0.688667 0)
(0.649466 0.784931 0)
(0.699902 0.92131 0)
(0.817172 1.09737 0)
(3 1.17635e-07 0)
(2.99999 9.20402e-07 0)
(2.99998 2.8297e-06 0)
(2.99995 8.59378e-06 0)
(2.99988 2.03624e-05 0)
(2.99973 5.46577e-05 0)
(2.9993 0.000123047 0)
(2.99845 0.000325737 0)
(2.99588 0.00071904 0)
(2.99123 0.0019731 0)
(2.9746 0.00422098 0)
(2.94404 0.0124909 0)
(2.83293 0.0288636 0)
(2.52815 0.0889998 0)
(1.80521 0.230518 0)
(0.921183 0.558604 0)
(0.749986 0.567744 0)
(0.776416 0.568335 0)
(0.791059 0.579948 0)
(0.774175 0.612803 0)
(0.750386 0.660105 0)
(0.740129 0.725348 0)
(0.759899 0.812205 0)
(0.828952 0.920497 0)
(0.960648 1.02905 0)
(3 1.14192e-07 0)
(2.99999 8.86173e-07 0)
(2.99998 2.72765e-06 0)
(2.99996 8.22283e-06 0)
(2.9999 1.94906e-05 0)
(2.99978 5.1798e-05 0)
(2.99942 0.000116548 0)
(2.99873 0.000304812 0)
(2.99657 0.000667688 0)
(2.99285 0.00183822 0)
(2.97872 0.00375365 0)
(2.95438 0.0118531 0)
(2.86104 0.0254158 0)
(2.61556 0.0859338 0)
(2.00977 0.214063 0)
(1.05868 0.585837 0)
(0.762371 0.594202 0)
(0.790552 0.597331 0)
(0.819781 0.607483 0)
(0.821706 0.6415 0)
(0.814004 0.689087 0)
(0.81948 0.748613 0)
(0.852109 0.820764 0)
(0.924469 0.902087 0)
(1.04875 0.971397 0)
(3 1.00932e-07 0)
(2.99999 7.7948e-07 0)
(2.99999 2.4007e-06 0)
(2.99997 7.20511e-06 0)
(2.99991 1.70272e-05 0)
(2.99981 4.50118e-05 0)
(2.99951 0.000100625 0)
(2.99891 0.000264308 0)
(2.99716 0.000560894 0)
(2.99381 0.00163278 0)
(2.98281 0.00308462 0)
(2.96251 0.0110281 0)
(2.88988 0.0211113 0)
(2.70272 0.0804168 0)
(2.2221 0.195094 0)
(1.23441 0.577369 0)
(0.806856 0.619283 0)
(0.819523 0.629116 0)
(0.853378 0.634476 0)
(0.869553 0.664565 0)
(0.872477 0.709104 0)
(0.887313 0.761667 0)
(0.926714 0.820201 0)
(0.997525 0.880748 0)
(1.10949 0.928951 0)
(3 9.55035e-08 0)
(3 7.4209e-07 0)
(2.99999 2.28434e-06 0)
(2.99997 6.89148e-06 0)
(2.99993 1.63438e-05 0)
(2.99984 4.34627e-05 0)
(2.9996 9.79556e-05 0)
(2.99912 0.000255105 0)
(2.99771 0.000567147 0)
(2.99496 0.00149226 0)
(2.98646 0.00330059 0)
(2.96969 0.00911662 0)
(2.91515 0.0203628 0)
(2.77761 0.0625225 0)
(2.41503 0.157575 0)
(1.44712 0.477633 0)
(0.898434 0.627407 0)
(0.866916 0.657522 0)
(0.892352 0.667948 0)
(0.917944 0.687972 0)
(0.927693 0.724648 0)
(0.946661 0.769185 0)
(0.987708 0.816319 0)
(1.05477 0.861503 0)
(1.15396 0.895786 0)
(3 8.41175e-08 0)
(3 6.53732e-07 0)
(2.99999 2.01227e-06 0)
(2.99998 6.06855e-06 0)
(2.99994 1.4396e-05 0)
(2.99988 3.82407e-05 0)
(2.99969 8.62785e-05 0)
(2.99931 0.000223242 0)
(2.99819 0.000502609 0)
(2.99609 0.00127287 0)
(2.98912 0.0029605 0)
(2.97694 0.00721864 0)
(2.93222 0.0179191 0)
(2.82634 0.0461625 0)
(2.53312 0.121617 0)
(1.6571 0.351678 0)
(0.999587 0.649817 0)
(0.901703 0.687007 0)
(0.921151 0.703755 0)
(0.95313 0.712439 0)
(0.973993 0.738696 0)
(0.997501 0.774397 0)
(1.03835 0.811774 0)
(1.10038 0.845411 0)
(1.18765 0.86926 0)
(3 7.01203e-08 0)
(3 5.41756e-07 0)
(2.99999 1.66931e-06 0)
(2.99998 5.01083e-06 0)
(2.99996 1.18804e-05 0)
(2.9999 3.13656e-05 0)
(2.99976 7.06114e-05 0)
(2.99946 0.00018188 0)
(2.99858 0.000404995 0)
(2.99701 0.00104576 0)
(2.99138 0.00230697 0)
(2.9823 0.00624267 0)
(2.94622 0.0136695 0)
(2.86845 0.0400876 0)
(2.63504 0.101499 0)
(1.9037 0.303894 0)
(1.16125 0.683573 0)
(0.933253 0.71727 0)
(0.942661 0.731013 0)
(0.977104 0.732866 0)
(1.01022 0.74892 0)
(1.03936 0.776767 0)
(1.0798 0.806107 0)
(1.137 0.83067 0)
(1.21345 0.846846 0)
(3 3.13967e-08 0)
(3 4.88377e-07 0)
(2.99999 1.13741e-06 0)
(2.99999 4.34204e-06 0)
(2.99997 8.19752e-06 0)
(2.99993 2.68177e-05 0)
(2.99981 4.82029e-05 0)
(2.99958 0.000155119 0)
(2.99891 0.000266791 0)
(2.99768 0.000920111 0)
(2.99342 0.00140263 0)
(2.98649 0.00592683 0)
(2.95932 0.008138 0)
(2.90348 0.0394366 0)
(2.7303 0.0727326 0)
(2.18854 0.27299 0)
(1.39323 0.657538 0)
(1.00827 0.737155 0)
(0.983576 0.748858 0)
(1.00645 0.750613 0)
(1.0441 0.757427 0)
(1.07723 0.777108 0)
(1.11539 0.799094 0)
(1.16721 0.815875 0)
(1.23371 0.825329 0)
(3 2.60751e-08 0)
(3 3.86842e-07 0)
(3 9.16918e-07 0)
(2.99999 3.45706e-06 0)
(2.99998 6.64561e-06 0)
(2.99994 2.14613e-05 0)
(2.99986 3.94474e-05 0)
(2.99965 0.00012459 0)
(2.99922 0.000222499 0)
(2.99796 0.000735639 0)
(2.99553 0.00119189 0)
(2.98796 0.0047051 0)
(2.97308 0.00650199 0)
(2.92529 0.0306047 0)
(2.80719 0.0539052 0)
(2.47903 0.193789 0)
(1.64066 0.53422 0)
(1.11466 0.744572 0)
(1.03443 0.766598 0)
(1.04351 0.773602 0)
(1.07773 0.771658 0)
(1.11232 0.779696 0)
(1.14697 0.792111 0)
(1.19254 0.802023 0)
(1.24964 0.803784 0)
(3 5.98557e-08 0)
(3 2.15199e-07 0)
(3 1.03175e-06 0)
(2.99999 2.15517e-06 0)
(2.99998 7.19202e-06 0)
(2.99995 1.36873e-05 0)
(2.9999 4.27172e-05 0)
(2.99974 7.93944e-05 0)
(2.99942 0.000246697 0)
(2.99848 0.000450779 0)
(2.99673 0.00144375 0)
(2.99094 0.00251903 0)
(2.98085 0.0088712 0)
(2.94421 0.0148345 0)
(2.86013 0.0568523 0)
(2.62212 0.117103 0)
(1.90895 0.389756 0)
(1.2579 0.742018 0)
(1.07761 0.784014 0)
(1.0741 0.795189 0)
(1.10231 0.789667 0)
(1.13941 0.785779 0)
(1.1737 0.788203 0)
(1.21344 0.790263 0)
(1.26032 0.782826 0)
(3 3.70836e-08 0)
(3 2.02281e-07 0)
(3 7.51855e-07 0)
(2.99999 1.92949e-06 0)
(2.99999 5.30244e-06 0)
(2.99997 1.21502e-05 0)
(2.99992 3.15021e-05 0)
(2.99982 7.03882e-05 0)
(2.99953 0.000180891 0)
(2.99896 0.000400202 0)
(2.99725 0.00104585 0)
(2.99411 0.00225729 0)
(2.98339 0.00629705 0)
(2.96377 0.0135224 0)
(2.89473 0.0391134 0)
(2.72072 0.104573 0)
(2.24977 0.28286 0)
(1.44317 0.734319 0)
(1.13313 0.808288 0)
(1.1065 0.812687 0)
(1.12415 0.806121 0)
(1.15988 0.793314 0)
(1.19475 0.786524 0)
(1.22828 0.778078 0)
(1.2649 0.760487 0)
(3 2.24282e-08 0)
(3 1.7476e-07 0)
(3 5.37872e-07 0)
(3 1.62434e-06 0)
(2.99999 3.85418e-06 0)
(2.99998 1.02412e-05 0)
(2.99995 2.31191e-05 0)
(2.99986 5.98916e-05 0)
(2.99969 0.000133825 0)
(2.99921 0.000344385 0)
(2.99828 0.00077439 0)
(2.99532 0.00198526 0)
(2.99023 0.0044456 0)
(2.97144 0.0118555 0)
(2.93587 0.0274717 0)
(2.81645 0.0764272 0)
(2.48679 0.216508 0)
(1.7661 0.568225 0)
(1.23318 0.806076 0)
(1.14967 0.821065 0)
(1.15192 0.816781 0)
(1.17967 0.798632 0)
(1.21138 0.780811 0)
(1.23741 0.760511 0)
(1.26406 0.732926 0)
(3 1.99366e-08 0)
(3 1.06996e-07 0)
(3 3.98968e-07 0)
(3 1.02271e-06 0)
(2.99999 2.80881e-06 0)
(2.99998 6.42503e-06 0)
(2.99996 1.66189e-05 0)
(2.99991 3.70295e-05 0)
(2.99976 9.48194e-05 0)
(2.99949 0.000209179 0)
(2.99862 0.000544097 0)
(2.99717 0.00116604 0)
(2.99163 0.00325515 0)
(2.98284 0.00665092 0)
(2.9483 0.0201202 0)
(2.87437 0.0464189 0)
(2.65277 0.13451 0)
(2.01804 0.394745 0)
(1.38947 0.784158 0)
(1.18661 0.829563 0)
(1.17351 0.823806 0)
(1.19174 0.803006 0)
(1.21912 0.772019 0)
(1.23998 0.738732 0)
(1.25903 0.700988 0)
(3 7.11423e-09 0)
(3 9.29631e-08 0)
(3 2.30423e-07 0)
(3 8.34558e-07 0)
(2.99999 1.66184e-06 0)
(2.99999 5.15728e-06 0)
(2.99997 9.79578e-06 0)
(2.99993 2.95351e-05 0)
(2.99984 5.49862e-05 0)
(2.99958 0.000168959 0)
(2.99907 0.000298257 0)
(2.99758 0.00101672 0)
(2.99479 0.00160626 0)
(2.98549 0.0064825 0)
(2.96859 0.0100086 0)
(2.90994 0.0413453 0)
(2.76427 0.085801 0)
(2.36721 0.278434 0)
(1.60373 0.701702 0)
(1.24379 0.829237 0)
(1.19502 0.827154 0)
(1.20001 0.801174 0)
(1.21815 0.761131 0)
(1.23544 0.715212 0)
(1.24998 0.667461 0)
(3 1.36117e-08 0)
(3 5.27121e-08 0)
(3 2.40263e-07 0)
(3 5.22787e-07 0)
(3 1.67456e-06 0)
(2.99999 3.31385e-06 0)
(2.99998 9.9087e-06 0)
(2.99995 1.92042e-05 0)
(2.99988 5.67423e-05 0)
(2.9997 0.000109116 0)
(2.99933 0.000324476 0)
(2.99826 0.000613935 0)
(2.99618 0.00191073 0)
(2.98986 0.00332572 0)
(2.97739 0.0119691 0)
(2.93808 0.0194867 0)
(2.84285 0.0760723 0)
(2.58395 0.1634 0)
(1.87216 0.519246 0)
(1.345 0.80297 0)
(1.21165 0.821779 0)
(1.19962 0.78533 0)
(1.20999 0.737965 0)
(1.22324 0.684653 0)
(1.23727 0.630865 0)
(3 8.16308e-09 0)
(3 4.45014e-08 0)
(3 1.65395e-07 0)
(3 4.24399e-07 0)
(3 1.16588e-06 0)
(2.99999 2.67199e-06 0)
(2.99998 6.92139e-06 0)
(2.99996 1.54846e-05 0)
(2.99991 3.96621e-05 0)
(2.9998 8.81662e-05 0)
(2.99949 0.000226065 0)
(2.9989 0.000500993 0)
(2.99705 0.00129505 0)
(2.99382 0.00287205 0)
(2.98214 0.00751318 0)
(2.96154 0.0175097 0)
(2.88752 0.0462595 0)
(2.70194 0.125515 0)
(2.21369 0.335287 0)
(1.48256 0.778846 0)
(1.21362 0.823131 0)
(1.17782 0.768226 0)
(1.18937 0.705231 0)
(1.20505 0.645393 0)
(1.22149 0.588686 0)
(3 4.35126e-09 0)
(3 3.38079e-08 0)
(3 1.04181e-07 0)
(3 3.13393e-07 0)
(3 7.43103e-07 0)
(3 1.96042e-06 0)
(2.99999 4.41474e-06 0)
(2.99997 1.13273e-05 0)
(2.99994 2.52004e-05 0)
(2.99985 6.43543e-05 0)
(2.99967 0.00014254 0)
(2.99915 0.0003658 0)
(2.99816 0.000803187 0)
(2.99504 0.00212187 0)
(2.98956 0.00453154 0)
(2.97009 0.0127719 0)
(2.9315 0.0286676 0)
(2.8082 0.0819318 0)
(2.46632 0.230697 0)
(1.76316 0.586296 0)
(1.24911 0.778623 0)
(1.15071 0.73393 0)
(1.16074 0.664572 0)
(1.18265 0.600426 0)
(1.20582 0.544365 0)
(3 4.71775e-09 0)
(3 1.73817e-08 0)
(3 8.16709e-08 0)
(3 1.73746e-07 0)
(3 5.67489e-07 0)
(3 1.09884e-06 0)
(2.99999 3.33808e-06 0)
(2.99998 6.32153e-06 0)
(2.99996 1.89342e-05 0)
(2.9999 3.55272e-05 0)
(2.99975 0.000106816 0)
(2.99945 0.000198215 0)
(2.99852 0.000611208 0)
(2.99693 0.0010813 0)
(2.99101 0.00370433 0)
(2.98152 0.00567812 0)
(2.94451 0.0232047 0)
(2.86459 0.0390742 0)
(2.62732 0.141939 0)
(1.9557 0.37012 0)
(1.30296 0.727242 0)
(1.09214 0.69145 0)
(1.10753 0.619783 0)
(1.14613 0.55498 0)
(1.18705 0.504978 0)
(3 1.1024e-09 0)
(3 1.65595e-08 0)
(3 3.9087e-08 0)
(3 1.47331e-07 0)
(3 2.81282e-07 0)
(3 9.03962e-07 0)
(2.99999 1.64603e-06 0)
(2.99999 5.12611e-06 0)
(2.99997 9.14706e-06 0)
(2.99992 2.8531e-05 0)
(2.99981 4.99165e-05 0)
(2.99957 0.000160068 0)
(2.99889 0.000263896 0)
(2.99761 0.000946508 0)
(2.99339 0.00134385 0)
(2.98636 0.00604962 0)
(2.95935 0.00782861 0)
(2.90474 0.039291 0)
(2.73414 0.0695841 0)
(2.21982 0.26207 0)
(1.43728 0.596238 0)
(1.04653 0.62589 0)
(1.05275 0.572212 0)
(1.10763 0.518223 0)
(1.17006 0.477365 0)
(3 7.03219e-10 0)
(3 1.17518e-08 0)
(3 2.67877e-08 0)
(3 1.04289e-07 0)
(3 1.93801e-07 0)
(3 6.4214e-07 0)
(3 1.14323e-06 0)
(2.99999 3.67034e-06 0)
(2.99997 6.43671e-06 0)
(2.99993 2.0652e-05 0)
(2.99985 3.56552e-05 0)
(2.99963 0.000116053 0)
(2.99917 0.0001922 0)
(2.99783 0.000672723 0)
(2.99524 0.000931275 0)
(2.98695 0.00421281 0)
(2.97122 0.00402872 0)
(2.91777 0.0254471 0)
(2.78548 0.0323927 0)
(2.42738 0.136773 0)
(1.51847 0.362035 0)
(0.981582 0.517717 0)
(0.964118 0.50699 0)
(1.04271 0.47978 0)
(1.13134 0.454612 0)
(3 1.6991e-09 0)
(3 5.07309e-09 0)
(3 2.76239e-08 0)
(3 5.22258e-08 0)
(3 1.91493e-07 0)
(3 3.33723e-07 0)
(3 1.13541e-06 0)
(2.99999 1.9431e-06 0)
(2.99998 6.53701e-06 0)
(2.99995 1.10748e-05 0)
(2.99989 3.75802e-05 0)
(2.9997 6.15276e-05 0)
(2.99936 0.000219763 0)
(2.99823 0.000315582 0)
(2.99634 0.00130864 0)
(2.98898 0.00143795 0)
(2.97695 0.00766232 0)
(2.92979 0.00686907 0)
(2.8166 0.045098 0)
(2.50509 0.060476 0)
(1.59623 0.231884 0)
(0.921647 0.430948 0)
(0.847756 0.433456 0)
(0.949898 0.426068 0)
(1.06552 0.423906 0)
(3 7.33703e-10 0)
(3 3.98724e-09 0)
(3 1.48117e-08 0)
(3 3.79932e-08 0)
(3 1.03904e-07 0)
(3 2.37692e-07 0)
(3 6.10782e-07 0)
(2.99999 1.3627e-06 0)
(2.99998 3.45094e-06 0)
(2.99996 7.65047e-06 0)
(2.9999 1.92781e-05 0)
(2.99978 4.28166e-05 0)
(2.99938 0.000106673 0)
(2.99873 0.000239742 0)
(2.99617 0.000596717 0)
(2.99218 0.00129041 0)
(2.97579 0.00352637 0)
(2.94665 0.00777122 0)
(2.83356 0.0211173 0)
(2.531 0.0615358 0)
(1.7956 0.152493 0)
(0.903916 0.381394 0)
(0.724847 0.36271 0)
(0.850087 0.360051 0)
(0.990296 0.38129 0)
(3 -9.55644e-11 0)
(3 3.5461e-09 0)
(3 4.4807e-09 0)
(3 3.0053e-08 0)
(3 3.41424e-08 0)
(3 1.82394e-07 0)
(3 1.96429e-07 0)
(2.99999 1.0291e-06 0)
(2.99999 1.03542e-06 0)
(2.99996 5.72643e-06 0)
(2.99992 5.17443e-06 0)
(2.99978 3.3176e-05 0)
(2.99952 2.15504e-05 0)
(2.99864 0.000221595 0)
(2.99722 4.94417e-05 0)
(2.99141 0.00167328 0)
(2.98232 6.27683e-05 0)
(2.94427 0.0115518 0)
(2.86069 0.00278523 0)
(2.60706 0.0648314 0)
(1.82154 0.115722 0)
(0.924927 0.335336 0)
(0.61249 0.297912 0)
(0.766828 0.296424 0)
(0.928812 0.332912 0)
(3 3.31119e-10 0)
(3 1.78157e-09 0)
(3 6.63154e-09 0)
(3 1.69715e-08 0)
(3 4.67535e-08 0)
(3 1.06936e-07 0)
(3 2.783e-07 0)
(2.99999 6.2085e-07 0)
(2.99999 1.60456e-06 0)
(2.99996 3.55609e-06 0)
(2.99992 9.30519e-06 0)
(2.99979 2.03495e-05 0)
(2.99954 5.63095e-05 0)
(2.99876 0.00011525 0)
(2.99738 0.000358018 0)
(2.99222 0.000720512 0)
(2.98403 0.00226997 0)
(2.94989 0.00477886 0)
(2.87643 0.0157147 0)
(2.64992 0.0379552 0)
(1.92304 0.119513 0)
(0.967478 0.310224 0)
(0.540908 0.260247 0)
(0.722929 0.256242 0)
(0.894826 0.28885 0)
(3 5.91145e-10 0)
(3 2.85309e-10 0)
(3 7.35069e-09 0)
(3 5.28443e-09 0)
(3 4.95452e-08 0)
(3 3.54168e-08 0)
(3 2.91128e-07 0)
(2.99999 1.99509e-07 0)
(2.99999 1.66341e-06 0)
(2.99997 1.05979e-06 0)
(2.99993 9.48433e-06 0)
(2.99982 5.3444e-06 0)
(2.9996 5.52862e-05 0)
(2.99889 2.15342e-05 0)
(2.99772 0.000359979 0)
(2.993 -2.56323e-05 0)
(2.98572 0.00286434 0)
(2.95506 -0.000756596 0)
(2.88964 0.0207887 0)
(2.68712 0.0139152 0)
(2.03951 0.111228 0)
(1.02948 0.265335 0)
(0.517715 0.229283 0)
(0.711646 0.232396 0)
(0.881753 0.254389 0)
(3 4.82547e-10 0)
(3 -1.49041e-10 0)
(3 5.34415e-09 0)
(3 9.65648e-10 0)
(3 3.50984e-08 0)
(3 6.6236e-09 0)
(3 2.00324e-07 0)
(2.99999 1.82321e-08 0)
(2.99999 1.10034e-06 0)
(2.99997 -8.71717e-08 0)
(2.99992 5.97734e-06 0)
(2.99983 -1.97057e-06 0)
(2.99955 3.4294e-05 0)
(2.99901 -2.6866e-05 0)
(2.99734 0.000245717 0)
(2.99429 -0.000291531 0)
(2.98345 0.00213934 0)
(2.96387 -0.00181611 0)
(2.8911 0.0155031 0)
(2.7032 0.00479268 0)
(2.20124 0.0742108 0)
(1.04264 0.19647 0)
(0.471358 0.190837 0)
(0.682866 0.210768 0)
(0.854526 0.228132 0)
(3 -1.19146e-10 0)
(3 2.32687e-09 0)
(3 2.35631e-09 0)
(3 1.9586e-08 0)
(3 1.9402e-08 0)
(3 1.22904e-07 0)
(3 1.24372e-07 0)
(3 7.35432e-07 0)
(2.99999 7.65271e-07 0)
(2.99997 4.39298e-06 0)
(2.99993 4.63951e-06 0)
(2.99984 2.64984e-05 0)
(2.99958 2.57262e-05 0)
(2.99907 0.000167273 0)
(2.9975 0.000101719 0)
(2.99457 0.00108635 0)
(2.98454 1.39182e-06 0)
(2.96611 0.00687922 0)
(2.89878 -0.000882256 0)
(2.72573 0.0367195 0)
(2.26367 0.0421306 0)
(1.07236 0.158331 0)
(0.445561 0.185054 0)
(0.656693 0.203061 0)
(0.822402 0.207419 0)
(3 1.21315e-10 0)
(3 9.34174e-10 0)
(3 2.8903e-09 0)
(3 8.62921e-09 0)
(3 2.05042e-08 0)
(3 5.35592e-08 0)
(3 1.20836e-07 0)
(3 3.05663e-07 0)
(2.99999 6.80413e-07 0)
(2.99997 1.70487e-06 0)
(2.99994 3.76648e-06 0)
(2.99985 9.45296e-06 0)
(2.99967 2.07264e-05 0)
(2.99907 5.2703e-05 0)
(2.99811 0.000115843 0)
(2.99421 0.000299733 0)
(2.98818 0.000682331 0)
(2.96327 0.00180091 0)
(2.91247 0.00428559 0)
(2.75075 0.0128694 0)
(2.25066 0.0362883 0)
(1.20145 0.103317 0)
(0.505697 0.17207 0)
(0.672915 0.1924 0)
(0.818153 0.185344 0)
(3 3.78015e-10 0)
(3 -3.19234e-10 0)
(3 3.83088e-09 0)
(3 -9.71369e-10 0)
(3 2.47612e-08 0)
(3 -6.1804e-09 0)
(3 1.39044e-07 0)
(3 -5.81683e-08 0)
(2.99999 7.47904e-07 0)
(2.99997 -5.31781e-07 0)
(2.99993 3.96482e-06 0)
(2.99985 -4.61756e-06 0)
(2.99962 2.2817e-05 0)
(2.99914 -4.40244e-05 0)
(2.99771 0.000172393 0)
(2.99504 -0.000381035 0)
(2.98579 0.00151916 0)
(2.96908 -0.00257331 0)
(2.90791 0.0102461 0)
(2.75286 -0.00681378 0)
(2.33569 0.0339345 0)
(1.19118 0.0678689 0)
(0.515555 0.144702 0)
(0.658295 0.175585 0)
(0.79443 0.162674 0)
(3 -1.96814e-10 0)
(3 1.45494e-09 0)
(3 4.38877e-11 0)
(3 1.16356e-08 0)
(3 2.25641e-09 0)
(3 7.19693e-08 0)
(3 1.75305e-08 0)
(3 4.30229e-07 0)
(2.99999 1.2671e-07 0)
(2.99998 2.5948e-06 0)
(2.99994 9.21292e-07 0)
(2.99986 1.58818e-05 0)
(2.99964 5.83189e-06 0)
(2.9992 0.000100806 0)
(2.99783 1.21888e-05 0)
(2.99533 0.000701877 0)
(2.98643 -0.000346385 0)
(2.97048 0.00487391 0)
(2.91167 -0.00318885 0)
(2.76259 0.0270289 0)
(2.36022 0.0133043 0)
(1.22384 0.0922056 0)
(0.530177 0.147818 0)
(0.640185 0.168969 0)
(0.764192 0.144146 0)
(3 8.15353e-11 0)
(3 6.35519e-10 0)
(3 1.95015e-09 0)
(3 5.90928e-09 0)
(3 1.39814e-08 0)
(3 3.77613e-08 0)
(3 8.54362e-08 0)
(3 2.28473e-07 0)
(2.99999 5.16821e-07 0)
(2.99998 1.39322e-06 0)
(2.99995 3.19098e-06 0)
(2.99986 8.43523e-06 0)
(2.99969 2.08386e-05 0)
(2.99915 4.62494e-05 0)
(2.99821 0.000142267 0)
(2.99475 0.000220101 0)
(2.98919 0.000756674 0)
(2.96681 0.00123073 0)
(2.92352 0.00371529 0)
(2.77519 0.00766416 0)
(2.3382 0.0229912 0)
(1.37876 0.0594384 0)
(0.619898 0.122295 0)
(0.673453 0.140236 0)
(0.772471 0.122859 0)
(3 2.85214e-11 0)
(3 1.27518e-10 0)
(3 4.92878e-10 0)
(3 1.26964e-09 0)
(3 3.37672e-09 0)
(3 7.64084e-09 0)
(3 1.87268e-08 0)
(3 4.01484e-08 0)
(2.99999 9.77513e-08 0)
(2.99998 1.98404e-07 0)
(2.99994 5.08246e-07 0)
(2.99988 9.61447e-07 0)
(2.99967 3.28807e-06 0)
(2.9993 2.6919e-06 0)
(2.99797 3.60367e-05 0)
(2.99584 -9.76599e-06 0)
(2.98727 0.000354778 0)
(2.97292 0.000377721 0)
(2.91697 0.0023191 0)
(2.77848 0.00627319 0)
(2.40247 0.0157299 0)
(1.31837 0.0559315 0)
(0.610726 0.109669 0)
(0.647993 0.114429 0)
(0.748202 0.10773 0)
(3 -2.85928e-10 0)
(3 6.0058e-10 0)
(3 -2.38273e-09 0)
(3 3.79972e-09 0)
(3 -1.53748e-08 0)
(3 2.14812e-08 0)
(3 -9.22196e-08 0)
(3 1.1966e-07 0)
(2.99999 -5.51907e-07 0)
(2.99998 6.70443e-07 0)
(2.99995 -3.32677e-06 0)
(2.99986 4.12019e-06 0)
(2.99969 -2.0828e-05 0)
(2.99918 3.37294e-05 0)
(2.9982 -0.000145068 0)
(2.99501 0.000355305 0)
(2.98952 -0.000995635 0)
(2.96846 0.00338561 0)
(2.92846 -0.00590417 0)
(2.78652 0.0200753 0)
(2.37938 -0.00447474 0)
(1.46962 0.0576664 0)
(0.672826 0.102997 0)
(0.674459 0.0971385 0)
(0.764221 0.0921756 0)
(3 3.09767e-10 0)
(3 -4.63845e-10 0)
(3 2.88839e-09 0)
(3 -2.38903e-09 0)
(3 1.92997e-08 0)
(3 -1.1548e-08 0)
(3 1.17897e-07 0)
(3 -5.534e-08 0)
(2.99999 7.11651e-07 0)
(2.99998 -2.61709e-07 0)
(2.99995 4.32184e-06 0)
(2.99986 -1.29801e-06 0)
(2.99969 2.65943e-05 0)
(2.9992 -1.01489e-05 0)
(2.99824 0.000180354 0)
(2.99514 -0.000165742 0)
(2.98979 0.0013862 0)
(2.96923 -0.00212354 0)
(2.93047 0.00915163 0)
(2.79174 -0.0106512 0)
(2.39618 0.0316282 0)
(1.50551 0.014296 0)
(0.696857 0.0658024 0)
(0.678791 0.0732165 0)
(0.766207 0.0780952 0)
(3 2.75653e-10 0)
(3 -6.69e-10 0)
(3 2.17179e-09 0)
(3 -4.31452e-09 0)
(3 1.42026e-08 0)
(3 -2.3898e-08 0)
(3 8.66973e-08 0)
(3 -1.29278e-07 0)
(2.99999 5.25888e-07 0)
(2.99998 -6.9343e-07 0)
(2.99995 3.22324e-06 0)
(2.99988 -3.75461e-06 0)
(2.99968 2.01084e-05 0)
(2.9993 -2.26024e-05 0)
(2.99807 0.000139083 0)
(2.99601 -0.000210478 0)
(2.9879 0.00116524 0)
(2.97454 -0.00237315 0)
(2.922 0.00804833 0)
(2.79298 -0.0133893 0)
(2.44083 0.0233631 0)
(1.40485 -0.00306415 0)
(0.677709 0.0400752 0)
(0.649084 0.053996 0)
(0.739826 0.0634247 0)
(3 2.9889e-11 0)
(3 2.39108e-10 0)
(3 7.27722e-10 0)
(3 2.22282e-09 0)
(3 5.24999e-09 0)
(3 1.41286e-08 0)
(3 3.18607e-08 0)
(3 8.33778e-08 0)
(2.99999 1.86479e-07 0)
(2.99998 4.82598e-07 0)
(2.99994 1.07721e-06 0)
(2.99988 2.75299e-06 0)
(2.99968 6.15049e-06 0)
(2.9993 1.53445e-05 0)
(2.99809 3.4459e-05 0)
(2.99599 8.38159e-05 0)
(2.98804 0.000183902 0)
(2.97492 0.000477105 0)
(2.92351 0.00111168 0)
(2.79813 0.00269277 0)
(2.45227 0.0084516 0)
(1.41901 0.0191997 0)
(0.68511 0.041199 0)
(0.639728 0.0441178 0)
(0.726235 0.0479742 0)
(3 -1.90245e-10 0)
(3 1.15462e-09 0)
(3 -3.75271e-10 0)
(3 8.92032e-09 0)
(3 -1.35518e-09 0)
(3 5.35177e-08 0)
(3 -8.23948e-09 0)
(3 3.07201e-07 0)
(2.99999 -6.10487e-08 0)
(2.99998 1.74906e-06 0)
(2.99995 -4.9932e-07 0)
(2.99988 9.94753e-06 0)
(2.99969 -4.80462e-06 0)
(2.99933 5.98482e-05 0)
(2.99813 -6.4356e-05 0)
(2.99613 0.000435365 0)
(2.98822 -0.000832926 0)
(2.97532 0.00330803 0)
(2.92376 -0.00622558 0)
(2.79936 0.0180086 0)
(2.45475 -0.0122439 0)
(1.42125 0.0387316 0)
(0.68399 0.0458861 0)
(0.634703 0.0325659 0)
(0.722751 0.0245662 0)
(3 1.29499e-11 0)
(3 9.89154e-11 0)
(3 3.06462e-10 0)
(3 9.16317e-10 0)
(3 2.18437e-09 0)
(3 5.7328e-09 0)
(3 1.29758e-08 0)
(3 3.31399e-08 0)
(2.99999 7.41043e-08 0)
(2.99998 1.88749e-07 0)
(2.99995 4.20571e-07 0)
(2.99987 1.07515e-06 0)
(2.99972 2.41992e-06 0)
(2.99925 6.05895e-06 0)
(2.9984 1.43794e-05 0)
(2.99535 3.37472e-05 0)
(2.99038 8.0106e-05 0)
(2.97047 0.000205012 0)
(2.93346 0.000492747 0)
(2.79937 0.00120068 0)
(2.42359 0.00400523 0)
(1.57138 0.00985489 0)
(0.752081 0.0248009 0)
(0.688361 0.0232909 0)
(0.766573 0.0213182 0)
(3 2.42561e-10 0)
(3 -7.4333e-10 0)
(3 1.62826e-09 0)
(3 -5.14592e-09 0)
(3 1.02625e-08 0)
(3 -2.97901e-08 0)
(3 6.18584e-08 0)
(3 -1.68036e-07 0)
(2.99999 3.74607e-07 0)
(2.99998 -9.46106e-07 0)
(2.99995 2.32137e-06 0)
(2.99988 -5.39352e-06 0)
(2.99969 1.53147e-05 0)
(2.99934 -3.61262e-05 0)
(2.99815 0.000126611 0)
(2.99619 -0.000335034 0)
(2.98837 0.00113319 0)
(2.97566 -0.00281819 0)
(2.92459 0.00740993 0)
(2.80236 -0.0162369 0)
(2.46159 0.018031 0)
(1.44088 -0.025027 0)
(0.701387 -0.0148006 0)
(0.638815 -0.00343445 0)
(0.725222 0.00574485 0)
(1.11029 0.989215 0)
(1.00345 0.700153 0)
(0.086146 0.417432 0)
(-0.406423 0.0193987 0)
(-0.527514 -0.0155522 0)
(-0.673643 -0.0262303 0)
(-0.727336 -0.0132691 0)
(-0.762128 0.00724878 0)
(-0.805264 0.0163944 0)
(-0.851162 0.015732 0)
(-0.8838 0.0102878 0)
(-0.897286 0.00456942 0)
(-0.89854 -0.000236991 0)
(-0.894265 -0.00396949 0)
(-0.88588 -0.00455275 0)
(-0.869938 -0.00457216 0)
(-0.846017 -0.0053239 0)
(-0.815445 -0.0062763 0)
(-0.780232 -0.00693993 0)
(-0.741519 -0.00739033 0)
(-0.700039 -0.00782933 0)
(-0.656315 -0.00823965 0)
(-0.610634 -0.00869837 0)
(-0.56333 -0.0092478 0)
(-0.514615 -0.00991745 0)
(-0.464639 -0.0107596 0)
(-0.412613 -0.0126628 0)
(-0.360692 -0.0137076 0)
(-0.308813 -0.014718 0)
(-0.257416 -0.0156553 0)
(-0.206495 -0.0169383 0)
(-0.156339 -0.0184991 0)
(-0.107038 -0.0203236 0)
(-0.0578749 -0.0221123 0)
(-0.0102749 -0.0254293 0)
(0.0439566 -0.0246146 0)
(0.0903609 -0.0226364 0)
(0.136627 -0.0219852 0)
(0.180812 -0.0212298 0)
(0.223675 -0.0208208 0)
(0.264765 -0.0200517 0)
(0.303494 -0.019271 0)
(0.340559 -0.0187686 0)
(0.37907 -0.018859 0)
(0.41834 -0.0190445 0)
(0.456129 -0.0185226 0)
(0.492439 -0.0177636 0)
(0.52772 -0.0171279 0)
(0.562098 -0.016563 0)
(0.595666 -0.0160353 0)
(0.628467 -0.0154942 0)
(0.660529 -0.0149792 0)
(0.691871 -0.0144402 0)
(0.722553 -0.0139328 0)
(0.752566 -0.0134118 0)
(0.781962 -0.0129111 0)
(0.810742 -0.012407 0)
(0.838949 -0.0119144 0)
(0.866593 -0.0114277 0)
(0.893692 -0.0109492 0)
(0.920272 -0.0104772 0)
(0.946345 -0.0100164 0)
(0.971928 -0.00956106 0)
(0.997036 -0.00911719 0)
(1.02168 -0.00867847 0)
(1.04587 -0.00824994 0)
(1.06961 -0.00782573 0)
(1.0929 -0.00741153 0)
(1.11575 -0.00700232 0)
(1.13816 -0.00660432 0)
(1.16012 -0.00621446 0)
(1.18165 -0.00583828 0)