/*--------------------------------*- C++ -*----------------------------------*\
| =========                 |                                                 |
| \\      /  F ield         | OpenFOAM: The Open Source CFD Toolbox           |
|  \\    /   O peration     | Version:  2412                                  |
|   \\  /    A nd           | Website:  www.openfoam.com                      |
|    \\/     M anipulation  |                                                 |
\*---------------------------------------------------------------------------*/
FoamFile
{
    version     2.0;
    format      ascii;
    arch        "LSB;label=32;scalar=64";
    class       volScalarField;
    location    "3";
    object      p;
}
// * * * * * * * * * * * * * * * * * * * * * * * * * * * * * * * * * * * * * //

dimensions      [0 2 -2 0 0 0 0];

internalField   nonuniform List<scalar> 
20000
(
105873
179178
254447
267762
260002
284904
351013
436118
516342
579544
624627
655987
678819
696884
712181
725487
737066
746991
755426
762697
769080
774524
779137
783537
788518
794519
801448
808873
816299
823327
829785
835711
841155
846109
850520
854436
857811
860627
863395
866622
869956
872658
874330
875063
875211
875133
874190
871435
867386
862871
858039
853235
846023
836705
830947
829276
829725
831340
833675
836353
839050
841603
844106
846838
849712
852792
856121
859623
863182
866763
870324
873962
877879
882503
887865
893416
898370
902378
905425
907774
909797
911827
914031
916443
918965
921887
924694
926577
929793
934815
938262
937511
933148
927635
923423
922005
923822
928593
935710
944743
83237.7
141175
220942
239494
235769
266714
340860
433522
518866
584473
630082
661115
683453
701120
716087
729015
740087
749464
757431
764449
770709
775873
780174
784345
789041
794568
800846
807589
814470
821241
827790
834090
840098
845746
850946
855668
859731
863055
866015
868870
871460
873549
875055
876098
876947
877741
878434
878016
875564
871232
864522
854410
841130
829593
826817
829553
832345
834397
836195
837938
839579
840976
842466
844490
847450
851078
854933
858671
861933
864732
867707
871360
875748
880686
885740
890569
894919
898677
901922
904831
907589
910314
913032
915724
918355
920929
923507
926079
928581
930428
930604
928686
925335
921852
919485
918993
920591
924048
928807
934433
25335.9
45432.7
139249
174493
182451
226285
315269
420572
513357
581694
627629
658503
680985
699068
714399
727499
738452
747550
754981
760753
765625
770458
775431
780911
786807
793058
799629
806483
813546
820700
827834
834896
841880
848805
855591
861960
867324
871038
873911
876663
878640
879563
879356
878236
876764
875386
872305
866948
861251
857090
853251
848329
843632
840809
840335
841452
842714
843323
843456
843520
843845
844665
846185
848397
851155
854254
857402
860367
863108
865805
868776
872269
876308
880730
885299
889814
894148
898241
902078
905658
908982
912045
914849
917389
919633
921506
922904
923652
923592
922835
921717
920555
919583
919040
919233
920463
922929
926589
931104
936185
-105339
-175477
-52605.3
27344.6
73261.9
153055
272743
396807
496114
564398
609338
640513
664376
683630
699321
712436
723341
731900
738856
744981
751102
757888
765189
772790
780505
788156
795632
803019
810625
818663
827105
835738
844309
852552
859969
865709
869302
870835
871148
871216
870758
869078
865762
861182
856854
854308
853109
851833
850694
850224
849680
848360
846352
844594
843708
843777
844198
844600
845011
845630
846627
848078
849979
852285
854915
857752
860652
863526
866391
869356
872550
876063
879898
883977
888186
892403
896514
900415
904020
907256
910074
912449
914373
915853
916893
917499
917696
917566
917276
917076
917213
917796
918791
920141
921886
924175
927147
930792
934874
939217
-391841
-683022
-509504
-318137
-174072
-6761.11
178262
333125
437476
503949
549293
583608
612171
636251
656387
673642
688776
701920
713428
723965
734001
743674
753003
762063
770916
779589
788076
796515
805059
813708
822469
831103
838636
844281
848025
850684
851655
850913
849249
847701
846564
845612
844726
844036
844087
844736
845205
845192
845069
845032
845106
845044
844694
844292
844137
844371
844962
845810
846875
848185
849789
851714
853948
856436
859112
861911
864798
867775
870864
874085
877441
880917
884483
888097
891703
895234
898612
901761
904609
907104
909215
910941
912319
913416
914316
915102
915839
916572
917350
918262
919423
920915
922743
924872
927294
930045
933140
936514
939982
943451
-1.00287e+06
-1.65864e+06
-1.41884e+06
-940121
-546400
-236843
8392.68
173841
279285
357327
421472
475377
521122
559887
593150
622096
647263
668892
687373
703285
717208
729572
740695
750922
760738
770613
780623
790476
799868
808509
816039
822185
827111
830612
832130
832513
832526
832275
832026
832033
832526
833391
834291
835091
835961
836959
838001
838977
839824
840562
841244
841853
842394
842945
843609
844470
845564
846887
848427
850187
852181
854413
856862
859488
862246
865103
868041
871052
874128
877248
880378
883474
886500
889432
892261
894974
897554
899975
902208
904234
906055
907686
909154
910475
911696
912886
914089
915331
916645
918091
919759
921730
924020
926592
929400
932400
935542
938748
941909
945049
-4.76605e+06
-5.93253e+06
-3.85725e+06
-2.60788e+06
-1.88245e+06
-1.22285e+06
-693902
-337359
-104727
65424.2
198830
305411
391435
461206
518168
564890
603063
633903
658719
678979
696032
710918
724446
737282
749777
761808
772975
782961
791748
799269
805316
809481
812022
813604
814778
815685
816580
817694
819123
820742
822372
823937
825489
827114
828861
830651
832338
833857
835227
836502
837740
838976
840225
841514
842887
844382
846020
847804
849742
851849
854136
856603
859239
862015
864885
867792
870687
873545
876355
879110
881804
884421
886944
889363
891681
893910
896064
898156
900189
902154
904031
905820
907558
909274
910993
912728
914485
916299
918224
920302
922569
925045
927714
930523
933405
936306
939178
941978
944660
947314
1.40085e+07
-2.02172e+07
-1.11382e+07
-7.14448e+06
-4.54713e+06
-2.88405e+06
-1.79353e+06
-1.07546e+06
-592329
-255837
-15702
159218
289109
387325
462921
521844
567974
604164
632887
656412
676573
694568
710993
726009
739582
751677
762285
771336
778839
784523
788646
791836
794517
796822
798959
801166
803512
805955
808411
810851
813315
815848
818422
820918
823248
825412
827437
829335
831128
832863
834594
836356
838170
840048
842000
844031
846138
848317
850570
852918
855379
857955
860630
863378
866164
868936
871641
874255
876775
879211
881568
883851
886065
888221
890336
892418
894472
896504
898536
900595
902684
904793
906912
909045
911208
913402
915619
917879
920219
922660
925200
927819
930487
933173
935857
938524
941155
943727
946220
948733
9.1821e+07
-7.09837e+07
-2.98002e+07
-1.80766e+07
-1.05533e+07
-6.2889e+06
-3.77511e+06
-2.25597e+06
-1.30977e+06
-701726
-299785
-26853.7
163281
298975
398096
472026
528233
571864
606605
635109
659177
679896
697852
713389
726739
737950
747208
754753
760839
765805
770093
774001
777703
781331
784948
788563
792113
795619
799127
802650
806126
809437
812520
815385
818048
820546
822921
825209
827436
829628
831815
834030
836295
838613
840973
843372
845811
848289
850800
853336
855909
858528
861188
863870
866547
869185
871753
874239
876644
878976
881241
883439
885575
887661
889724
891791
893878
895984
898114
900285
902518
904823
907182
909569
911985
914446
916960
919521
922109
924694
927255
929802
932357
934938
937551
940191
942830
945432
947960
950499
2.1091e+07
-3.99398e+07
-2.2084e+07
-1.40905e+07
-8.85823e+06
-5.60607e+06
-3.57265e+06
-2.26689e+06
-1.40301e+06
-814879
-405911
-116792
90740.3
241730
353037
436280
499563
548564
587249
618342
643650
664484
681719
695851
707579
717555
726098
733386
739844
745902
751646
757103
762375
767533
772562
777467
782271
786935
791368
795537
799469
803177
806676
809976
813084
816023
818826
821537
824190
826806
829400
831988
834590
837223
839886
842562
845233
847898
850565
853232
855895
858552
861201
863841
866461
869044
871574
874041
876442
878786
881078
883323
885518
887661
889767
891864
893984
896150
898366
900635
902974
905401
907910
910492
913139
915834
918545
921225
923843
926397
928912
931436
934015
936669
939386
942136
944874
947550
950117
952645
-30999.1
-1.45636e+07
-1.33283e+07
-9.52322e+06
-6.44299e+06
-4.21519e+06
-2.73394e+06
-1.76538e+06
-1.11587e+06
-659308
-326778
-80263.6
104711
244299
350031
430503
492163
539791
576919
606015
628734
646737
661557
674095
684885
694594
703669
712181
720131
727716
735085
742196
749019
755580
761865
767826
773456
778755
783727
788395
792794
796956
800912
804682
808275
811703
814981
818135
821200
824209
827185
830134
833056
835958
838847
841722
844579
847411
850216
852989
855729
858435
861110
863754
866371
868961
871519
874040
876516
878948
881340
883693
886005
888267
890477
892654
894832
897044
899315
901658
904085
906612
909240
911948
914700
917450
920160
922815
925432
928044
930685
933379
936142
938962
941804
944622
947372
950012
952503
954918
-1.65008e+06
-5.61752e+06
-5.88001e+06
-4.58955e+06
-3.31975e+06
-2.30007e+06
-1.53058e+06
-977585
-589025
-311333
-104331
55691.1
183382
286373
369339
435923
489126
531433
564930
591357
612234
629045
643116
655374
666379
676549
686135
695309
704192
712803
721157
729252
737058
744524
751609
758298
764590
770494
776028
781219
786104
790728
795129
799339
803380
807267
811008
814615
818108
821514
824858
828150
831391
834581
837726
840825
843872
846864
849802
852687
855524
858316
861063
863767
866436
869075
871693
874289
876858
879394
881900
884375
886816
889208
891538
893815
896066
898326
900630
903012
905496
908084
910761
913497
916258
919021
921783
924556
927358
930199
933077
935975
938871
941744
944563
947292
949903
952378
954699
956952
-1.11714e+06
-2.28738e+06
-2.37609e+06
-2.13814e+06
-1.80975e+06
-1.38393e+06
-924445
-531052
-245399
-52537
81613.4
182750
264285
332700
391283
441699
484953
521808
552919
578908
600434
618230
632979
645264
655719
665009
673694
682214
690800
699474
708168
716801
725259
733438
741254
748656
755619
762142
768243
773955
779320
784386
789203
793816
798255
802539
806683
810698
814596
818393
822108
825753
829327
832826
836246
839587
842849
846033
849141
852177
855144
858052
860908
863719
866490
869228
871939
874626
877289
879927
882534
885109
887651
890158
892612
895002
897344
899677
902047
904490
907027
909661
912379
915168
918017
920920
923868
926852
929854
932854
935826
938745
941584
944331
946977
949509
951917
954198
956351
958476
-587804
-1.145e+06
-1.15271e+06
-1.08507e+06
-998385
-824034
-569683
-302953
-80619
79675.4
188256
263486
320082
367076
408911
447352
482953
515713
545341
571439
593707
612092
626854
638535
647920
655877
663213
670559
678300
686562
695274
704250
713270
722132
730681
738808
746454
753605
760280
766516
772356
777852
783061
788042
792838
797478
801977
806353
810619
814785
818857
822840
826734
830536
834244
837852
841360
844767
848076
851292
854426
857489
860491
863443
866352
869222
872057
874858
877623
880352
883049
885715
888348
890949
893516
896043
898530
900998
903484
906024
908647
911368
914192
917111
920107
923154
926223
929280
932299
935253
938126
940905
943580
946144
948603
950964
953227
955391
957458
959528
-296432
-591958
-572089
-544826
-531506
-462560
-320987
-143443
24595.4
157259
250914
314269
358572
392712
422311
450456
478560
506872
534780
561150
584751
604659
620513
632564
641567
648558
654616
660657
667299
674818
683185
692175
701487
710838
719995
728783
737086
744852
752088
758838
765157
771096
776708
782054
787195
792172
797007
801716
806313
810806
815201
819498
823696
827789
831771
835638
839389
843024
846550
849973
853304
856553
859730
862847
865908
868919
871881
874801
877686
880541
883361
886139
888879
891594
894290
896960
899598
902217
904852
907544
910321
913191
916147
919164
922213
925260
928276
931236
934123
936924
939636
942258
944791
947235
949592
951873
954086
956230
958302
960389
-130261
-286272
-258805
-247678
-259062
-234131
-150560
-28647
98541.8
207610
290181
348217
387795
415348
436378
455232
474964
497106
521625
547221
571958
593978
612041
625773
635616
642580
647930
652877
658355
664888
672583
681241
690512
700040
709537
718787
727626
735948
743716
750959
757739
764117
770148
775888
781393
786709
791869
796895
801803
806599
811287
815867
820334
824683
828911
833015
836995
840855
844599
848233
851767
855211
858574
861868
865103
868282
871406
874476
877495
880473
883423
886348
889239
892086
894893
897677
900458
903259
906097
908985
911923
914898
917892
920883
923850
926777
929649
932458
935198
937869
940471
943006
945479
947890
950239
952528
954765
956954
959089
961250
-32344.6
-108930
-78250.6
-71315.9
-87909.3
-81735.4
-31743.6
51513.7
146152
234851
309031
366357
407531
434867
452088
463982
475370
489806
508731
531449
555826
579295
599726
615944
627819
636053
641837
646505
651245
656879
663765
671843
680793
690219
699778
709219
718360
727072
735282
742978
750198
756999
763441
769577
775456
781122
786612
791951
797152
802224
807172
811999
816701
821279
825728
830050
834246
838319
842275
846120
849860
853506
857066
860547
863959
867308
870598
873833
877015
880152
883247
886301
889312
892288
895245
898204
901177
904168
907172
910177
913171
916142
919080
921979
924834
927643
930405
933120
935787
938406
940979
943506
945988
948426
950819
953162
955459
957712
959921
962162
28801.1
649.769
33434
40350.6
25390.6
25650.6
57609.7
113642
179971
247379
311195
367873
413591
445623
464309
473483
478978
486284
498715
516802
538848
562088
583830
602217
616504
626925
634355
639962
644939
650284
656601
664055
672490
681578
690966
700375
709602
718502
726987
735022
742615
749803
756630
763143
769386
775398
781211
786848
792325
797653
802841
807893
812812
817598
822252
826777
831176
835452
839611
843658
847600
851445
855200
858875
862475
866007
869475
872879
876223
879511
882752
885954
889129
892284
895426
898556
901669
904758
907816
910836
913813
916746
919635
922482
925290
928061
930797
933500
936168
938802
941401
943964
946490
948979
951430
953839
956201
958519
960792
963099
70180
72187.7
105099
110770
95683.1
94342.4
120908
165081
213389
261820
311743
362311
408506
444258
466474
476810
480557
483919
491493
505054
523765
545243
566778
586211
602347
614953
624519
631908
638098
644017
650372
657518
665491
674119
683150
692332
701456
710370
718975
727219
735085
742585
749745
756596
763172
769505
775619
781535
787271
792840
798252
803515
808636
813619
818468
823188
827783
832258
836617
840866
845011
849057
853012
856880
860668
864379
868020
871596
875111
878574
881991
885368
888708
892011
895274
898494
901667
904793
907871
910904
913892
916840
919749
922621
925459
928264
931037
933779
936490
939169
941815
944428
947007
949550
952058
954528
956954
959334
961666
964031
96907
119995
153723
160295
145878
141080
161671
199932
241925
282010
321823
362870
402595
435835
458605
470736
475806
479055
484972
495861
511694
530842
551081
570398
587447
601670
613162
622440
630228
637277
644221
651481
659243
667505
676146
684996
693888
702682
711279
719613
727648
735375
742796
749928
756790
763402
769784
775954
781929
787724
793352
798822
804144
809325
814372
819290
824083
828757
833316
837765
842109
846353
850501
854561
858537
862434
866259
870015
873706
877337
880909
884423
887881
891282
894628
897919
901157
904345
907487
910585
913642
916661
919641
922583
925489
928358
931192
933992
936759
939492
942193
944860
947492
950091
952654
955182
957671
960115
962509
964934
116086
155319
186757
191254
179459
175404
191985
225068
263713
300795
335245
368182
399118
425562
445100
457397
464568
470060
477099
487610
501937
519187
537842
556341
573476
588558
601413
612262
621559
629841
637617
645288
653109
661192
669537
678074
686702
695317
703830
712171
720293
728166
735778
743127
750219
757066
763683
770084
776284
782298
788140
793820
799348
804733
809981
815100
820093
824967
829725
834372
838913
843352
847694
851944
856105
860182
864178
868097
871942
875714
879416
883052
886622
890131
893580
896974
900315
903606
906849
910046
913199
916309
919376
922401
925384
928327
931231
934097
936928
939723
942484
945211
947904
950563
953187
955776
958330
960843
963306
965797
129504
179194
209751
214170
204724
201092
214662
243818
279900
315168
346280
373109
396237
415677
431135
442819
451846
459987
469047
480270
494063
510039
527298
544766
561485
576796
590391
602279
612690
621977
630521
638670
646690
654753
662939
671257
679670
688114
696521
704827
712980
720940
728682
736194
743472
750519
757344
763959
770374
776603
782658
788549
794286
799878
805330
810651
815844
820916
825871
830712
835444
840071
844597
849025
853359
857603
861759
865833
869826
873741
877583
881355
885059
888698
892276
895795
899257
902665
906020
909324
912578
915784
918943
922055
925122
928146
931129
934071
936975
939842
942674
945470
948231
950958
953649
956306
958929
961515
964052
966616
139629
197024
227054
231085
222698
219551
231833
258438
291609
323769
351123
373361
391696
407274
420697
432308
442616
452443
462759
474377
487698
502630
518677
535120
551226
566403
580286
592748
603864
613845
622974
631540
639797
647939
656087
664300
672584
680912
689237
697506
705670
713687
721528
729171
736607
743831
750847
757661
764281
770718
776981
783079
789021
794816
800469
805987
811376
816640
821783
826811
831727
836534
841236
845838
850342
854753
859073
863306
867456
871526
875518
879436
883283
887061
890773
894421
898007
901534
905003
908416
911775
915082
918339
921546
924706
927820
930890
933918
936905
939854
942764
945638
948475
951276
954042
956772
959468
962128
964744
967385
147133
209975
239468
243491
236274
233591
244456
268064
297706
326682
351523
371873
388816
403454
416395
427929
438388
448338
458521
469630
482097
495978
510973
526547
542080
557016
570955
583693
595209
605627
615156
624043
632521
640784
648970
657164
665400
673673
681956
690210
698392
706462
714388
722146
729721
737104
744293
751290
758101
764731
771190
777484
783622
789610
795455
801163
806739
812189
817516
822726
827821
832805
837683
842458
847132
851710
856195
860590
864898
869122
873265
877330
881319
885236
889081
892859
896570
900218
903804
907331
910800
914215
917576
920886
924146
927358
930523
933644
936722
939759
942755
945712
948631
951513
954358
957167
959940
962678
965374
968097
153010
219906
248772
252721
246248
243545
252917
274086
301327
328617
352602
372631
389393
403712
416108
426908
436519
445558
454780
464887
476337
489241
503370
518252
533314
548012
561924
574801
586566
597284
607116
616272
624962
633375
641654
649894
658145
666421
674709
682979
691198
699328
707338
715202
722903
730428
737773
744936
751918
758726
765365
771841
778160
784331
790357
796246
802003
807631
813136
818521
823790
828947
833995
838938
843779
848520
853166
857718
862181
866556
870847
875056
879187
883240
887220
891127
894966
898737
902445
906090
909675
913202
916674
920092
923458
926773
930039
933258
936431
939561
942648
945694
948700
951667
954596
957487
960342
963161
965940
968747
157538
227348
255514
259435
253746
251319
259876
279509
305171
331277
354527
374069
390345
404029
415610
425465
434076
442114
450365
459547
470134
482258
495724
510092
524809
539334
553230
566216
578174
589130
599207
608587
617465
626021
634401
642707
650999
659303
667617
675920
684183
692374
700463
708423
716235
723885
731366
738674
745810
752776
759577
766218
772704
779043
785238
791296
797221
803017
808690
814242
819677
824998
830210
835314
840315
845214
850015
854720
859333
863856
868292
872644
876913
881103
885216
889255
893222
897120
900951
904717
908422
912066
915652
919181
922656
926077
929448
932768
936041
939267
942448
945587
948683
951739
954755
957733
960673
963577
966440
969334
161146
233197
260766
264786
259923
257855
265754
283971
308018
332726
354929
373707
389373
402492
413497
422751
430733
438120
445703
454211
464139
475650
488584
502532
516959
531328
545189
558238
570328
581451
591706
601252
610271
618938
627399
635761
644093
652426
660768
669104
677409
685655
693811
701853
709761
717519
725117
732552
739822
746928
753873
760662
767300
773791
780141
786355
792436
798390
804219
809928
815520
820997
826364
831622
836775
841826
846776
851630
856388
861055
865632
870123
874530
878855
883101
887271
891367
895392
899348
903237
907062
910824
914526
918168
921753
925283
928759
932183
935557
938882
942161
945395
948585
951732
954839
957906
960934
963925
966875
969857
164043
237796
264778
268861
264676
262864
270117
287013
309557
332967
354231
372405
387694
400556
411338
420343
428015
435012
442120
450083
459426
470356
482753
496244
510320
524450
538179
551185
563298
574486
584824
594454
603547
612271
620773
629161
637510
645857
654214
662571
670908
679197
687409
695520
703508
711357
719058
726603
733990
741219
748292
755213
761987
768616
775107
781463
787689
793788
799763
805618
811357
816981
822494
827898
833196
838391
843485
848480
853379
858184
862899
867526
872067
876525
880903
885203
889427
893578
897659
901670
905615
909495
913312
917067
920763
924402
927985
931513
934990
938416
941794
945125
948410
951652
954851
958010
961128
964208
967246
970317
166392
241450
267877
272013
268429
266863
273590
289376
310642
332944
353415
371101
386124
398842
409516
418388
425856
432551
439256
446728
455524
465890
477752
490774
504471
518322
531871
544781
556862
568062
578434
588106
597237
605990
614509
622906
631257
639606
647968
656337
664695
673016
681273
689440
697496
705424
713212
720852
728341
735678
742865
749904
756799
763554
770172
776658
783015
789247
795357
801348
807222
812984
818633
824175
829610
834941
840170
845301
850334
855274
860122
864881
869553
874142
878648
883075
887425
891701
895903
900035
904098
908094
912025
915893
919699
923446
927136
930770
934350
937878
941356
944785
948167
951504
954798
958049
961259
964429
967557
970718
168316
244384
270296
274480
271430
270092
276375
291198
311340
332648
352390
369619
384393
396988
407592
416385
423717
430190
436577
443643
451971
461844
473226
485816
499154
512731
526091
538887
550913
562098
572480
582170
591318
600082
608604
616997
625341
633683
642041
650413
658783
667127
675418
683631
691743
699736
707599
715321
722900
730332
737619
744762
751765
758631
765364
771967
778444
784797
791030
797146
803146
809034
814812
820481
826044
831504
836862
842122
847284
852352
857328
862215
867014
871729
876360
880911
885383
889779
894100
898349
902527
906637
910681
914659
918575
922430
926226
929965
933648
937277
940855
944384
947864
951297
954685
958030
961332
964594
967812
971063
169904
246761
272202
276431
273855
272724
278626
292609
311759
332178
351259
368069
382617
395115
405684
414444
421702
428027
434175
440915
448851
458297
469250
481444
494441
507747
520908
533570
545515
556658
567020
576702
585844
594598
603105
611478
619800
628121
636462
644826
653197
661552
669865
678111
686267
694314
702238
710030
717685
725199
732573
739808
746907
753872
760707
767415
774000
780463
786809
793038
799155
805159
811055
816843
822527
828108
833588
838969
844254
849445
854543
859552
864473
869308
874059
878728
883318
887830
892267
896629
900920
905142
909295
913382
917406
921367
925267
929110
932895
936626
940304
943931
947508
951037
954521
957959
961355
964708
968017
971358
171226
248704
273716
277990
275835
274890
280461
293708
311979
331602
350084
366508
380849
393262
403813
412568
419789
426012
431977
438453
446057
455130
465702
477534
490213
503258
516219
528740
540593
551677
562004
571662
580783
589514
597994
606337
614627
622918
631234
639579
647940
656296
664621
672889
681077
689166
697141
704991
712710
720295
727744
735059
742242
749295
756221
763023
769704
776267
782714
789047
795269
801381
807386
813285
819081
824775
830369
835865
841266
846573
851787
856911
861947
866897
871763
876546
881248
885872
890420
894893
899293
903622
907883
912076
916205
920270
924273
928217
932104
935934
939711
943436
947110
950735
954313
957845
961332
964777
968176
971608
172334
250303
274930
279249
277470
276692
281973
294567
312058
330969
348908
364977
379126
391463
402004
410769
417977
424132
429955
436213
443535
452283
462516
474021
486407
499206
511975
524354
536108
547127
557409
567032
576121
584820
593265
601569
609820
618073
626356
634674
643016
651364
659690
667970
676180
684300
692315
700212
707984
715628
723142
730527
737783
744913
751919
758805
765572
772224
778763
785190
791508
797719
803825
809826
815726
821525
827226
832830
838339
843754
849077
854310
859455
864514
869488
874379
879189
883921
888575
893154
897660
902094
906458
910755
914985
919152
923256
927300
931285
935214
939088
942909
946678
950398
954069
957694
961273
964809
968297
971818
173268
251629
275910
280277
278837
278207
283229
295245
312040
330311
347758
363502
377472
389739
400275
409058
416267
422377
428090
434166
441245
449709
459639
470848
482964
495536
508123
520365
532021
542970
553202
562785
571838
580499
588902
597163
605369
613579
621821
630105
638422
646752
655072
663355
671577
679718
687762
695697
703513
711207
718775
726219
733538
740736
747813
754773
761617
768349
774970
781483
787888
794189
800387
806483
812478
818375
824174
829878
835487
841003
846428
851764
857011
862173
867249
872243
877156
881990
886746
891427
896035
900570
905035
909431
913761
918026
922228
926369
930451
934475
938445
942360
946223
950035
953799
957514
961184
964808
968385
971994
174060
252735
276710
281126
279993
279496
284286
295784
311955
329652
346653
362100
375904
388105
398638
407443
414663
420743
426367
432290
439158
447370
457028
467969
479840
492201
504618
516731
528292
539172
549353
558894
567907
576528
584888
593102
601260
609422
617620
625865
634149
642456
650761
659039
667265
675420
683484
691447
699298
707032
714647
722141
729515
736771
743910
750934
757847
764650
771346
777935
784420
790803
797084
803266
809349
815335
821225
827021
832723
838333
843853
849285
854628
859886
865060
870152
875162
880094
884948
889726
894430
899062
903624
908116
912542
916902
921199
925435
929611
933729
937791
941798
945753
949656
953509
957314
961071
964784
968447
972142
174735
253664
277367
281838
280984
280605
285185
296217
311829
329007
345604
360780
374431
386571
397102
405930
413166
419226
424777
430569
437251
445237
454651
465349
476996
489163
501423
513415
524886
535701
545832
555331
564305
572885
581200
589367
597475
605587
613738
621940
630188
638465
646750
655016
663240
671400
679478
687461
695339
703106
710758
718295
725715
733021
740214
747296
754270
761136
767897
774556
781112
787568
793926
800185
806348
812416
818389
824269
830057
835755
841363
846884
852318
857667
862932
868116
873219
878243
883190
888061
892858
897583
902237
906822
911340
915793
920182
924509
928776
932984
937136
941233
945276
949267
953208
957099
960943
964741
968489
972269
175314
254449
277913
282443
281844
281571
285960
296571
311677
328388
344620
359547
373058
385141
395671
404522
411776
417824
423314
428990
435506
443290
452482
462958
474399
486389
498504
510385
521773
532527
542611
552071
561007
569547
577819
585939
593997
602059
610160
618317
626525
634769
643029
651278
659493
667653
675738
683734
691632
699425
707108
714680
722140
729489
736729
743860
750887
757809
764629
771348
777968
784491
790916
797246
803482
809623
815673
821631
827499
833277
838968
844571
850090
855524
860876
866146
871336
876448
881483
886443
891328
896141
900884
905558
910165
914706
919183
923599
927954
932250
936489
940672
944802
948878
952904
956879
960807
964687
968518
972380
175812
255116
278370
282964
282600
282422
286636
296865
311514
327803
343703
358405
371786
383817
394346
403220
410493
416533
421971
427544
433911
441510
450499
460772
472025
483852
495834
507612
518925
529623
539664
549088
557990
566492
574723
582797
590807
598818
606870
614980
623146
631355
639586
647814
656016
664169
672256
680261
688173
695985
703693
711294
718787
726172
733452
740627
747699
754670
761541
768315
774991
781573
788060
794453
800754
806964
813083
819113
825054
830907
836674
842355
847952
853466
858898
864250
869523
874717
879836
884879
889849
894746
899574
904333
909024
913651
918213
922714
927154
931534
935857
940124
944336
948495
952603
956660
960668
964629
968539
972482
176242
255685
278758
283419
283274
283181
287234
297114
311349
327255
342855
357351
370615
382597
393126
402023
409316
415350
420742
426222
432452
439882
448686
458772
469851
481528
493388
505072
516316
526964
536967
546359
555230
563699
571892
579923
587886
595849
603852
611915
620038
628209
636408
644612
652797
660940
669024
677033
684954
692781
700508
708132
715652
723068
730381
737592
744704
751717
758634
765455
772182
778816
785358
791809
798170
804441
810624
816719
822727
828650
834487
840241
845911
851499
857007
862435
867785
873058
878255
883378
888427
893405
898314
903154
907927
912635
917279
921861
926382
930843
935247
939594
943886
948125
952311
956447
960533
964572
968559
972578
176615
256174
279091
283824
283881
283866
287770
297332
311190
326748
342075
356385
369541
381480
392009
400928
408240
414271
419622
425018
431122
438396
447027
456940
467859
479396
491145
502743
513924
524528
534499
543864
552708
561147
569306
577298
585217
593133
601088
609104
617184
625316
633482
641660
649825
657956
666033
674041
681967
689804
697545
705187
712728
720170
727511
734754
741899
748949
755905
762768
769539
776220
782812
789315
795729
802057
808298
814454
820524
826510
832413
838233
843971
849629
855208
860707
866130
871476
876747
881945
887070
892125
897110
902027
906878
911664
916386
921046
925645
930184
934665
939089
943458
947773
952035
956246
960408
964521
968582
972676
176939
256596
279379
284188
284436
284492
288257
297527
311041
326283
341362
355503
368562
380462
390993
399933
407265
413293
418607
423924
429911
437039
445510
455261
466030
477440
489084
500605
511730
522296
532239
541582
550404
558819
566947
574903
582781
590653
598562
606533
614570
622663
630795
638945
647088
655204
663271
671275
679202
687044
694795
702451
710009
717471
724835
732104
739279
746361
753351
760251
767062
773785
780421
786970
793434
799813
806107
812317
818445
824490
830453
836335
842136
847859
853503
859070
864560
869975
875317
880585
885783
890910
895968
900959
905884
910744
915540
920274
924947
929561
934116
938614
943056
947444
951779