/*--------------------------------*- C++ -*----------------------------------*\
| =========                 |                                                 |
| \\      /  F ield         | OpenFOAM: The Open Source CFD Toolbox           |
|  \\    /   O peration     | Version:  2412                                  |
|   \\  /    A nd           | Website:  www.openfoam.com                      |
|    \\/     M anipulation  |                                                 |
\*---------------------------------------------------------------------------*/
FoamFile
{
    version     2.0;
    format      ascii;
    arch        "LSB;label=32;scalar=64";
    class       surfaceScalarField;
    location    "3";
    object      phi;
}
// * * * * * * * * * * * * * * * * * * * * * * * * * * * * * * * * * * * * * //

dimensions      [0 3 -1 0 0 0 0];

oriented        oriented;

internalField   nonuniform List<scalar> 
39700
(
6.4948
0.0715172
6.2982
0.196397
5.9912
0.306466
5.60137
0.389048
5.15516
0.445155
4.67748
0.476334
4.18857
0.487231
3.70189
0.484633
3.22524
0.474182
2.76376
0.458531
2.32264
0.437624
1.90821
0.410318
1.52722
0.376169
1.18516
0.336418
0.884752
0.29384
0.625643
0.251515
0.404854
0.212076
0.217704
0.177252
0.0594557
0.147122
-0.0743458
0.121424
-0.186615
0.0986112
-0.28089
0.0791817
-0.357933
0.0605652
-0.431913
0.0570849
-0.513985
0.0649632
-0.612665
0.0813242
-0.728039
0.0977645
-0.853666
0.1077
-0.980929
0.108896
-1.10238
0.102482
-1.21271
0.0905617
-1.30773
0.0742791
-1.38312
0.0535
-1.43453
0.0282439
-1.45874
-0.000367221
-1.45409
-0.0306706
-1.42201
-0.0595388
-1.37069
-0.0801843
-1.3225
-0.0786643
-1.30089
-0.0541196
-1.31232
-0.0235905
-1.34196
-0.00867325
-1.35324
-0.0320188
-1.27964
-0.125725
-1.00794
-0.342198
-0.705501
-0.416164
-0.790841
-0.0152175
-0.897878
0.0543947
-0.948896
0.00938426
-1.01581
0.0248373
-1.21916
0.159817
-1.75561
0.485058
-2.8341
1.02931
-3.78808
0.922798
-4.28365
0.476434
-4.46736
0.16848
-4.47936
-0.00127812
-4.39497
-0.0960121
-4.24296
-0.162511
-4.03445
-0.218301
-3.7817
-0.26218
-3.54283
-0.248267
-3.36428
-0.188279
-3.1619
-0.212143
-2.92447
-0.247003
-2.65319
-0.28129
-2.35776
-0.306415
-2.05365
-0.316421
-1.7601
-0.307024
-1.48806
-0.286651
-1.23556
-0.269287
-0.992566
-0.26431
-0.764748
-0.259695
-0.574456
-0.239471
-0.367983
-0.249278
-0.132143
-0.257855
0.111038
-0.256426
0.353235
-0.252478
0.592184
-0.247133
0.825929
-0.240419
1.05259
-0.232206
1.27045
-0.222525
1.47809
-0.211604
1.67452
-0.199829
1.8594
-0.1878
2.03329
-0.176396
2.19618
-0.165047
2.34723
-0.1529
2.48642
-0.140765
2.6138
-0.128702
2.73046
-0.11776
2.83893
-0.109357
2.94092
-0.102686
3.0356
-0.0951898
3.11951
-0.0842492
3.1872
-0.0678574
3.23145
-0.0442543
3.24301
-0.0114163
3.20979
0.0335307
0.0935576
3.1167
7.2227
0.163174
6.97492
0.443917
6.59246
0.688362
6.1116
0.869105
5.5638
0.991881
4.97734
1.06143
4.37752
1.08534
3.78394
1.07612
3.20909
1.04649
2.66039
1.00417
2.14315
0.951193
1.66204
0.887022
1.22095
0.81199
0.821696
0.729309
0.460736
0.647088
0.131804
0.571018
-0.174805
0.507016
-0.478767
0.46659
-0.802112
0.452056
-1.16186
0.456958
-1.60251
0.501782
-2.10478
0.52471
-2.4706
0.375515
-2.70219
0.256111
-2.8546
0.192478
-2.95424
0.158923
-3.01747
0.140846
-3.05793
0.129247
-3.08663
0.119406
-3.11189
0.109851
-3.13988
0.100661
-3.17567
0.0919361
-3.22369
0.0830837
-3.28763
0.0733526
-3.36992
0.0624765
-3.47123
0.0502557
-3.59062
0.0379133
-3.72353
0.0284405
-3.85448
0.0252744
-3.96737
0.0287665
-4.06068
0.0354225
-4.15585
0.0452751
-4.30314
0.0626855
-4.59912
0.0977103
-5.22698
0.178455
-6.16186
0.418586
-6.80761
0.587461
-7.41028
0.641589
-8.06902
0.65647
-8.67885
0.624706
-9.08296
0.554785
-9.02466
0.417717
-8.09573
0.0931153
-6.75692
-0.422158
-5.4309
-0.856028
-4.18309
-1.08664
-3.18673
-1.00618
-2.48269
-0.810128
-1.97823
-0.679125
-1.60613
-0.606125
-1.31392
-0.577359
-1.01961
-0.584212
-0.693112
-0.563089
-0.399623
-0.53577
-0.144797
-0.518675
0.0702496
-0.510287
0.257466
-0.505867
0.431381
-0.50137
0.609333
-0.494747
0.800397
-0.486206
0.999895
-0.476446
1.19448
-0.466296
1.38267
-0.455734
1.58013
-0.444896
1.76119
-0.435813
1.92563
-0.426761
2.08113
-0.416124
2.22839
-0.403614
2.36695
-0.389245
2.4964
-0.37314
2.61671
-0.3555
2.72802
-0.336572
2.83049
-0.31658
2.92409
-0.295702
3.00831
-0.274092
3.08181
-0.251764
3.14345
-0.228365
3.19435
-0.2053
3.23793
-0.185671
3.27736
-0.169281
3.31245
-0.153832
3.34051
-0.138227
3.35923
-0.122041
3.36792
-0.104361
3.36714
-0.0837713
3.35775
-0.0586041
3.34042
-0.0268859
3.31595
0.0132631
3.28704
0.0628289
0.124038
3.25712
8.61371
0.312284
8.22309
0.834315
7.63418
1.27678
6.91221
1.59039
6.1158
1.78735
5.29178
1.88423
4.47699
1.8986
3.69454
1.85665
2.95361
1.78504
2.25818
1.69666
1.6116
1.59414
1.01374
1.48035
0.463216
1.35679
-0.0314305
1.21656
-0.508157
1.11396
-1.00379
1.0526
-1.54785
1.03075
-2.0538
0.951494
-2.45061
0.833241
-2.72746
0.721807
-2.84861
0.611176
-2.84158
0.505861
-2.88625
0.410395
-2.97911
0.339677
-3.08437
0.288388
-3.1871
0.252365
-3.28401
0.228572
-3.37815
0.214349
-3.47484
0.207224
-3.5787
0.20503
-3.69283
0.206335
-3.81924
0.210134
-3.95872
0.214672
-4.11061
0.217673
-4.27206
0.216699
-4.43927
0.210604
-4.60543
0.197517
-4.76136
0.178021
-4.90268
0.160344
-5.03409
0.153956
-5.15713
0.152121
-5.27308
0.154536
-5.38068
0.162878
-5.47045
0.178664
-5.5027
0.200643
-5.31012
0.219677
-4.94748
0.221371
-4.49408
0.184181
-3.93323
0.0909781
-3.22184
-0.092189
-2.37846
-0.295421
-1.47445
-0.495199
-0.694096
-0.699895
-0.27014
-0.864005
-0.166453
-0.984537
-0.238613
-1.05025
-0.307576
-0.977421
-0.289071
-0.861423
-0.202308
-0.790484
-0.0770557
-0.751213
0.0583749
-0.729855
0.175484
-0.716979
0.304807
-0.704965
0.452141
-0.692844
0.60602
-0.681449
0.758074
-0.670443
0.903921
-0.659127
1.04268
-0.646924
1.17528
-0.633562
1.30269
-0.619329
1.42554
-0.604564
1.54351
-0.589165
1.65617
-0.572939
1.76298
-0.555921
1.86133
-0.538178
1.9502
-0.51945
2.02996
-0.499512
2.1013
-0.478392
2.16509
-0.456276
2.2223
-0.433396
2.27388
-0.40995
2.3207
-0.386077
2.36352
-0.361901
2.40312
-0.337628
2.44049
-0.313618
2.47719
-0.290434
2.51576
-0.268738
2.55791
-0.249063
2.60199
-0.231186
2.64497
-0.213506
2.68433
-0.194257
2.71824
-0.173008
2.74587
-0.150352
2.76775
-0.126734
2.78549
-0.101825
2.80143
-0.0746621
2.81848
-0.0438684
2.84015
-0.00815078
2.87044
0.03297
0.0815576
2.91354
10.8579
0.575148
10.1658
1.52616
9.13643
2.30578
7.90239
2.82383
6.60273
3.08619
5.33658
3.14928
4.15794
3.0758
3.07838
2.93434
2.07736
2.78364
1.16215
2.60871
0.353516
2.39855
-0.381306
2.20934
-1.07307
2.04025
-1.67537
1.80929
-2.14854
1.57863
-2.49747
1.39386
-2.7097
1.23542
-2.8539
1.08887
-2.98055
0.953611
-3.09264
0.827624
-3.19925
0.711363
-3.30808
0.608169
-3.42441
0.520182
-3.53903
0.447789
-3.64643
0.389358
-3.74433
0.343941
-3.83227
0.310291
-3.91022
0.286168
-3.97762
0.268589
-4.03294
0.254398
-4.07311
0.240647
-4.09332
0.224569
-4.08923
0.204896
-4.05964
0.18246
-4.00623
0.157684
-3.93427
0.133008
-3.851
0.108528
-3.76656
0.0877164
-3.68054
0.0683167
-3.58097
0.0482617
-3.46419
0.029102
-3.32136
0.00534634
-3.14168
-0.0233231
-2.90642
-0.0634394
-2.58423
-0.129001
-2.13551
-0.237786
-1.58756
-0.337919
-1.00507
-0.413739
-0.453193
-0.483281
-0.0154337
-0.559013
0.298342
-0.638799
0.496081
-0.720057
0.567728
-0.796487
0.538311
-0.857813
0.431321
-0.900583
0.273689
-0.915482
0.177226
-0.90028
0.181745
-0.881035
0.244173
-0.865547
0.334385
-0.852466
0.435057
-0.840389
0.537439
-0.828264
0.639594
-0.815299
0.74032
-0.801209
0.837722
-0.786004
0.930244
-0.769688
1.01697
-0.752191
1.09754
-0.733492
1.17195
-0.713667
1.2401
-0.692888
1.30171
-0.671323
1.35666
-0.649033
1.40503
-0.626017
1.44693
-0.602332
1.48253
-0.578106
1.51242
-0.553504
1.53765
-0.528724
1.55943
-0.504001
1.57906
-0.479566
1.59779
-0.455615
1.61682
-0.432302
1.63736
-0.409762
1.66065
-0.388144
1.68783
-0.367568
1.71966
-0.348017
1.7562
-0.329317
1.79644
-0.311096
1.83828
-0.2928
1.87938
-0.273954
1.91881
-0.254372
1.95744
-0.234087
1.99669
-0.213242
2.03758
-0.192002
2.08065
-0.170332
2.1264
-0.147889
2.17567
-0.124029
2.22957
-0.0976414
2.28933
-0.0675781
2.35636
-0.0335198
0.00511521
2.43353
14.4104
1.06628
12.9837
2.95273
10.8606
4.42857
8.56376
5.12018
6.32395
5.32527
4.24793
5.22426
2.46308
4.8592
1.08437
4.31098
-0.119732
3.98474
-1.12801
3.61293
-1.89629
3.16228
-2.43672
2.74535
-2.78025
2.37941
-3.02623
2.05096
-3.22636
1.77444
-3.37856
1.54154
-3.48808
1.34033
-3.56773
1.16381
-3.62638
1.00743
-3.67125
0.867495
-3.70855
0.743511
-3.74118
0.635489
-3.76914
0.542708
-3.79169
0.464784
-3.80902
0.401028
-3.82062
0.34977
-3.82449
0.308299
-3.81776
0.273491
-3.79774
0.242539
-3.76277
0.213339
-3.71322
0.184923
-3.65068
0.155768
-3.57312
0.120985
-3.47481
0.0776616
-3.34981
0.0259779
-3.19509
-0.0287105
-3.02091
-0.0729563
-2.83369
-0.107205
-2.63122
-0.142387
-2.40937
-0.182479
-2.16756
-0.222482
-1.8919
-0.281265
-1.57638
-0.351697
-1.23927
-0.416796
-0.926016
-0.463837
-0.681614
-0.508665
-0.476588
-0.570841
-0.274932
-0.643041
-0.0856122
-0.700282
0.0700024
-0.74165
0.181087
-0.775018
0.247917
-0.808749
0.279559
-0.846243
0.288737
-0.882587
0.285306
-0.911215
0.285891
-0.928786
0.30987
-0.935688
0.354016
-0.935638
0.410131
-0.931334
0.472604
-0.923945
0.537675
-0.913897
0.602816
-0.90135
0.666451
-0.886449
0.727495
-0.869391
0.785052
-0.850362
0.838361
-0.829496
0.886874
-0.80693
0.93031
-0.782907
0.968678
-0.757788
1.00221
-0.731968
1.03132
-0.705777
1.05656
-0.679443
1.07866
-0.65312
1.09845
-0.626954
1.1168
-0.601125
1.13462
-0.575828
1.15279
-0.551243
1.17213
-0.527506
1.19329
-0.504713
1.21679
-0.482921
1.24301
-0.462119
1.27205
-0.442181
1.30363
-0.422892
1.33719
-0.404057
1.37199
-0.385519
1.40739
-0.367167
1.44298
-0.348896
1.47881
-0.330598
1.51535
-0.31222
1.55323
-0.293726
1.59289
-0.274984
1.63441
-0.255758
1.67749
-0.235836
1.72177
-0.215123
1.76722
-0.19361
1.8144
-0.171241
1.8646
-0.147638
1.91978
-0.122316
1.98146
-0.0945398
-0.0642231
2.05167
18.5394
2.22139
17.3608
4.1312
13.4842
8.3049
8.82961
9.77441
4.91931
9.23496
1.72483
8.41776
-0.762489
7.34496
-2.46102
6.00736
-3.464
4.98549
-4.02181
4.16856
-4.3455
3.48371
-4.52777
2.92522
-4.61446
2.46349
-4.64622
2.07992
-4.63899
1.76419
-4.60345
1.50278
-4.54906
1.28252
-4.48238
1.09351
-4.4084
0.92961
-4.3321
0.787133
-4.25698
0.664096
-4.18499
0.558983
-4.11686
0.469835
-4.0511
0.394058
-3.98403
0.328772
-3.9114
0.27173
-3.83033
0.221593
-3.73906
0.176364
-3.63655
0.133953
-3.52069
0.0911616
-3.3887
0.0463312
-3.2395
-0.00034682
-3.07472
-0.0510439
-2.895
-0.109729
-2.70858
-0.168661
-2.51921
-0.226925
-2.32543
-0.276223
-2.12248
-0.320494
-1.90788
-0.36858
-1.68191
-0.421708
-1.45258
-0.46732
-1.23789
-0.513553
-1.04556
-0.562835
-0.868316
-0.613707
-0.68503
-0.668086
-0.498406
-0.718281
-0.341203
-0.753056
-0.225773
-0.78262
-0.133423
-0.813277
-0.0486795
-0.844181
0.0335755
-0.873231
0.110883
-0.90038
0.17718
-0.925558
0.230294
-0.947697
0.273177
-0.965246
0.311097
-0.977132
0.348779
-0.983173
0.387833
-0.983949
0.427944
-0.980214
0.468233
-0.972573
0.50784
-0.961458
0.54608
-0.9472
0.582418
-0.930087
0.616397
-0.910391
0.647665
-0.888395
0.676068
-0.864434
0.701724
-0.838907
0.724958
-0.812265
0.746201
-0.784971
0.765914
-0.757445
0.784568
-0.730025
0.802652
-0.702952
0.820649
-0.676375
0.839
-0.650395
0.858063
-0.625102
0.878105
-0.600605
0.899322
-0.577009
0.921834
-0.554371
0.945638
-0.532666
0.970601
-0.511819
0.99655
-0.491781
1.02343
-0.472547
1.05138
-0.45409
1.08059
-0.436265
1.11114
-0.418834
1.14306
-0.401587
1.1763
-0.384394
1.21086
-0.367155
1.24664
-0.349737
1.2834
-0.331958
1.32077
-0.313583
1.35842
-0.294369
1.39602
-0.274144
1.43332
-0.252885
1.47018
-0.23067
1.50665
-0.207652
1.54304
-0.183724
1.57991
-0.158622
1.61838
-0.132188
-0.104283
1.6595
23.8159
15.2537
11.7241
16.2229
3.08768
16.941
-3.16224
16.0239
-6.45233
12.5244
-7.92302
9.88777
-8.42426
7.8454
-8.57141
6.15357
-8.47103
4.88407
-8.21313
3.90945
-7.87793
3.14713
-7.50676
2.55247
-7.13045
2.0854
-6.7678
1.71528
-6.42515
1.41932
-6.10413
1.17931
-5.80528
0.980994
-5.52883
0.814134
-5.27428
0.671881
-5.04011
0.549505
-4.82315
0.443406
-4.61891
0.350712
-4.42382
0.270401
-4.23585
0.2014
-4.0543
0.142189
-3.87828
0.0903102
-3.70474
0.0422957
-3.52965
-0.0048102
-3.34899
-0.053112
-3.16199
-0.102625
-2.96978
-0.153103
-2.77276
-0.205084
-2.57559
-0.256483
-2.38161
-0.31264
-2.19272
-0.367269
-2.01101
-0.41917
-1.8249
-0.47367
-1.63177
-0.525983
-1.44028
-0.573704
-1.25637
-0.620443
-1.07631
-0.663472
-0.902846
-0.704691
-0.734641
-0.750526
-0.578739
-0.791059
-0.450866
-0.818636
-0.348524
-0.842159
-0.25443
-0.86597
-0.163617
-0.889837
-0.0784242
-0.913237
-0.000598979
-0.935591
0.0698892
-0.95632
0.132767
-0.975025
0.18747
-0.991316
0.23401
-1.00468
0.273392
-1.01453
0.307241
-1.02042
0.337149
-1.0221
0.364173
-1.01963
0.388855
-1.01322
0.411445
-1.00318
0.432067
-0.989824
0.450809
-0.973436
0.467792
-0.954335
0.483229
-0.932882
0.497453
-0.909477
0.510885
-0.884539
0.523966
-0.858486
0.53708
-0.831709
0.550498
-0.804552
0.564372
-0.777315
0.578779
-0.75026
0.593791
-0.723619
0.609529
-0.697592
0.626143
-0.672305
0.643736
-0.647802
0.662302
-0.624082
0.681745
-0.601158
0.701964
-0.579084
0.72294
-0.557915
0.744716
-0.537641
0.767278
-0.518155
0.790456
-0.499296
0.813971
-0.480927
0.837582
-0.462946
0.861225
-0.445291
0.88493
-0.427845
0.908675
-0.41043
0.932355
-0.392861
0.955846
-0.374986
0.979084
-0.356686
1.00214
-0.337859
1.02524
-0.318414
1.04877
-0.298346
1.07327
-0.27778
1.09933
-0.256848
1.1275
-0.235658
1.15826
-0.21403
1.19183
-0.191458
1.22831
-0.167645
-0.142075
1.2674
-21.0067
-5.731
-32.4234
27.6396
-31.7292
16.2467
-28.2206
12.5151
-24.9043
9.20794
-21.8825
6.86563
-19.1823
5.14476
-16.8954
3.86612
-14.9489
2.93697
-13.2937
2.25341
-11.8897
1.74208
-10.6951
1.35673
-9.67485
1.06373
-8.79919
0.838029
-8.04281
0.661112
-7.38473
0.519151
-6.80792
0.401835
-6.29823
0.30182
-5.84357
0.214282
-5.43375
0.136417
-5.06094
0.0669609
-4.7202
0.00597049
-4.40805
-0.0461058
-4.12115
-0.0902475
-3.85501
-0.129088
-3.60499
-0.165281
-3.36788
-0.20082
-3.14277
-0.236363
-2.92781
-0.274951
-2.72028
-0.317545
-2.51688
-0.36446
-2.31676
-0.413794
-2.12104
-0.461526
-1.93474
-0.509053
-1.75025
-0.562635
-1.56678
-0.614395
-1.38969
-0.663489
-1.21897
-0.710431
-1.0547
-0.752872
-0.89725
-0.794265
-0.741147
-0.837646
-0.596473
-0.869303
-0.478201
-0.889547
-0.38045
-0.90812
-0.289534
-0.926557
-0.202548
-0.944351
-0.121022
-0.961423
-0.046049
-0.97776
0.0218201
-0.993242
0.0824143
-1.00762
0.135841
-1.02059
0.182261
-1.03176
0.221853
-1.04077
0.254934
-1.04721
0.282066
-1.05076
0.304026
-1.05116
0.321668
-1.04824
0.335769
-1.04197
0.346947
-1.0324
0.355692
-1.01972
0.362451
-1.00419
0.367689
-0.986097
0.371884
-0.965784
0.375495
-0.943586
0.378941
-0.919864
0.382606
-0.894995
0.386829
-0.869352
0.391892
-0.843265
0.397993
-0.816994
0.405249
-0.790755
0.413701
-0.764732
0.423322
-0.739089
0.434042
-0.713983
0.445814
-0.689563
0.458651
-0.66593
0.472598
-0.643115
0.48765
-0.621084
0.503685
-0.599773
0.520472
-0.579126
0.537743
-0.559099
0.5553
-0.539653
0.57306
-0.520749
0.590992
-0.502294
0.60902
-0.484149
0.627011
-0.466191
0.644819
-0.448291
0.662306
-0.430279
0.679324
-0.411962
0.69572
-0.393182
0.711442
-0.37392
0.726684
-0.354323
0.741912
-0.33457
0.757714
-0.314775
0.774578
-0.294966
0.792783
-0.275063
0.81242
-0.254989
0.833644
-0.234627
0.856677
-0.21354
0.881676
-0.191368
-0.167855
0.909046
-148.809
-3.65214
-107.346
-13.8236
-82.9111
-8.18801
-64.3576
-6.03857
-50.6935
-4.4563
-40.4667
-3.36132
-32.7493
-2.57296
-26.8771
-2.0065
-22.346
-1.59461
-18.802
-1.29118
-15.9978
-1.06289
-13.7536
-0.888423
-11.9373
-0.753736
-10.4514
-0.649206
-9.22311
-0.568779
-8.19707
-0.508765
-7.33077
-0.466619
-6.59153
-0.439895
-5.95446
-0.425598
-5.401
-0.420223
-4.91715
-0.420469
-4.49125
-0.423881
-4.11208
-0.429627
-3.77075
-0.436321
-3.46125
-0.443777
-3.17922
-0.452982
-2.92089
-0.465331
-2.6822
-0.481798
-2.45847
-0.506038
-2.24602
-0.538025
-2.04472
-0.574493
-1.85437
-0.613615
-1.6682
-0.65791
-1.48566
-0.702699
-1.31034
-0.750062
-1.14225
-0.795627
-0.981359
-0.838754
-0.822413
-0.885168
-0.67054
-0.922059
-0.540018
-0.943546
-0.436102
-0.960264
-0.346065
-0.976222
-0.260025
-0.990628
-0.17842
-1.0035
-0.102649
-1.01515
-0.0332379
-1.02584
0.0296227
-1.03573
0.0858618
-1.04489
0.135501
-1.05329
0.178641
-1.06075
0.21544
-1.067
0.246104
-1.07171
0.270916
-1.07456
0.290244
-1.07526
0.304531
-1.07353
0.314271
-1.06917
0.320008
-1.06206
0.322354
-1.05223
0.32197
-1.03978
0.31951
-1.02488
0.315567
-1.00773
0.310675
-0.988566
0.305351
-0.9677
0.300095
-0.945454
0.295352
-0.922129
0.291475
-0.898005
0.288724
-0.873364
0.287306
-0.84848
0.287407
-0.823589
0.289183
-0.798876
0.292747
-0.774482
0.298154
-0.750513
0.305389
-0.727052
0.314361
-0.704175
0.324933
-0.681937
0.336972
-0.66037
0.350384
-0.639486
0.365113
-0.619254
0.381092
-0.599611
0.39821
-0.580469
0.416303
-0.561737
0.435178
-0.543346
0.454663
-0.525229
0.474612
-0.507268
0.494804
-0.48927
0.514928
-0.471016
0.534737
-0.4524
0.554236
-0.433483
0.573725
-0.414398
0.593638
-0.395264
0.614304
-0.376121
0.635801
-0.356892
0.657946
-0.337437
0.680404
-0.317627
0.702798
-0.297344
0.724773
-0.27653
0.7461
-0.255195
0.766852
-0.233205
0.787186
-0.210282
-0.186277
0.807347
-76.149
9.73991
-64.1143
-25.8584
-55.3483
-16.9541
-47.1363
-14.2507
-39.6649
-11.9279
-33.2843
-9.74209
-28.0459
-7.81164
-23.763
-6.28985
-20.2453
-5.11273
-17.3429
-4.19426
-14.9394
-3.46716
-12.9401
-2.88864
-11.2672
-2.42771
-9.86013
-2.05761
-8.67135
-1.75912
-7.66272
-1.5192
-6.80303
-1.32842
-6.06623
-1.17912
-5.43022
-1.06436
-4.87623
-0.977324
-4.38903
-0.911173
-3.95701
-0.859819
-3.57195
-0.81904
-3.22719
-0.785923
-2.91685
-0.759468
-2.63523
-0.740541
-2.37738
-0.729754
-2.14039
-0.726069
-1.92282
-0.731649
-1.71974
-0.749924
-1.52686
-0.777046
-1.34316
-0.807995
-1.16801
-0.844797
-0.995846
-0.88779
-0.827282
-0.932935
-0.670241
-0.96843
-0.534541
-0.991636
-0.426011
-1.01095
-0.335215
-1.02851
-0.250027
-1.04283
-0.16908
-1.05422
-0.094067
-1.06337
-0.025433
-1.07076
0.0369063
-1.0768
0.0930846
-1.08184
0.14325
-1.08612
0.187525
-1.08976
0.226005
-1.09282
0.258783
-1.09523
0.28599
-1.09686
0.307809
-1.09749
0.324459
-1.09682
0.336186
-1.09456
0.343292
-1.09047
0.346177
-1.08437
0.34535
-1.07616
0.341382
-1.06579
0.334841
-1.05328
0.326267
-1.0387
0.316219
-1.02223
0.305288
-1.00411
0.29405
-0.984558
0.283008
-0.963803
0.272592
-0.942093
0.263174
-0.919674
0.255085
-0.896779
0.248595
-0.873626
0.243895
-0.85041
0.241108
-0.827299
0.240303
-0.804421
0.241506
-0.781874
0.244712
-0.759733
0.249891
-0.738056
0.256992
-0.716898
0.26593
-0.696282
0.276572
-0.676192
0.288746
-0.656601
0.302288
-0.637491
0.317073
-0.618834
0.332997
-0.600567
0.349948
-0.582593
0.367763
-0.564789
0.386211
-0.547025
0.405087
-0.529208
0.424344
-0.511304
0.444172
-0.493332
0.464919
-0.475345
0.48692
-0.457387
0.510326
-0.43941
0.535014
-0.421256
0.560622
-0.402728
0.586701
-0.383664
0.61283
-0.363949
0.638688
-0.343555
0.664091
-0.322504
0.688953
-0.300835
0.713246
-0.278614
0.737128
-0.255894
0.760876
-0.232514
-0.208322
0.784742
-4.71148
3.17637
-16.8836
-13.6863
-20.331
-13.5068
-20.9073
-13.6745
-19.8639
-12.9715
-18.3869
-11.2193
-16.8817
-9.31729
-15.3129
-7.85907
-13.7447
-6.68155
-12.2534
-5.68622
-10.8882
-4.83323
-9.66932
-4.10857
-8.59006
-3.50818
-7.63849
-3.01062
-6.80215
-2.59713
-6.06773
-2.25557
-5.42185
-1.97654
-4.8518
-1.75177
-4.34609
-1.57303
-3.89457
-1.43219
-3.48828
-1.32125
-3.11989
-1.23247
-2.78375
-1.15995
-2.47526
-1.09976
-2.19233
-1.04838
-1.93335
-1.00623
-1.69658
-0.974026
-1.48153
-0.94958
-1.28784
-0.934903
-1.10392
-0.94459
-0.921051
-0.971879
-0.74691
-0.995525
-0.591063
-1.01567
-0.458936
-1.03584
-0.349127
-1.05788
-0.253866
-1.07732
-0.165472
-1.09256
-0.0838039
-1.10427
-0.0101556
-1.1131
0.056
-1.11944
0.115414
-1.12369
0.168581
-1.12624
0.215903
-1.12749
0.257714
-1.12777
0.294295
-1.12734
0.325883
-1.12641
0.352663
-1.12506
0.374767
-1.12326
0.392283
-1.12092
0.405302
-1.1179
0.413958
-1.11403
0.418466
-1.10908
0.419122
-1.10286
0.416273
-1.09516
0.410285
-1.08583
0.401556
-1.0748
0.390551
-1.06209
0.377808
-1.04776
0.363897
-1.03195
0.349351
-1.01479
0.334648
-0.996456
0.320232
-0.977127
0.306507
-0.956995
0.29382
-0.936249
0.282458
-0.915071
0.272651
-0.893638
0.264576
-0.872111
0.258356
-0.850631
0.25406
-0.829312
0.251718
-0.808241
0.251333
-0.787488
0.252875
-0.767099
0.256269
-0.747084
0.261399
-0.727458
0.268151
-0.70825
0.276436
-0.689467
0.28615
-0.671069
0.297151
-0.653
0.309287
-0.635225
0.322451
-0.617725
0.336586
-0.600455
0.351678
-0.583336
0.367782
-0.566309
0.385052
-0.549377
0.403699
-0.532568
0.423897
-0.515857
0.445648
-0.49913
0.468715
-0.482192
0.492704
-0.464838
0.51721
-0.446899
0.541935
-0.428288
0.566747
-0.409006
0.591662
-0.389091
0.616778
-0.368594
0.642233
-0.347578
0.66816
-0.326075
0.694645
-0.304106
0.721785
-0.281734
0.749843
-0.258965
-0.235659
0.779077
24.8205
0.526026
14.8626
-3.72844
8.20956
-6.85392
3.02167
-8.4869
-0.995082
-8.95518
-3.65052
-8.56457
-5.09578
-7.87284
-5.75776
-7.19792
-5.95132
-6.4889
-5.86318
-5.7754
-5.60568
-5.09194
-5.26968
-4.44596
-4.89521
-3.88427
-4.50815
-3.39955
-4.12714
-2.98029
-3.76188
-2.62331
-3.41663
-2.32463
-3.09203
-2.07962
-2.7865
-1.88227
-2.49756
-1.72535
-2.22279
-1.60082
-1.96042
-1.50029
-1.70982
-1.41678
-1.47014
-1.34656
-1.24552
-1.28113
-1.03951
-1.22151
-0.852499
-1.17152
-0.682283
-1.13167
-0.528878
-1.10193
-0.394935
-1.09296
-0.276863
-1.10329
-0.169201
-1.11516
-0.0695563
-1.1265
0.0212723
-1.13718
0.100432
-1.14692
0.168811
-1.15513
0.228531
-1.16138
0.280983
-1.16556
0.327026
-1.16775
0.367348
-1.16818
0.40252
-1.16711
0.433006
-1.16484
0.459168
-1.16163
0.481277
-1.15773
0.499525
-1.15333
0.514057
-1.14858
0.524993
-1.14353
0.532441
-1.13814
0.536501
-1.13233
0.537279
-1.12595
0.534895
-1.11884
0.529506
-1.11082
0.521335
-1.10175
0.510691
-1.09152
0.497955
-1.08005
0.483556
-1.0673
0.467928
-1.05331
0.451494
-1.03814
0.434665
-1.02189
0.417839
-1.00469
0.401393
-0.986685
0.38568
-0.968033
0.371008
-0.948882
0.357636
-0.929365
0.34576
-0.909602
0.335514
-0.889705
0.326977
-0.869783
0.320187
-0.849931
0.315154
-0.830237
0.311867
-0.810767
0.310291
-0.791565
0.310378
-0.772667
0.312088
-0.754091
0.315357
-0.735828
0.320075
-0.717861
0.326119
-0.700186
0.333399
-0.682796
0.341856
-0.665668
0.351434
-0.64877
0.362085
-0.632092
0.373813
-0.615641
0.386712
-0.599429
0.400908
-0.58343
0.416453
-0.567574
0.433251
-0.551738
0.451052
-0.535747
0.469531
-0.519411
0.488413
-0.502588
0.507565
-0.485214
0.527021
-0.467287
0.546935
-0.448843
0.56752
-0.429939
0.589001
-0.410627
0.611572
-0.390927
0.635364
-0.370838
0.660465
-0.35035
0.686888
-0.329407
0.714546
-0.307977
0.743374
-0.286081
-0.263644
0.773345
22.9969
-0.694177
21.417
-2.1486
18.1658
-3.60285
14.3399
-4.66117
10.6277
-5.24335
7.50742
-5.44481
5.04333
-5.4094
3.09896
-5.25445
1.63527
-5.02643
0.591521
-4.7333
-0.123649
-4.37896
-0.592682
-3.97967
-0.877002
-3.60297
-1.02297
-3.25679
-1.06629
-2.94047
-1.03521
-2.65831
-0.95195
-2.41233
-0.834241
-2.20241
-0.696755
-2.02561
-0.552704
-1.87618
-0.414935
-1.74645
-0.296127
-1.6282
-0.204173
-1.51877
-0.13405
-1.42687
-0.0729952
-1.35212
-0.0110863
-1.29311
0.0567837
-1.24881
0.132851
-1.21691
0.217773
-1.19579
0.300586
-1.18434
0.369628
-1.18052
0.427764
-1.18125
0.477789
-1.18428
0.521099
-1.18808
0.558333
-1.19162
0.590061
-1.19421
0.616906
-1.19549
0.639445
-1.19528
0.658163
-1.19359
0.673455
-1.19053
0.685638
-1.1863
0.694975
-1.18113
0.70168
-1.17524
0.70592
-1.16883
0.707799
-1.16203
0.707368
-1.15493
0.704646
-1.14754
0.699657
-1.13984
0.692448
-1.13177
0.683097
-1.12321
0.67172
-1.11403
0.65848
-1.10411
0.643589
-1.09336
0.627317
-1.08171
0.609969
-1.06913
0.59187
-1.05561
0.573352
-1.04117
0.554747
-1.02588
0.536385
-1.00983
0.518575
-0.993141
0.501585
-0.975909
0.485634
-0.958242
0.470901
-0.940245
0.45753
-0.922017
0.445644
-0.903656
0.435336
-0.885242
0.426655
-0.866841
0.419607
-0.848503
0.414153
-0.830272
0.410237
-0.812198
0.407812
-0.794334
0.406819
-0.776702
0.407173
-0.759296
0.408784
-0.742103
0.411579
-0.725122
0.415486
-0.708353
0.420422
-0.691776
0.426308
-0.675374
0.43311
-0.659162
0.440836
-0.643171
0.449484
-0.6274
0.458994
-0.611799
0.469226
-0.596267
0.479961
-0.580653
0.490953
-0.564809
0.502032
-0.548638
0.513179
-0.532099
0.524527
-0.515203
0.536309
-0.497987
0.548798
-0.480491
0.562261
-0.462741
0.576917
-0.444748
0.592933
-0.426512
0.610435
-0.408013
0.629501
-0.3892
0.650169
-0.370026
0.672459
-0.350416
0.696314
-0.330262
0.721559
-0.309468
-0.287901
0.74794
17.6747
-0.506543
16.9049
-1.37887
15.4847
-2.18276
13.6446
-2.82134
11.6805
-3.27959
9.80584
-3.57063
8.11582
-3.71999
6.62094
-3.76033
5.31477
-3.72121
4.2022
-3.62191
3.29575
-3.47396
2.603
-3.28863
2.07978
-3.08178
1.68815
-2.86754
1.40197
-2.65707
1.19875
-2.45828
1.0585
-2.27568
0.963133
-2.11104
0.897302
-1.96417
0.850045
-1.83369
0.816136
-1.71765
0.796796
-1.61427
0.795086
-1.52268
0.805642
-1.44319
0.823681
-1.37605
0.845899
-1.32132
0.869682
-1.27864
0.893754
-1.24706
0.917051
-1.22518
0.937942
-1.21133
0.955005
-1.20367
0.968018
-1.20035
0.977311
-1.19965
0.983336
-1.20018
0.986503
-1.20085
0.987156
-1.20093
0.985593
-1.19999
0.982091
-1.19784
0.97691
-1.19448
0.970286
-1.18998
0.962401
-1.18449
0.953379
-1.17818
0.943295
-1.17124
0.93219
-1.1638
0.92008
-1.15599
0.906954
-1.14786
0.892786
-1.13942
0.877546
-1.13064
0.861227
-1.12147
0.843868
-1.11185
0.825557
-1.1017
0.806422
-1.09094
0.786616
-1.0795
0.766318
-1.06734
0.74575
-1.05447
0.725163
-1.0409
0.70482
-1.02668
0.684967
-1.01185
0.665826
-0.996478
0.647583
-0.980642
0.630397
-0.964416
0.614398
-0.947879
0.599693
-0.931107
0.586354
-0.914171
0.574428
-0.897136
0.563944
-0.880068
0.554918
-0.86302
0.547359
-0.846032
0.541251
-0.829123
0.536524
-0.812294
0.533058
-0.795542
0.530729
-0.778888
0.529449
-0.762365
0.529147
-0.745974
0.529731
-0.729694
0.531112
-0.71353
0.533252
-0.697512
0.536152
-0.681665
0.539789
-0.665977
0.544062
-0.650402
0.548788
-0.634857
0.553729
-0.61924
0.558663
-0.603465
0.563475
-0.587486
0.568189
-0.571301
0.572953
-0.554931
0.577987
-0.538408
0.583523
-0.521758
0.58977
-0.504991
0.596895
-0.488108
0.605026
-0.471095
0.61426
-0.453931
0.624669
-0.436593
0.636322
-0.419058
0.649296
-0.401284
0.663656
-0.383212
0.679485
-0.364785
0.696879
-0.345909
0.715896
-0.326453
-0.306205
0.736492
14.5768
-0.337325
14.1012
-0.903367
13.3266
-1.40831
12.3285
-1.82352
11.2087
-2.16011
10.0558
-2.41824
8.93186
-2.59659
7.87219
-2.70135
6.89473
-2.74457
6.01039
-2.73856
5.22832
-2.69304
4.55442
-2.61608
3.98679
-2.51572
3.51744
-2.39996
3.13437
-2.27603
2.82359
-2.14977
2.57103
-2.02565
2.36414
-1.90693
2.19279
-1.79585
2.04965
-1.69382
1.93001
-1.60152
1.83109
-1.51908
1.7509
-1.44643
1.68702
-1.38344
1.6367
-1.33003
1.59701
-1.28609
1.56513
-1.25134
1.53857
-1.2252
1.51531
-1.2067
1.49371
-1.19458
1.47255
-1.18745
1.45109
-1.18386
1.42893
-1.18253
1.40598
-1.18231
1.38232
-1.18232
1.35813
-1.1819
1.33358
-1.18065
1.30884
-1.17835
1.28405
-1.17497
1.25932
-1.17057
1.23477
-1.16528
1.21045
-1.15924
1.1864
-1.15258
1.16259
-1.1454
1.13895
-1.13778
1.11541
-1.12975
1.0919
-1.12135
1.06837
-1.11255
1.04479
-1.10333
1.02113
-1.09363
0.99742
-1.08342
0.973712
-1.07265
0.95012
-1.06131
0.92678
-1.0494
0.903842
-1.03691
0.881459
-1.02387
0.859777
-1.01032
0.838933
-0.99629
0.819051
-0.981844
0.800242
-0.967034
0.7826
-0.951921
0.766201
-0.936566
0.751103
-0.921026
0.737344
-0.905351
0.724937
-0.889582
0.713863
-0.87375
0.704065
-0.857874
0.695469
-0.841975
0.688007
-0.826077
0.681643
-0.810216
0.676363
-0.794408
0.672111
-0.778636
0.668777
-0.762875
0.66625
-0.747128
0.66448
-0.731436
0.663457
-0.715842
0.663144
-0.700351
0.663436
-0.684918
0.664157
-0.669462
0.665097
-0.653903
0.66609
-0.638203
0.667073
-0.622363
0.668094
-0.606408
0.669278
-0.59037
0.670784
-0.57428
0.672762
-0.55815
0.67533
-0.54198
0.678568
-0.525757
0.682526
-0.509463
0.687233
-0.493075
0.692711
-0.476577
0.698989
-0.45995
0.7061
-0.443181
0.714089
-0.426255
0.723027
-0.409157
0.733001
-0.391848
0.744109
-0.374278
0.756486
-0.356395
0.770316
-0.338113
-0.319265
0.785795
12.3848
-0.227639
12.0931
-0.611825
11.6387
-0.954104
11.0548
-1.23988
10.3778
-1.48344
9.64495
-1.68586
8.8918
-1.84398
8.14773
-1.95793
7.43328
-2.03089
6.76131
-2.06749
6.14024
-2.073
5.57591
-2.05293
5.07151
-2.01266
4.62708
-1.95704
4.23955
-1.89018
3.90355
-1.81563
3.61254
-1.73669
3.35992
-1.65655
3.13982
-1.57819
2.94752
-1.50414
2.77945
-1.43627
2.63301
-1.37565
2.5061
-1.3227
2.39674
-1.27743
2.3028
-1.2396
2.22195
-1.20887
2.1517
-1.18486
2.08966
-1.16704
2.0337
-1.15472
1.98203
-1.14699
1.93329
-1.14286
1.88646
-1.14127
1.84089
-1.14125
1.79616
-1.14195
1.75211
-1.14269
1.70874
-1.14302
1.66618
-1.14264
1.62461
-1.14138
1.58418
-1.13918
1.54497
-1.13605
1.50702
-1.13207
1.47034
-1.12733
1.4349
-1.12194
1.40066
-1.11599
1.36754
-1.10951
1.33545
-1.10254
1.30429
-1.09507
1.27394
-1.0871
1.24433
-1.07862
1.21542
-1.06962
1.1872
-1.0601
1.15969
-1.05003
1.13292
-1.03943
1.10695
-1.02829
1.08184
-1.01664
1.05766
-1.00451
1.03448
-0.99192
1.01236
-0.978924
0.991368
-0.965565
0.971559
-0.951887
0.952968
-0.937936
0.935612
-0.923753
0.919492
-0.909378
0.904593
-0.894847
0.890895
-0.880194
0.878376
-0.86545
0.867019
-0.850635
0.856798
-0.835764
0.84766
-0.820835
0.839517
-0.805845
0.832271
-0.790805
0.825883
-0.775753
0.820381
-0.760736
0.815802
-0.745761
0.812092
-0.730782
0.809084
-0.715724
0.806553
-0.70054
0.804316
-0.685226
0.802297
-0.669805
0.800525
-0.654307
0.799095
-0.638758
0.798125
-0.623181
0.79772
-0.607588
0.79795
-0.591979
0.798849
-0.576346
0.800419
-0.560669
0.802644
-0.544931
0.805499
-0.529112
0.808966
-0.513198
0.813036
-0.497177
0.817711
-0.481042
0.823004
-0.46479
0.828939
-0.448415
0.835547
-0.43191
0.842866
-0.415268
0.850954
-0.398471
0.859877
-0.381477
0.8697
-0.364233
0.880517
-0.346683
-0.328718