/*--------------------------------*- C++ -*----------------------------------*\
| =========                 |                                                 |
| \\      /  F ield         | OpenFOAM: The Open Source CFD Toolbox           |
|  \\    /   O peration     | Version:  2412                                  |
|   \\  /    A nd           | Website:  www.openfoam.com                      |
|    \\/     M anipulation  |                                                 |
\*---------------------------------------------------------------------------*/
FoamFile
{
    version     2.0;
    format      ascii;
    arch        "LSB;label=32;scalar=64";
    class       volVectorField;
    location    "3";
    object      U;
}
// * * * * * * * * * * * * * * * * * * * * * * * * * * * * * * * * * * * * * //

dimensions      [0 1 -1 0 0 0 0];

internalField   nonuniform List<vector> 
20000
(
(617.88 7.1936 0)
(555.033 19.2086 0)
(506.195 29.6664 0)
(523.846 38.3225 0)
(557.937 45.8254 0)
(550.806 51.922 0)
(492.104 56.0311 0)
(404.54 57.9195 0)
(315.139 57.8114 0)
(240.174 56.1552 0)
(183.719 53.379 0)
(142.311 49.785 0)
(110.149 45.5595 0)
(82.4388 40.8317 0)
(56.6471 35.7525 0)
(32.1756 30.5389 0)
(9.59955 25.5023 0)
(-10.0711 20.8984 0)
(-26.4793 16.8131 0)
(-40.0269 13.0595 0)
(-49.9834 9.45496 0)
(-54.2937 6.29829 0)
(-53.2398 3.58166 0)
(-51.2442 1.11841 0)
(-53.6732 -1.03224 0)
(-62.9066 -2.71301 0)
(-77.647 -3.69511 0)
(-94.6894 -3.78905 0)
(-110.774 -2.93635 0)
(-123.79 -1.3324 0)
(-133.458 0.583065 0)
(-140.593 2.32812 0)
(-145.757 3.52864 0)
(-148.738 3.91686 0)
(-149.463 3.27286 0)
(-147.751 1.53363 0)
(-142.396 -1.0157 0)
(-136.134 -4.0675 0)
(-138.284 -7.2664 0)
(-154.433 -9.44174 0)
(-178.78 -9.32867 0)
(-201.175 -6.76596 0)
(-216.115 -2.61493 0)
(-224.746 1.61271 0)
(-233.218 3.05172 0)
(-229.956 -4.91116 0)
(-321.735 46.4977 0)
(-342.041 51.7556 0)
(-339.485 39.3039 0)
(-352.861 29.2473 0)
(-404.579 28.5991 0)
(-492.668 42.6569 0)
(-888.958 137.326 0)
(-630.041 134.115 0)
(-433.433 73.8351 0)
(-370.193 42.6332 0)
(-341.627 25.7889 0)
(-322.911 14.7112 0)
(-307.959 5.26428 0)
(-293.806 -4.44234 0)
(-279.37 -15.0763 0)
(-264.462 -26.7082 0)
(-251.642 -38.8955 0)
(-242.819 -50.3537 0)
(-235.41 -61.1227 0)
(-227.435 -69.7935 0)
(-216.75 -74.6731 0)
(-200.335 -74.2798 0)
(-168.558 -69.1312 0)
(-135.135 -64.0781 0)
(-113.051 -61.19 0)
(-102.149 -60.7772 0)
(-100.817 -61.847 0)
(-104.733 -62.4685 0)
(-101.942 -60.4441 0)
(-87.0229 -56.9831 0)
(-63.518 -52.8782 0)
(-37.3044 -49.2225 0)
(-10.2895 -46.2531 0)
(15.6831 -44.0435 0)
(39.3939 -42.5139 0)
(60.419 -41.471 0)
(78.9584 -40.7052 0)
(95.6117 -40.0544 0)
(110.086 -39.4899 0)
(122.667 -38.722 0)
(136.295 -37.8812 0)
(148.877 -37.9659 0)
(154.121 -38.402 0)
(154.354 -37.4006 0)
(158.791 -34.416 0)
(172.244 -30.3607 0)
(192.321 -26.3426 0)
(213.675 -22.9063 0)
(231.772 -19.9876 0)
(244.13 -17.1327 0)
(249.981 -13.751 0)
(249.458 -9.15943 0)
(242.653 -2.37257 0)
(232.612 7.53222 0)
(666.437 23.6403 0)
(613.88 62.224 0)
(556.963 94.1388 0)
(563.296 118.22 0)
(587.063 136.925 0)
(570.264 150.294 0)
(501.871 157.318 0)
(404.958 157.948 0)
(307.498 153.456 0)
(226.401 145.585 0)
(165.652 135.721 0)
(121.105 124.678 0)
(85.9934 112.902 0)
(54.6088 100.749 0)
(23.7506 88.6651 0)
(-7.58978 77.1028 0)
(-39.4521 66.6977 0)
(-72.1819 57.8277 0)
(-108.251 50.9719 0)
(-153.15 47.731 0)
(-218.424 50.7889 0)
(-307.625 47.4261 0)
(-275.729 23.0368 0)
(-259.464 8.08712 0)
(-261.851 0.0230339 0)
(-267.241 -3.22993 0)
(-270.991 -3.59946 0)
(-272.636 -2.75158 0)
(-273.008 -1.82166 0)
(-273.051 -1.46194 0)
(-273.34 -1.96606 0)
(-273.988 -3.42509 0)
(-275.119 -5.85198 0)
(-277.437 -9.3596 0)
(-281.588 -13.651 0)
(-287.711 -18.1481 0)
(-296.437 -22.3995 0)
(-310.275 -25.4012 0)
(-331.498 -23.896 0)
(-356.582 -16.8753 0)
(-379.53 -4.78932 0)
(-399.019 11.284 0)
(-418.951 30.6649 0)
(-449.498 54.693 0)
(-508.288 90.5844 0)
(-585.934 148.195 0)
(-579.763 157.657 0)
(-610.597 158.298 0)
(-661.214 163.399 0)
(-719.329 171.716 0)
(-772.756 181.595 0)
(-809.382 188.926 0)
(-800.493 181.968 0)
(-654.199 143.683 0)
(-484.888 84.0524 0)
(-366.406 40.55 0)
(-274.565 8.09364 0)
(-203.596 -18.0547 0)
(-148.493 -40.6481 0)
(-104.484 -61.3951 0)
(-68.6074 -81.2035 0)
(-45.6876 -97.4033 0)
(-32.1843 -99.4321 0)
(-22.5245 -95.0199 0)
(-16.1442 -93.0219 0)
(-9.09339 -92.6114 0)
(0.359116 -92.3182 0)
(14.0401 -91.1609 0)
(32.5299 -88.8183 0)
(53.2414 -86.1543 0)
(72.4146 -84.1326 0)
(88.4116 -82.9913 0)
(101.483 -82.4375 0)
(112.648 -81.8514 0)
(122.781 -80.7064 0)
(132.576 -78.8314 0)
(142.683 -76.4207 0)
(153.199 -73.7471 0)
(163.755 -71.1301 0)
(173.878 -68.7817 0)
(183.206 -66.7588 0)
(191.596 -64.9859 0)
(199.065 -63.3462 0)
(205.681 -61.7465 0)
(211.453 -60.1784 0)
(216.197 -58.4077 0)
(219.652 -56.3779 0)
(221.53 -54.5893 0)
(222.067 -52.1804 0)
(222.979 -47.3467 0)
(226.566 -39.7845 0)
(233.629 -30.9135 0)
(242.907 -22.3548 0)
(252.133 -14.879 0)
(259.266 -8.29646 0)
(263.043 -1.78798 0)
(262.869 5.71931 0)
(258.798 15.1798 0)
(251.332 27.2243 0)
(246.717 42.5378 0)
(764.908 47.8191 0)
(729.811 126.32 0)
(651.354 191.616 0)
(630.641 239.241 0)
(631.503 272.761 0)
(594.507 292.836 0)
(506.379 299.409 0)
(391.127 294.607 0)
(278.967 282.357 0)
(187.488 266.216 0)
(119.512 248.16 0)
(69.1256 228.948 0)
(27.9469 208.941 0)
(-11.2319 189.057 0)
(-54.1571 170.769 0)
(-105.671 155.532 0)
(-175.176 142.065 0)
(-216.473 127.829 0)
(-230.13 116.489 0)
(-248.957 103.971 0)
(-252.716 87.086 0)
(-253.05 68.2811 0)
(-246.947 50.4281 0)
(-250.369 36.809 0)
(-257.58 27.4915 0)
(-264.734 22.303 0)
(-271.033 20.2959 0)
(-276.688 20.2415 0)
(-282.149 21.3037 0)
(-287.905 23.4542 0)
(-294.46 27.1449 0)
(-302.264 32.6504 0)
(-311.544 39.6958 0)
(-322.457 47.7485 0)
(-334.861 56.0038 0)
(-348.547 63.2573 0)
(-363.399 67.9713 0)
(-378.174 69.4473 0)
(-389.175 68.9638 0)
(-400.884 69.5009 0)
(-411.205 70.5756 0)
(-420.772 71.4104 0)
(-429.73 71.2958 0)
(-437.518 69.869 0)
(-442.491 67.3272 0)
(-440.987 64.3912 0)
(-428.905 60.1382 0)
(-406.573 52.2685 0)
(-371.216 38.0491 0)
(-319.872 16.0237 0)
(-263.71 -9.48838 0)
(-209.004 -39.7916 0)
(-151.293 -83.4754 0)
(-123.729 -126.909 0)
(-121.959 -154.159 0)
(-118.052 -165.696 0)
(-90.3211 -155.631 0)
(-61.9787 -138.477 0)
(-37.2098 -127.886 0)
(-17.1768 -122.343 0)
(-1.02248 -120.298 0)
(11.9038 -120.611 0)
(22.6161 -121.927 0)
(32.1853 -123.287 0)
(41.1467 -123.891 0)
(50.1781 -123.446 0)
(60.1551 -121.918 0)
(71.5105 -119.558 0)
(83.8649 -117.031 0)
(96.1303 -115.023 0)
(107.108 -113.648 0)
(116.15 -112.609 0)
(123.311 -111.555 0)
(129.036 -110.221 0)
(133.789 -108.526 0)
(137.888 -106.455 0)
(141.513 -104.13 0)
(144.737 -101.74 0)
(147.591 -99.4166 0)
(150.118 -97.1803 0)
(152.385 -94.9513 0)
(154.45 -92.5899 0)
(156.349 -89.9508 0)
(158.128 -86.9049 0)
(159.913 -83.3384 0)
(161.926 -79.113 0)
(164.583 -74.0014 0)
(168.505 -67.7193 0)
(174.015 -59.94 0)
(180.717 -50.6299 0)
(187.895 -40.4545 0)
(195.067 -30.5403 0)
(201.973 -21.8291 0)
(208.258 -14.6669 0)
(213.312 -8.81754 0)
(216.381 -3.71917 0)
(216.993 1.27346 0)
(215.395 6.84613 0)
(211.921 13.6337 0)
(212.222 22.3549 0)
(929.202 84.9392 0)
(922.807 226.903 0)
(804.8 346.079 0)
(729.849 429.535 0)
(680.374 482.817 0)
(599.066 506.945 0)
(472.625 503.619 0)
(327.539 481.457 0)
(195.367 451.572 0)
(91.1334 420.503 0)
(13.3471 390.455 0)
(-47.1905 361.738 0)
(-101.842 331.754 0)
(-152.093 286.508 0)
(-186.479 247.014 0)
(-214.93 214.435 0)
(-238.393 188.635 0)
(-248.763 167.941 0)
(-254.196 150.009 0)
(-261.408 131.92 0)
(-266.804 112.993 0)
(-274.087 94.6108 0)
(-281.762 78.3754 0)
(-289.604 65.4481 0)
(-296.398 55.9352 0)
(-302.215 49.5182 0)
(-307.766 45.5976 0)
(-313.35 43.5071 0)
(-318.448 42.6362 0)
(-322.286 42.407 0)
(-324.356 42.3806 0)
(-324.684 42.4024 0)
(-323.463 42.3501 0)
(-320.678 41.5618 0)
(-316.267 39.1796 0)
(-311.425 34.9203 0)
(-307.816 29.1814 0)
(-306.011 22.2893 0)
(-304.675 14.9623 0)
(-301.887 7.98312 0)
(-296.456 0.327064 0)
(-290.334 -7.72495 0)
(-284.625 -16.3713 0)
(-277.72 -26.2548 0)
(-263.761 -38.6198 0)
(-232.952 -54.8781 0)
(-191.942 -68.1041 0)
(-160.677 -75.9815 0)
(-135.695 -85.4782 0)
(-115.225 -99.7109 0)
(-95.2858 -112.567 0)
(-71.5608 -125.608 0)
(-51.3416 -140.117 0)
(-42.7245 -150.089 0)
(-39.3239 -154.109 0)
(-35.0289 -152.128 0)
(-27.1027 -146.996 0)
(-14.484 -143.76 0)
(-0.429214 -142.892 0)
(12.8173 -143.47 0)
(24.4895 -144.707 0)
(34.5514 -146.036 0)
(43.2417 -147.006 0)
(50.8404 -147.385 0)
(57.6816 -147.054 0)
(64.2053 -145.966 0)
(70.7945 -144.254 0)
(77.5095 -142.239 0)
(84.0316 -140.302 0)
(89.8453 -138.703 0)
(94.48 -137.46 0)
(97.6886 -136.384 0)
(99.4942 -135.229 0)
(100.098 -133.809 0)
(99.7558 -132.036 0)
(98.7268 -129.89 0)
(97.2714 -127.373 0)
(95.6562 -124.48 0)
(94.148 -121.175 0)
(92.9965 -117.394 0)
(92.4175 -113.051 0)
(92.5798 -108.059 0)
(93.6059 -102.337 0)
(95.5976 -95.825 0)
(98.67 -88.5116 0)
(102.938 -80.4663 0)
(108.432 -71.8483 0)
(114.983 -62.9494 0)
(122.127 -54.1996 0)
(129.193 -46.0009 0)
(135.669 -38.5857 0)
(141.515 -32.049 0)
(147.014 -26.3985 0)
(152.317 -21.5431 0)
(157.097 -17.2693 0)
(160.73 -13.2427 0)
(162.871 -8.95617 0)
(163.722 -3.85768 0)
(163.087 2.33436 0)
(165.987 10.0719 0)
(1181.05 141.605 0)
(1213.38 369.968 0)
(1019.72 578.196 0)
(840.163 715.435 0)
(694.677 781.687 0)
(526.105 794.077 0)
(325.937 767.162 0)
(134.589 719.824 0)
(-11.4256 668.082 0)
(-112.184 608.65 0)
(-170.025 535.073 0)
(-203.421 469.61 0)
(-234.006 408.459 0)
(-257.048 350.836 0)
(-272.1 303.512 0)
(-282.012 265.345 0)
(-288.272 233.794 0)
(-291.372 206.453 0)
(-294.489 181.684 0)
(-298.204 158.49 0)
(-301.654 137.223 0)
(-304.977 118.635 0)
(-307.31 102.797 0)
(-308.349 89.4906 0)
(-308.206 78.44 0)
(-307.42 69.5669 0)
(-306.522 62.9882 0)
(-305.45 58.621 0)
(-303.65 55.901 0)
(-300.57 53.9651 0)
(-295.536 51.9721 0)
(-288.222 48.9593 0)
(-280.197 43.9959 0)
(-273.916 36.7413 0)
(-269.242 27.2166 0)
(-263.713 15.9327 0)
(-256.704 3.20088 0)
(-250.5 -9.22546 0)
(-243.508 -22.185 0)
(-233.189 -35.9281 0)
(-220.216 -48.4358 0)
(-205.823 -60.6288 0)
(-191.624 -71.9045 0)
(-179.744 -81.5379 0)
(-167.682 -89.3657 0)
(-150.718 -97.8967 0)
(-127.017 -107.88 0)
(-103.069 -119.633 0)
(-85.8398 -130.504 0)
(-72.5497 -138.417 0)
(-59.9132 -144.861 0)
(-47.847 -151.638 0)
(-36.599 -158.622 0)
(-26.8778 -164.504 0)
(-18.8192 -168.357 0)
(-11.3866 -170.039 0)
(-3.56659 -170.521 0)
(4.87187 -170.729 0)
(13.4612 -171.004 0)
(21.6348 -171.311 0)
(28.9969 -171.486 0)
(35.396 -171.371 0)
(40.9013 -170.865 0)
(45.699 -169.916 0)
(49.9833 -168.516 0)
(53.8761 -166.724 0)
(57.3724 -164.689 0)
(60.3572 -162.616 0)
(62.6906 -160.684 0)
(64.2851 -158.966 0)
(65.1322 -157.412 0)
(65.289 -155.869 0)
(64.8543 -154.138 0)
(63.9518 -152.041 0)
(62.7326 -149.44 0)
(61.386 -146.251 0)
(60.1391 -142.428 0)
(59.2409 -137.961 0)
(58.9349 -132.868 0)
(59.4291 -127.198 0)
(60.8705 -121.028 0)
(63.3014 -114.461 0)
(66.6471 -107.621 0)
(70.7426 -100.626 0)
(75.3751 -93.6089 0)
(80.3698 -86.7508 0)
(85.6617 -80.2461 0)
(91.2601 -74.2612 0)
(97.1031 -68.8883 0)
(102.938 -64.1034 0)
(108.412 -59.788 0)
(113.319 -55.8339 0)
(117.672 -52.2195 0)
(121.504 -48.9946 0)
(124.654 -46.1768 0)
(126.842 -43.6156 0)
(127.951 -40.896 0)
(128.347 -37.3699 0)
(128.502 -32.207 0)
(132.285 -24.9245 0)
(1537.57 504.81 0)
(1631.07 1046.67 0)
(1333.51 1303.58 0)
(946.3 1434.29 0)
(608.639 1488.79 0)
(320.12 1440.07 0)
(46.744 1295.08 0)
(-207.321 1051.31 0)
(-287.086 897.645 0)
(-333.673 770.532 0)
(-358.691 655.857 0)
(-370.212 558.462 0)
(-377.617 475.141 0)
(-379.493 405.144 0)
(-376.737 348.219 0)
(-371.005 301.933 0)
(-364.452 263.273 0)
(-358.216 229.694 0)
(-352.995 199.691 0)
(-348.502 172.636 0)
(-343.998 148.408 0)
(-339.195 126.986 0)
(-334.085 108.286 0)
(-328.794 92.2724 0)
(-323.057 78.9808 0)
(-316.201 68.3784 0)
(-307.971 60.1423 0)
(-298.881 53.6129 0)
(-289.412 47.9238 0)
(-279.6 42.2419 0)
(-269.561 35.742 0)
(-259.715 27.4017 0)
(-249.563 15.3842 0)
(-239.262 -0.461705 0)
(-230.568 -19.3782 0)
(-223.384 -39.0075 0)
(-218.993 -54.0821 0)
(-214.485 -66.1703 0)
(-207.461 -77.3008 0)
(-196.85 -87.493 0)
(-183.142 -96.3414 0)
(-165.879 -106.853 0)
(-148.574 -117.666 0)
(-133.374 -127.278 0)
(-120.519 -134.779 0)
(-106.951 -140.34 0)
(-92.3878 -146.327 0)
(-78.3403 -154.387 0)
(-66.5644 -161.532 0)
(-55.4085 -167.473 0)
(-44.9901 -172.387 0)
(-34.9956 -176.802 0)
(-25.5841 -181.048 0)
(-17.0673 -184.893 0)
(-9.55847 -187.983 0)
(-2.90195 -190.159 0)
(3.19279 -191.492 0)
(8.94634 -192.168 0)
(14.3754 -192.335 0)
(19.3325 -192.069 0)
(23.6447 -191.393 0)
(27.2292 -190.308 0)
(30.1125 -188.826 0)
(32.3819 -186.994 0)
(34.1399 -184.888 0)
(35.4765 -182.583 0)
(36.4442 -180.132 0)
(37.0631 -177.552 0)
(37.3612 -174.823 0)
(37.4042 -171.902 0)
(37.3006 -168.73 0)
(37.1813 -165.245 0)
(37.151 -161.376 0)
(37.2547 -157.055 0)
(37.5008 -152.232 0)
(37.9084 -146.886 0)
(38.5337 -141.035 0)
(39.4692 -134.741 0)
(40.8142 -128.105 0)
(42.6387 -121.252 0)
(44.9734 -114.31 0)
(47.8017 -107.403 0)
(51.1273 -100.658 0)
(54.9319 -94.1844 0)
(59.0683 -88.0509 0)
(63.4046 -82.2732 0)
(67.928 -76.8231 0)
(72.6493 -71.6874 0)
(77.4938 -66.8988 0)
(82.2221 -62.494 0)
(86.4749 -58.4664 0)
(89.9851 -54.7668 0)
(92.7031 -51.3438 0)
(94.6876 -48.1564 0)
(95.9692 -45.1359 0)
(96.5226 -42.1476 0)
(96.4522 -38.9542 0)
(95.9874 -35.2884 0)
(95.169 -30.9078 0)
(97.9432 -25.5305 0)
(2365.78 -936.9 0)
(2041.24 959.159 0)
(748.987 2361.88 0)
(-109.836 2784.14 0)
(-410.619 2323 0)
(-593.599 1916.16 0)
(-688.157 1560.08 0)
(-724.115 1243.06 0)
(-700.082 1011.57 0)
(-675.109 830.273 0)
(-648.051 684.037 0)
(-616.965 567.567 0)
(-585.097 474.67 0)
(-553.333 400.108 0)
(-522.72 339.529 0)
(-494.195 289.222 0)
(-468.623 246.297 0)
(-446.441 208.781 0)
(-427.503 175.555 0)
(-410.933 146.093 0)
(-395.598 120.219 0)
(-380.679 97.9078 0)
(-365.608 79.143 0)
(-349.821 63.779 0)
(-332.987 51.3693 0)
(-315.572 41.1002 0)
(-298.688 31.9035 0)
(-282.884 22.639 0)
(-268.105 12.8114 0)
(-253.804 1.94272 0)
(-240.351 -10.127 0)
(-228.826 -23.2368 0)
(-219.481 -37.6111 0)
(-211.766 -54.612 0)
(-205.172 -70.5333 0)
(-198.707 -85.0947 0)
(-191.448 -98.4586 0)
(-182.335 -109.825 0)
(-171.005 -119.85 0)
(-157.092 -129.283 0)
(-142.759 -136.95 0)
(-129.412 -143.694 0)
(-117.037 -150.736 0)
(-104.941 -157.714 0)
(-93.1747 -164.435 0)
(-81.6702 -170.755 0)
(-70.4985 -176.124 0)
(-59.4127 -180.84 0)
(-48.9996 -185.17 0)
(-39.5383 -189.128 0)
(-31.0874 -192.675 0)
(-23.5164 -195.885 0)
(-16.72 -198.814 0)
(-10.6965 -201.422 0)
(-5.45947 -203.608 0)
(-0.926121 -205.267 0)
(3.06329 -206.336 0)
(6.62174 -206.808 0)
(9.74506 -206.712 0)
(12.3486 -206.09 0)
(14.3413 -204.981 0)
(15.6779 -203.412 0)
(16.3787 -201.412 0)
(16.5388 -199.019 0)
(16.3447 -196.276 0)
(16.0377 -193.209 0)
(15.804 -189.815 0)
(15.7137 -186.073 0)
(15.7643 -181.964 0)
(15.9391 -177.484 0)
(16.2482 -172.644 0)
(16.7518 -167.473 0)
(17.5184 -162.013 0)
(18.5616 -156.31 0)
(19.8407 -150.41 0)
(21.3021 -144.35 0)
(22.9012 -138.162 0)
(24.612 -131.88 0)
(26.4481 -125.562 0)
(28.488 -119.298 0)
(30.8129 -113.188 0)
(33.3857 -107.316 0)
(36.1008 -101.737 0)
(38.881 -96.5081 0)
(41.7021 -91.6751 0)
(44.618 -87.2422 0)
(47.6404 -83.1888 0)
(50.6313 -79.5153 0)
(53.4014 -76.252 0)
(55.7853 -73.4186 0)
(57.6361 -70.9602 0)
(58.8804 -68.7303 0)
(59.578 -66.5462 0)
(59.874 -64.2413 0)
(59.9078 -61.6691 0)
(59.7496 -58.7058 0)
(59.518 -55.1929 0)
(59.4132 -50.9624 0)
(59.2353 -45.9361 0)
(62.1414 -39.9729 0)
(-12880.7 5039.39 0)
(1716.67 6589 0)
(-3008.95 4490.28 0)
(-2355.69 3612.18 0)
(-2123.64 2736.91 0)
(-1881.22 2093.91 0)
(-1654.05 1612.29 0)
(-1451.21 1245.22 0)
(-1274.56 971.142 0)
(-1128.47 763.918 0)
(-1005.52 605.707 0)
(-900.488 484.329 0)
(-810.976 390.324 0)
(-734.571 316.498 0)
(-669.06 257.507 0)
(-612.651 209.415 0)
(-564.147 169.393 0)
(-522.562 135.546 0)
(-486.637 106.726 0)
(-454.685 82.2438 0)
(-424.983 61.6179 0)
(-396.369 44.4552 0)
(-368.65 30.7827 0)
(-342.23 19.9895 0)
(-317.573 10.9079 0)
(-294.898 2.30273 0)
(-274.166 -6.85669 0)
(-255.343 -16.9266 0)
(-238.431 -28.3498 0)
(-224.215 -41.154 0)
(-212.754 -55.5726 0)
(-203.312 -71.3826 0)
(-195.278 -86.1258 0)
(-187.65 -99.8872 0)
(-179.232 -113.361 0)
(-169.852 -125.323 0)
(-158.916 -136.315 0)
(-146.84 -145.744 0)
(-135.108 -153.243 0)
(-124.342 -159.921 0)
(-113.429 -166.496 0)
(-102.47 -172.559 0)
(-91.179 -178.752 0)
(-80.0527 -184.499 0)
(-69.3218 -189.17 0)
(-59.1809 -193.005 0)
(-49.7647 -196.372 0)
(-41.0234 -199.495 0)
(-33.0248 -202.461 0)
(-25.8974 -205.276 0)
(-19.7043 -207.889 0)
(-14.4232 -210.252 0)
(-9.98258 -212.334 0)
(-6.29143 -214.09 0)
(-3.25497 -215.448 0)
(-0.767131 -216.332 0)
(1.28583 -216.693 0)
(2.97488 -216.525 0)
(4.28801 -215.839 0)
(5.15371 -214.638 0)
(5.51163 -212.925 0)
(5.36723 -210.703 0)
(4.78554 -207.975 0)
(3.87304 -204.745 0)
(2.81381 -201.023 0)
(1.86136 -196.842 0)
(1.20963 -192.257 0)
(0.903764 -187.331 0)
(0.893309 -182.127 0)
(1.12487 -176.703 0)
(1.58298 -171.108 0)
(2.27976 -165.39 0)
(3.21935 -159.597 0)
(4.37333 -153.778 0)
(5.69931 -147.975 0)
(7.17886 -142.23 0)
(8.82019 -136.576 0)
(10.5915 -131.024 0)
(12.3893 -125.573 0)
(14.1288 -120.234 0)
(15.8102 -115.065 0)
(17.487 -110.15 0)
(19.1991 -105.528 0)
(20.9142 -101.194 0)
(22.5822 -97.1377 0)
(24.2221 -93.377 0)
(25.8244 -89.9643 0)
(27.2593 -86.9256 0)
(28.3873 -84.2139 0)
(29.1731 -81.7123 0)
(29.6713 -79.2494 0)
(29.9546 -76.6471 0)
(30.0763 -73.7732 0)
(30.0403 -70.5664 0)
(29.8071 -67.0227 0)
(29.3337 -63.1754 0)
(28.6593 -59.0459 0)
(28.0063 -54.5814 0)
(27.1607 -49.7578 0)
(28.6579 -44.5473 0)
(-41288.1 -1768.18 0)
(-534.706 1836.26 0)
(-8460.31 1281.51 0)
(-5707.69 965.572 0)
(-4577.93 701.694 0)
(-3632.71 517.599 0)
(-2925.03 383.962 0)
(-2385.73 286.573 0)
(-1971.48 215.94 0)
(-1649.84 163.917 0)
(-1396.75 124.69 0)
(-1195.21 94.3674 0)
(-1032.99 70.2258 0)
(-901.01 50.3855 0)
(-792.46 33.5615 0)
(-702.264 18.8642 0)
(-626.657 5.7253 0)
(-562.661 -6.06701 0)
(-507.761 -16.417 0)
(-459.859 -25.1058 0)
(-417.369 -32.0481 0)
(-379.359 -37.4418 0)
(-345.328 -42.0881 0)
(-314.863 -46.552 0)
(-287.584 -51.3945 0)
(-263.468 -57.0203 0)
(-242.555 -63.6903 0)
(-224.76 -71.6611 0)
(-209.538 -81.6386 0)
(-196.702 -93.4656 0)
(-185.716 -106.029 0)
(-176.064 -118.048 0)
(-166.556 -129.511 0)
(-157.041 -140.046 0)
(-146.241 -150.576 0)
(-135.306 -159.74 0)
(-125.057 -167.398 0)
(-114.504 -174.599 0)
(-103.986 -181.014 0)
(-94.0189 -186.612 0)
(-83.4136 -192.322 0)
(-73.3814 -197.115 0)
(-63.6527 -200.853 0)
(-54.5037 -203.937 0)
(-45.9754 -206.648 0)
(-38.1576 -209.106 0)
(-31.0953 -211.375 0)
(-24.7818 -213.52 0)
(-19.1877 -215.587 0)
(-14.3146 -217.563 0)
(-10.2016 -219.39 0)
(-6.87646 -220.988 0)
(-4.30846 -222.276 0)
(-2.40328 -223.19 0)
(-1.05205 -223.679 0)
(-0.165796 -223.695 0)
(0.31996 -223.204 0)
(0.456466 -222.203 0)
(0.300374 -220.718 0)
(-0.129855 -218.766 0)
(-0.868082 -216.342 0)
(-1.9139 -213.432 0)
(-3.19864 -210.034 0)
(-4.61234 -206.155 0)
(-6.00642 -201.819 0)
(-7.21851 -197.083 0)
(-8.13642 -192.041 0)
(-8.73084 -186.795 0)
(-9.02744 -181.43 0)
(-9.05678 -176.014 0)
(-8.82298 -170.605 0)
(-8.29956 -165.258 0)
(-7.45706 -160.012 0)
(-6.31756 -154.88 0)
(-4.96274 -149.849 0)
(-3.46938 -144.906 0)
(-1.85441 -140.058 0)
(-0.101387 -135.33 0)
(1.76285 -130.721 0)
(3.62883 -126.201 0)
(5.3635 -121.755 0)
(6.93906 -117.406 0)
(8.44913 -113.2 0)
(9.93132 -109.185 0)
(11.2854 -105.392 0)
(12.4103 -101.832 0)
(13.316 -98.4967 0)
(14.1194 -95.3087 0)
(14.9998 -92.1271 0)
(16.1196 -88.7995 0)
(17.4913 -85.2183 0)
(18.9396 -81.3574 0)
(20.2217 -77.2721 0)
(21.1295 -73.064 0)
(21.5323 -68.8216 0)
(21.3925 -64.6018 0)
(20.7786 -60.4291 0)
(19.904 -56.256 0)
(18.6275 -51.9988 0)
(19.1299 -47.5752 0)
(-20540 -2936.5 0)
(-491.417 -5698.34 0)
(-5474.94 -3776.71 0)
(-4352.03 -2872.71 0)
(-3623.7 -2188.95 0)
(-3005.7 -1684.93 0)
(-2508 -1306.66 0)
(-2106.43 -1023.28 0)
(-1782.33 -809.34 0)
(-1520.14 -646.194 0)
(-1306.37 -520.335 0)
(-1130.2 -422.754 0)
(-983.782 -346.958 0)
(-860.949 -288.033 0)
(-757.048 -242.426 0)
(-668.517 -207.553 0)
(-592.546 -181.372 0)
(-526.905 -162.107 0)
(-469.826 -148.179 0)
(-419.923 -138.243 0)
(-376.159 -131.311 0)
(-337.534 -126.882 0)
(-303.284 -124.525 0)
(-273.354 -123.631 0)
(-247.534 -123.933 0)
(-225.027 -125.562 0)
(-205.424 -128.628 0)
(-188.888 -133.031 0)
(-174.549 -138.963 0)
(-161.491 -145.894 0)
(-149.744 -153.013 0)
(-139.065 -160.31 0)
(-128.351 -168.22 0)
(-118.056 -175.551 0)
(-107.765 -182.344 0)
(-98.0703 -188.581 0)
(-88.9831 -194.212 0)
(-78.9957 -200.345 0)
(-69.4215 -205.653 0)
(-60.29 -209.663 0)
(-51.8668 -212.684 0)
(-44.1426 -215.04 0)
(-37.0844 -216.961 0)
(-30.6099 -218.59 0)
(-24.6661 -220.056 0)
(-19.255 -221.432 0)
(-14.4179 -222.745 0)
(-10.1972 -223.99 0)
(-6.60178 -225.148 0)
(-3.62166 -226.2 0)
(-1.25036 -227.108 0)
(0.51052 -227.806 0)
(1.65701 -228.203 0)
(2.21497 -228.222 0)
(2.27882 -227.818 0)
(1.98356 -226.967 0)
(1.41121 -225.66 0)
(0.566408 -223.895 0)
(-0.531333 -221.685 0)
(-1.80962 -219.052 0)
(-3.20477 -216.012 0)
(-4.68278 -212.568 0)
(-6.21023 -208.728 0)
(-7.7324 -204.51 0)
(-9.17281 -199.953 0)
(-10.4481 -195.125 0)
(-11.4884 -190.119 0)
(-12.2548 -185.027 0)
(-12.7478 -179.922 0)
(-12.9942 -174.857 0)
(-13.0127 -169.878 0)
(-12.7787 -165.027 0)
(-12.2207 -160.343 0)
(-11.2772 -155.841 0)
(-9.96765 -151.492 0)
(-8.40093 -147.242 0)
(-6.70183 -143.047 0)
(-4.91894 -138.892 0)
(-3.0486 -134.784 0)
(-1.16826 -130.731 0)
(0.55723 -126.735 0)
(2.01647 -122.8 0)
(3.18912 -118.961 0)
(4.08436 -115.26 0)
(4.74934 -111.69 0)
(5.33387 -108.171 0)
(6.09492 -104.578 0)
(7.27032 -100.799 0)
(8.93977 -96.7831 0)
(11.0019 -92.5715 0)
(13.1975 -88.2711 0)
(15.1827 -83.9978 0)
(16.6784 -79.837 0)
(17.5602 -75.8347 0)
(17.8481 -71.9766 0)
(17.6461 -68.2022 0)
(17.1085 -64.4408 0)
(16.4324 -60.6214 0)
(15.4923 -56.646 0)
(16.2641 -52.4355 0)
(-15510.7 3489.13 0)
(2041.93 -5341.24 0)
(-814.992 -3828.09 0)
(-1533.67 -3280.01 0)
(-1600.47 -2786.68 0)
(-1587.28 -2291.46 0)
(-1494.52 -1851.73 0)
(-1352.56 -1515.25 0)
(-1203.13 -1256.76 0)
(-1064.8 -1050.87 0)
(-942.786 -881.722 0)
(-836.071 -741.478 0)
(-744.058 -625.435 0)
(-664.46 -529.234 0)
(-594.949 -449.758 0)
(-533.659 -384.934 0)
(-479.01 -333.182 0)
(-429.725 -293.039 0)
(-384.917 -262.909 0)
(-344.256 -241.039 0)
(-308.044 -225.582 0)
(-276.078 -214.802 0)
(-247.142 -207.376 0)
(-220.478 -202.167 0)
(-196.231 -198.254 0)
(-174.175 -195.252 0)
(-154.979 -192.902 0)
(-138.923 -190.98 0)
(-125.256 -190.138 0)
(-111.942 -191.473 0)
(-100.123 -194.201 0)
(-90.0595 -196.999 0)
(-81.2386 -200.191 0)
(-72.6319 -204.66 0)
(-63.9296 -210.225 0)
(-55.7099 -215.203 0)
(-48.0122 -219.171 0)
(-40.7941 -222.263 0)
(-34.0273 -224.669 0)
(-27.7529 -226.512 0)
(-22.0086 -227.863 0)
(-16.8266 -228.81 0)
(-12.2113 -229.446 0)
(-8.12533 -229.87 0)
(-4.50684 -230.177 0)
(-1.29927 -230.439 0)
(1.52337 -230.687 0)
(3.94122 -230.91 0)
(5.89618 -231.07 0)
(7.33061 -231.123 0)
(8.2416 -231.033 0)
(8.68646 -230.754 0)
(8.71443 -230.228 0)
(8.33337 -229.39 0)
(7.56541 -228.193 0)
(6.47772 -226.615 0)
(5.15081 -224.657 0)
(3.65611 -222.328 0)
(2.05676 -219.631 0)
(0.410207 -216.579 0)
(-1.23751 -213.2 0)
(-2.84973 -209.521 0)
(-4.39188 -205.569 0)
(-5.83742 -201.372 0)
(-7.17503 -196.965 0)
(-8.39719 -192.4 0)
(-9.4789 -187.747 0)
(-10.3756 -183.074 0)
(-11.0551 -178.44 0)
(-11.519 -173.882 0)
(-11.7808 -169.425 0)
(-11.8322 -165.089 0)
(-11.608 -160.896 0)
(-10.9964 -156.861 0)
(-9.94219 -152.975 0)
(-8.51319 -149.2 0)
(-6.84279 -145.481 0)
(-5.05731 -141.765 0)
(-3.25944 -138.034 0)
(-1.5597 -134.315 0)
(-0.099855 -130.635 0)
(1.00813 -126.993 0)
(1.7786 -123.373 0)
(2.36655 -119.731 0)
(3.00536 -115.999 0)
(3.9224 -112.11 0)
(5.24211 -108.055 0)
(6.91563 -103.903 0)
(8.74756 -99.781 0)
(10.5088 -95.8282 0)
(12.0172 -92.143 0)
(13.1434 -88.7417 0)
(13.8266 -85.558 0)
(14.112 -82.4837 0)
(14.1298 -79.3947 0)
(14.031 -76.1612 0)
(13.943 -72.6787 0)
(13.9843 -68.8889 0)
(13.9286 -64.7461 0)
(15.5972 -60.2123 0)
(614.665 405.195 0)
(1604.91 -755.668 0)
(1426.14 -1678.42 0)
(873.895 -2277.22 0)
(350.344 -2451.58 0)
(-111.293 -2214.27 0)
(-383.535 -1846.85 0)
(-500.11 -1575.17 0)
(-540.828 -1362.95 0)
(-534.768 -1184.84 0)
(-505.599 -1029.16 0)
(-467.343 -891.864 0)
(-429.985 -773.781 0)
(-396.432 -671.589 0)
(-366.058 -582.987 0)
(-338.328 -507.166 0)
(-312.716 -443.75 0)
(-288.527 -392.456 0)
(-265.072 -352.645 0)
(-242.011 -323.104 0)
(-219.434 -301.966 0)
(-197.211 -286.689 0)
(-174.554 -274.917 0)
(-151.734 -265.209 0)
(-129.554 -256.411 0)
(-107.807 -248.234 0)
(-88.6585 -240.832 0)
(-73.0885 -234.044 0)
(-61.0213 -228.302 0)
(-50.167 -225.697 0)
(-41.0607 -226.682 0)
(-33.5184 -228.26 0)
(-27.1521 -230.07 0)
(-21.6196 -231.944 0)
(-16.7109 -233.735 0)
(-12.2802 -235.349 0)
(-8.18399 -236.692 0)
(-4.31873 -237.71 0)
(-0.647502 -238.395 0)
(2.81065 -238.762 0)
(6.00544 -238.838 0)
(8.87783 -238.66 0)
(11.3766 -238.27 0)
(13.4761 -237.717 0)
(15.1922 -237.056 0)
(16.5726 -236.334 0)
(17.6675 -235.582 0)
(18.4992 -234.808 0)
(19.0395 -233.997 0)
(19.222 -233.11 0)
(19.0065 -232.102 0)
(18.4208 -230.935 0)
(17.5163 -229.58 0)
(16.3252 -228.003 0)
(14.887 -226.17 0)
(13.2648 -224.058 0)
(11.5268 -221.656 0)
(9.73247 -218.97 0)
(7.92793 -216.01 0)
(6.15207 -212.795 0)
(4.44286 -209.348 0)
(2.8344 -205.698 0)
(1.35232 -201.879 0)
(0.00588132 -197.928 0)
(-1.21993 -193.882 0)
(-2.3526 -189.772 0)
(-3.40255 -185.631 0)
(-4.34277 -181.488 0)
(-5.12729 -177.375 0)
(-5.73472 -173.316 0)
(-6.17231 -169.323 0)
(-6.43485 -165.398 0)
(-6.46425 -161.548 0)
(-6.1466 -157.795 0)
(-5.38574 -154.156 0)
(-4.18654 -150.618 0)
(-2.64399 -147.139 0)
(-0.907339 -143.678 0)
(0.829463 -140.217 0)
(2.37833 -136.754 0)
(3.63681 -133.294 0)
(4.61127 -129.819 0)
(5.3979 -126.293 0)
(6.14409 -122.694 0)
(6.96498 -119.041 0)
(7.87715 -115.4 0)
(8.80399 -111.873 0)
(9.63094 -108.563 0)
(10.2599 -105.526 0)
(10.656 -102.757 0)
(10.8701 -100.193 0)
(10.9888 -97.7263 0)
(11.0782 -95.2157 0)
(11.201 -92.5173 0)
(11.4413 -89.5195 0)
(11.8806 -86.1401 0)
(12.5656 -82.3217 0)
(13.5208 -78.0468 0)
(14.404 -73.3387 0)
(16.8794 -68.2082 0)
(1653.44 -122.396 0)
(1865.07 -566.705 0)
(1695.44 -955.585 0)
(1444.91 -1217.44 0)
(1183.7 -1358.95 0)
(888.794 -1401.47 0)
(569.771 -1372.01 0)
(281.976 -1298.12 0)
(73.6295 -1201.66 0)
(-45.822 -1096.39 0)
(-99.1873 -990.261 0)
(-116.526 -882.742 0)
(-120.152 -788.331 0)
(-120.349 -704.707 0)
(-119.02 -628.923 0)
(-116.927 -561.162 0)
(-114.676 -501.73 0)
(-112.449 -450.961 0)
(-109.755 -408.916 0)
(-105.698 -375.188 0)
(-99.4246 -348.803 0)
(-90.186 -328.164 0)
(-76.9852 -311.44 0)
(-61.347 -298.564 0)
(-44.5345 -287.873 0)
(-27.9606 -278.72 0)
(-12.9985 -271.002 0)
(-0.560472 -264.574 0)
(9.09403 -259.377 0)
(16.1198 -255.399 0)
(20.8313 -252.54 0)
(23.7823 -250.614 0)
(25.6056 -249.409 0)
(26.7739 -248.711 0)
(27.6061 -248.328 0)
(28.3116 -248.082 0)
(29.025 -247.836 0)
(29.8145 -247.493 0)
(30.6865 -247.002 0)
(31.6072 -246.344 0)
(32.5225 -245.521 0)
(33.3591 -244.542 0)
(34.0343 -243.42 0)
(34.485 -242.176 0)
(34.6896 -240.834 0)
(34.6584 -239.42 0)
(34.4135 -237.95 0)
(33.9711 -236.436 0)
(33.3239 -234.883 0)
(32.4373 -233.277 0)
(31.2769 -231.588 0)
(29.8526 -229.782 0)
(28.2152 -227.835 0)
(26.4184 -225.73 0)
(24.5066 -223.447 0)
(22.5236 -220.975 0)
(20.5184 -218.311 0)
(18.5431 -215.458 0)
(16.6456 -212.424 0)
(14.8608 -209.223 0)
(13.2063 -205.872 0)
(11.6787 -202.396 0)
(10.2693 -198.827 0)
(8.97612 -195.198 0)
(7.79211 -191.539 0)
(6.70277 -187.871 0)
(5.70368 -184.201 0)
(4.80737 -180.529 0)
(4.03712 -176.858 0)
(3.41508 -173.196 0)
(2.95688 -169.551 0)
(2.66801 -165.924 0)
(2.55151 -162.312 0)
(2.67065 -158.732 0)
(3.15451 -155.216 0)
(4.08233 -151.792 0)
(5.38999 -148.449 0)
(6.90079 -145.167 0)
(8.41828 -141.926 0)
(9.77776 -138.713 0)
(10.8806 -135.519 0)
(11.7069 -132.35 0)
(12.273 -129.23 0)
(12.5869 -126.205 0)
(12.6421 -123.334 0)
(12.4376 -120.666 0)
(11.9982 -118.215 0)
(11.3859 -115.949 0)
(10.6876 -113.791 0)
(10.0022 -111.638 0)
(9.44075 -109.379 0)
(9.10851 -106.92 0)
(9.06769 -104.182 0)
(9.3257 -101.093 0)
(9.87579 -97.6064 0)
(10.7205 -93.7125 0)
(11.8591 -89.4096 0)
(13.2827 -84.7018 0)
(14.6089 -79.6116 0)
(17.3482 -74.1787 0)
(1325.05 -111.043 0)
(1448 -325.038 0)
(1353.45 -530.842 0)
(1250.64 -697.327 0)
(1148.26 -821.079 0)
(1005.08 -899.424 0)
(817.085 -932.478 0)
(617.268 -928.226 0)
(442.553 -899.155 0)
(311.742 -856.521 0)
(224.415 -807.311 0)
(170.147 -755.287 0)
(136.747 -702.641 0)
(114.731 -650.668 0)
(98.6009 -600.136 0)
(85.4082 -551.649 0)
(73.284 -505.863 0)
(61.1183 -463.566 0)
(48.8271 -425.598 0)
(37.3872 -392.651 0)
(28.3991 -365.034 0)
(23.4185 -342.552 0)
(23.3293 -324.628 0)
(27.9332 -310.501 0)
(36.0542 -299.324 0)
(45.9925 -290.317 0)
(55.9496 -282.899 0)
(64.4449 -276.665 0)
(70.5887 -271.395 0)
(74.1301 -267.009 0)
(75.3378 -263.453 0)
(74.7788 -260.628 0)
(73.0807 -258.413 0)
(70.779 -256.671 0)
(68.2731 -255.26 0)
(65.8394 -254.055 0)
(63.6503 -252.943 0)
(61.7816 -251.833 0)
(60.2315 -250.663 0)
(58.9578 -249.404 0)
(57.9029 -248.05 0)
(56.9935 -246.608 0)
(56.1339 -245.077 0)
(55.2229 -243.454 0)
(54.1954 -241.752 0)
(53.0379 -239.983 0)
(51.7504 -238.156 0)
(50.3201 -236.274 0)
(48.7362 -234.34 0)
(46.997 -232.351 0)
(45.1002 -230.292 0)
(43.0523 -228.143 0)
(40.8815 -225.886 0)
(38.6316 -223.511 0)
(36.3527 -221.011 0)
(34.0973 -218.38 0)
(31.9158 -215.616 0)
(29.8499 -212.723 0)
(27.927 -209.711 0)
(26.1574 -206.596 0)
(24.5362 -203.398 0)
(23.0483 -200.137 0)
(21.676 -196.829 0)
(20.4054 -193.492 0)
(19.2302 -190.139 0)
(18.1548 -186.781 0)
(17.1925 -183.416 0)
(16.3581 -180.042 0)
(15.6586 -176.661 0)
(15.0848 -173.279 0)
(14.6343 -169.9 0)
(14.3247 -166.525 0)
(14.166 -163.15 0)
(14.1705 -159.776 0)
(14.393 -156.419 0)
(14.9295 -153.111 0)
(15.8141 -149.875 0)
(16.9321 -146.722 0)
(18.0783 -143.666 0)
(19.0489 -140.73 0)
(19.6839 -137.94 0)
(19.885 -135.32 0)