/*--------------------------------*- C++ -*----------------------------------*\
| =========                 |                                                 |
| \\      /  F ield         | OpenFOAM: The Open Source CFD Toolbox           |
|  \\    /   O peration     | Version:  2412                                  |
|   \\  /    A nd           | Website:  www.openfoam.com                      |
|    \\/     M anipulation  |                                                 |
\*---------------------------------------------------------------------------*/
FoamFile
{
    version     2.0;
    format      ascii;
    arch        "LSB;label=32;scalar=64";
    class       volScalarField;
    location    "4";
    object      p;
}
// * * * * * * * * * * * * * * * * * * * * * * * * * * * * * * * * * * * * * //

dimensions      [1 -1 -2 0 0 0 0];

internalField   nonuniform List<scalar> 
200
(
1.18113
0.876962
1.07481
0.931203
1.03892
0.981509
1.00838
1.00084
1.0012
1.00187
1.17816
0.852721
1.05201
0.989348
0.998447
0.997185
0.997464
0.998307
0.999318
1.00022
1.17378
0.857012
1.04083
0.985046
0.999078
0.997244
0.997574
0.998675
0.999702
1.00061
1.17168
0.887355
1.0477
0.953815
0.999133
0.982147
0.989263
0.991848
0.995075
0.997571
1.20883
0.933243
1.01562
0.986801
0.996617
0.995606
0.996797
0.997647
0.998643
0.99961
1.17392
0.884864
1.05754
0.956986
1.00674
0.987431
0.993218
0.993281
0.995125
0.996991
1.17526
0.851706
1.04219
0.994177
0.997687
0.997524
0.997668
0.998123
0.998636
0.999166
1.18261
0.864812
1.08566
0.980494
1.0054
1.00127
0.999794
0.99959
1.00044
1.00094
1.18183
0.882798
1.06237
0.903827
1.03464
0.982799
1.00637
0.998557
1.00176
1.001
1.18149
0.87765
1.07491
0.952205
1.02232
0.983215
1.01133
0.991065
1.00785
0.997143
1.00228
1.00212
1.0023
1.00236
1.00232
1.00229
1.00226
1.00223
1.00222
1.00225
1.00105
1.00169
1.00195
1.00197
1.00208
1.00215
1.0022
1.00219
1.00221
1.00227
1.00133
1.00191
1.00212
1.00219
1.00223
1.00224
1.00225
1.00225
1.00226
1.00229
0.999927
1.00126
1.00168
1.00182
1.00202
1.00214
1.00222
1.00226
1.00228
1.0023
1.00063
1.00113
1.00149
1.00186
1.00209
1.00221
1.00227
1.00229
1.0023
1.0023
0.999271
1.00046
1.00142
1.00182
1.00206
1.00218
1.00223
1.00226
1.00227
1.00227
1.00017
1.00075
1.00137
1.0017
1.00191
1.00204
1.00212
1.00218
1.0022
1.00221
1.00169
1.00115
1.00159
1.00156
1.00166
1.00173
1.00184
1.00198
1.0021
1.00217
1.00187
1.00084
1.00153
1.0013
1.00162
1.00166
1.00179
1.00191
1.00212
1.00223
1.00476
1.00005
1.00207
1.00158
1.00174
1.00179
1.00189
1.00199
1.0021
1.0022
)
;

boundaryField
{
    inlet
    {
        type            fixedValue;
        value           uniform 1;
    }
    sym
    {
        type            slip;
    }
    wedge
    {
        type            slip;
    }
    top
    {
        type            slip;
    }
    back
    {
        type            empty;
    }
    front
    {
        type            empty;
    }
    outlet
    {
        type            zeroGradient;
    }
}


// ************************************************************************* //
