/*--------------------------------*- C++ -*----------------------------------*\
| =========                 |                                                 |
| \\      /  F ield         | OpenFOAM: The Open Source CFD Toolbox           |
|  \\    /   O peration     | Version:  2412                                  |
|   \\  /    A nd           | Website:  www.openfoam.com                      |
|    \\/     M anipulation  |                                                 |
\*---------------------------------------------------------------------------*/
FoamFile
{
    version     2.0;
    format      ascii;
    arch        "LSB;label=32;scalar=64";
    class       surfaceScalarField;
    location    "4";
    object      phi;
}
// * * * * * * * * * * * * * * * * * * * * * * * * * * * * * * * * * * * * * //

dimensions      [1 0 -1 0 0 0 0];

oriented        oriented;

internalField   nonuniform List<scalar> 
370
(
5.51427e-05
9.47594e-05
-0.000174065
0.000229035
-0.000185174
1.09559e-05
0.000312447
-0.000497601
0.000286498
2.58643e-05
0.000422541
-0.000136095
0.000430785
-8.29562e-06
0.000422676
8.0448e-06
0.000400878
2.17357e-05
3.25955e-05
0.000368216
0.000357311
-0.000127829
0.00080349
-0.000217107
0.000996295
-0.000181932
0.000648314
-0.000149602
0.000754998
-8.08111e-05
0.000644362
-2.5447e-05
0.000583749
5.23297e-05
0.000489289
0.000102514
0.000385663
0.00012536
0.000127485
0.000290747
0.000345431
-0.000346237
0.000701263
-0.000572852
0.000600286
-8.08992e-05
0.000471905
-2.11885e-05
0.00042064
-2.94937e-05
0.000326864
6.83706e-05
0.00025095
0.000128281
0.000174051
0.000179459
0.000105874
0.000193593
0.000178912
5.44943e-05
0.000122301
-0.000355728
-7.27702e-05
-0.000377785
-0.000423876
0.000270296
-0.000487924
4.31547e-05
-0.000625818
0.000108483
-0.000629903
7.25215e-05
-0.000596457
9.48774e-05
-0.000527654
0.000110696
-0.000447398
0.000113369
0.000101866
-0.000370333
-0.000830257
0.000283783
-0.00156404
0.000356041
-0.000983717
-0.000309873
-0.000915629
-2.43293e-05
-0.000779908
-2.71153e-05
-0.000720254
1.28844e-05
-0.000656013
3.06373e-05
-0.000586166
4.08514e-05
-0.000506888
3.40944e-05
2.03322e-05
-0.000425357
7.22204e-05
0.00032355
-0.000112318
0.000540693
-0.000430921
8.53053e-06
-0.000482491
2.64855e-05
-0.000605191
9.55321e-05
-0.00060602
1.37183e-05
-0.000574639
-6.8873e-07
-0.000499137
-3.46096e-05
-0.000402001
-6.29871e-05
-8.13708e-05
-0.000300236
0.000352415
9.35864e-05
0.00079548
9.77221e-05
0.00080153
2.4491e-06
0.00061996
0.00020811
0.000604262
0.00011127
0.000541443
7.65907e-05
0.000494903
4.59027e-05
0.000449679
1.0663e-05
0.000409166
-2.24225e-05
-4.79485e-05
0.000375802
0.000249835
-1.30423e-05
0.000603103
-0.000255501
0.000758101
-0.000152623
0.000727367
0.00023888
0.000881846
-4.323e-05
0.000803105
0.000155333
0.000822991
2.6019e-05
0.000766671
6.6987e-05
0.000748952
-4.71382e-06
2.07546e-05
0.000680237
0.000123727
3.09276e-05
-0.00010353
-2.8245e-05
-2.89895e-05
-0.0002273
0.000466486
-0.000256662
0.000311332
0.000111825
0.000368244
9.83776e-05
0.000375354
1.88434e-05
0.000232328
0.000209946
0.000222071
5.45215e-06
9.30312e-05
0.000149716
0.000196221
0.000167995
-5.94114e-05
-0.000316132
-0.000204433
-0.000106132
-8.73621e-05
0.000122506
0.000127891
0.000220886
0.000329257
3.88372e-05
0.000283216
4.59479e-05
0.000265656
1.74894e-05
0.0002645
1.09148e-06
0.000263312
1.10938e-06
0.000267765
-4.56991e-06
0.000271988
-4.32564e-06
0.000271519
4.22968e-07
0.000264404
7.13822e-06
7.34156e-06
0.000110328
0.000219254
-6.25884e-06
0.000162394
-4.4373e-05
5.56375e-05
-2.74073e-05
-1.58914e-05
1.56147e-06
-2.79136e-05
3.59064e-05
-3.90242e-05
6.53198e-05
-3.38763e-05
8.69254e-05
-2.12843e-05
9.9361e-05
-5.32678e-06
2.33407e-06
-4.49353e-05
0.000318648
-6.54187e-05
0.000182717
-5.52111e-05
4.53244e-05
-3.59469e-05
-3.51816e-05
-1.4694e-05
-4.91849e-05
1.59917e-06
-5.53381e-05
1.91195e-05
-5.14446e-05
3.44629e-05
-3.67151e-05
4.66445e-05
-1.75638e-05
-4.90979e-06
-0.000275258
0.000223589
-0.000190428
9.78907e-05
-0.000115765
-2.94265e-05
-7.22047e-05
-7.88318e-05
-3.84165e-05
-8.30309e-05
-1.65807e-05
-7.71922e-05
-1.1705e-06
-6.6803e-05
1.15936e-05
-4.94643e-05
2.41097e-05
-3.01004e-05
-1.40839e-05
-0.000260324
5.85435e-05
-0.000108065
-5.44795e-05
-9.53903e-06
-0.000128079
3.50945e-05
-0.000123703
5.57172e-05
-0.000103953
6.08672e-05
-8.26845e-05
5.6895e-05
-6.29318e-05
5.34132e-05
-4.59059e-05
5.38181e-05
-3.03823e-05
-1.48417e-05
-5.54458e-05
-0.000186131
9.33151e-05
-0.000203154
0.000138135
-0.000172784
0.000156192
-0.00014164
0.000156536
-0.000104252
0.000142642
-6.89759e-05
0.000120597
-4.14474e-05
9.88099e-05
-2.43962e-05
8.31662e-05
-1.47494e-05
-6.9325e-06
0.000380572
-0.000190775
0.000347462
-0.00016999
0.00032493
-0.000150221
0.000295777
-0.000112421
0.00026816
-7.65014e-05
0.000240533
-4.10935e-05
0.000210809
-1.16412e-05
0.000179238
6.82128e-06
0.000152511
1.13649e-05
8.60988e-06
0.000608113
-0.000118745
0.000483256
-4.52467e-05
0.000418355
-8.53954e-05
0.000349508
-4.35369e-05
0.000310379
-3.75088e-05
0.000284443
-1.52977e-05
0.000261667
1.11009e-05
0.000240453
2.81347e-05
0.000222918
2.89514e-05
2.02391e-05
0.000118199
-8.74818e-05
3.19863e-05
4.08154e-05
-1.60956e-05
-3.72504e-05
-3.32158e-05
-2.62339e-05
-3.48987e-05
-3.56404e-05
-1.41117e-05
-3.59727e-05
1.07515e-05
-1.37224e-05
3.64253e-05
2.4855e-06
5.17226e-05
1.36567e-05
1.09758e-05
0.000133286
0.000173782
0.000136342
0.000110091
7.46507e-05
3.8949e-05
2.53157e-05
2.78318e-05
4.15081e-05
)
;

boundaryField
{
    inlet
    {
        type            calculated;
        value           nonuniform List<scalar> 10(-0.000150355 -0.000135144 -0.000127061 -0.000113094 0.000190735 -0.000111964 -0.000122682 -0.000143384 -0.000167911 -0.000165507);
    }
    sym
    {
        type            calculated;
        value           uniform 0;
    }
    wedge
    {
        type            calculated;
        value           nonuniform List<scalar> 10(1.19926e-20 1.19856e-20 0 0 -4.25134e-39 2.39506e-20 1.19707e-20 1.19684e-20 0 -1.19785e-20);
    }
    top
    {
        type            calculated;
        value           uniform 0;
    }
    back
    {
        type            empty;
    }
    front
    {
        type            empty;
    }
    outlet
    {
        type            calculated;
        value           nonuniform List<scalar> 10(0.000257222 0.000104398 5.38771e-05 3.32452e-05 5.45842e-05 7.53826e-05 0.000136861 0.000211164 6.09779e-05 5.24942e-05);
    }
}


// ************************************************************************* //
