/*--------------------------------*- C++ -*----------------------------------*\
| =========                 |                                                 |
| \\      /  F ield         | OpenFOAM: The Open Source CFD Toolbox           |
|  \\    /   O peration     | Version:  2412                                  |
|   \\  /    A nd           | Website:  www.openfoam.com                      |
|    \\/     M anipulation  |                                                 |
\*---------------------------------------------------------------------------*/
FoamFile
{
    version     2.0;
    format      ascii;
    arch        "LSB;label=32;scalar=64";
    class       volVectorField;
    location    "4";
    object      U;
}
// * * * * * * * * * * * * * * * * * * * * * * * * * * * * * * * * * * * * * //

dimensions      [0 1 -1 0 0 0 0];

internalField   nonuniform List<vector> 
200
(
(2.99999 6.12489e-07 0)
(2.99996 3.78091e-06 0)
(2.99989 1.25425e-05 0)
(2.99974 3.38054e-05 0)
(2.99941 8.32743e-05 0)
(2.99865 0.000196683 0)
(2.99693 0.000455624 0)
(2.99298 0.00104731 0)
(2.98379 0.00241128 0)
(2.96303 0.00560298 0)
(3 8.00659e-07 0)
(2.99999 4.94178e-06 0)
(2.99997 1.63884e-05 0)
(2.99992 4.41471e-05 0)
(2.99982 0.00010866 0)
(2.99959 0.000256362 0)
(2.99907 0.000592967 0)
(2.99791 0.00136048 0)
(2.99526 0.00311998 0)
(2.99099 0.00721316 0)
(3 2.49136e-07 0)
(3 1.53683e-06 0)
(2.99999 5.08955e-06 0)
(2.99997 1.36766e-05 0)
(2.99994 3.35368e-05 0)
(2.99987 7.87281e-05 0)
(2.99971 0.000180879 0)
(2.99935 0.000411735 0)
(2.99855 0.000930412 0)
(2.99722 0.00211328 0)
(3 7.96561e-08 0)
(3 4.91202e-07 0)
(3 1.62487e-06 0)
(2.99999 4.35665e-06 0)
(2.99998 1.06462e-05 0)
(2.99996 2.48706e-05 0)
(2.99991 5.67907e-05 0)
(2.9998 0.000128297 0)
(2.99955 0.000287271 0)
(2.99911 0.000644201 0)
(3 2.47297e-08 0)
(3 1.525e-07 0)
(3 5.04438e-07 0)
(3 1.35241e-06 0)
(2.99999 3.30463e-06 0)
(2.99999 7.71878e-06 0)
(2.99997 1.76242e-05 0)
(2.99993 3.97972e-05 0)
(2.99985 8.91504e-05 0)
(2.99971 0.00019977 0)
(3 8.00374e-09 0)
(3 4.9358e-08 0)
(3 1.63274e-07 0)
(3 4.3778e-07 0)
(3 1.06988e-06 0)
(3 2.49945e-06 0)
(2.99999 5.70826e-06 0)
(2.99998 1.28946e-05 0)
(2.99995 2.88832e-05 0)
(2.9999 6.46789e-05 0)
(3 2.59951e-09 0)
(3 1.60306e-08 0)
(3 5.30325e-08 0)
(3 1.42214e-07 0)
(3 3.47622e-07 0)
(3 8.12366e-07 0)
(3 1.85595e-06 0)
(2.99999 4.1941e-06 0)
(2.99998 9.39989e-06 0)
(2.99997 2.10507e-05 0)
(3 8.3205e-10 0)
(3 5.13067e-09 0)
(3 1.6973e-08 0)
(3 4.55138e-08 0)
(3 1.1124e-07 0)
(3 2.59944e-07 0)
(3 5.93776e-07 0)
(3 1.34173e-06 0)
(3 3.00619e-06 0)
(2.99999 6.72698e-06 0)
(3 2.47706e-10 0)
(3 1.52733e-09 0)
(3 5.05193e-09 0)
(3 1.35434e-08 0)
(3 3.30878e-08 0)
(3 7.72767e-08 0)
(3 1.76401e-07 0)
(3 3.98288e-07 0)
(3 8.9167e-07 0)
(3 1.99278e-06 0)
(3 5.15604e-11 0)
(3 3.17801e-10 0)
(3 1.05095e-09 0)
(3 2.81623e-09 0)
(3 6.8757e-09 0)
(3 1.6044e-08 0)
(3 3.6584e-08 0)
(3 8.24897e-08 0)
(3 1.8446e-07 0)
(3 4.11712e-07 0)
(2.88952 0.0262859 -1.12682e-21)
(2.81125 0.0750748 0)
(2.71874 0.140745 0)
(2.61541 0.238407 0)
(2.49191 0.352919 3.48545e-20)
(2.39007 0.499553 0)
(2.35596 0.614219 0)
(2.34933 0.683897 0)
(2.37161 0.700784 0)
(2.3887 0.699256 -2.45789e-20)
(2.97258 0.0269322 -1.32091e-20)
(2.94032 0.0811154 1.2382e-20)
(2.89158 0.160175 0)
(2.81931 0.292345 0)
(2.7203 0.456953 -1.30022e-20)
(2.57858 0.705097 0)
(2.40525 0.938662 0)
(2.2152 1.10064 0)
(2.14593 1.15518 0)
(2.17087 1.09292 0)
(2.99219 0.00617346 0)
(2.98377 0.0164474 -1.27904e-20)
(2.97041 0.0318977 0)
(2.95002 0.0607834 0)
(2.9233 0.100036 -3.0137e-20)
(2.8762 0.168322 1.42162e-20)
(2.7953 0.259179 0)
(2.64994 0.415459 1.64772e-20)
(2.41147 0.633745 0)
(2.27016 0.781141 2.07307e-20)
(2.99745 0.00194329 0)
(2.99459 0.00522421 0)
(2.9899 0.0108041 0)
(2.9825 0.0214502 0)
(2.97224 0.0373883 1.45468e-20)
(2.9561 0.0620382 -1.58025e-20)
(2.92538 0.104515 0)
(2.86057 0.185674 -3.70808e-20)
(2.72037 0.335408 0)
(2.5515 0.642668 -3.20313e-20)
(2.99914 0.00063609 5.83303e-21)
(2.99812 0.00175799 6.00898e-21)
(2.99638 0.00378748 0)
(2.99363 0.00757536 6.40181e-21)
(2.98966 0.0135833 6.62302e-21)
(2.98369 0.0228789 0)
(2.97325 0.0381163 0)
(2.95205 0.0670711 1.71049e-20)
(2.90682 0.127771 0)
(2.85948 0.264049 0)
(2.99971 0.000215614 -5.84583e-21)
(2.99934 0.000611765 -6.03005e-21)
(2.99869 0.00137644 0)
(2.99763 0.00282604 -6.45535e-21)
(2.99604 0.00521641 -6.70486e-21)
(2.99365 0.00900842 0)
(2.98979 0.0150138 0)
(2.98244 0.0256849 0)
(2.96719 0.0467338 0)
(2.95286 0.0909253 0)
(2.9999 7.3192e-05 5.84968e-21)
(2.99977 0.000212314 0)
(2.99953 0.000499638 0)
(2.99912 0.00106127 0)
(2.99849 0.0020236 6.62489e-21)
(2.99752 0.00358772 0)
(2.99596 0.00609379 0)
(2.99321 0.0102726 0)
(2.9877 0.018136 0)
(2.98288 0.034062 7.96191e-21)
(2.99997 2.425e-05 -2.93014e-21)
(2.99992 7.16699e-05 3.0177e-21)
(2.99984 0.000175622 0)
(2.99968 0.000388783 3.21103e-21)
(2.99943 0.000767179 -3.33033e-21)
(2.99903 0.0014017 3.43146e-21)
(2.99838 0.00243517 3.5541e-21)
(2.99727 0.00414241 0)
(2.99512 0.00720084 3.83164e-21)
(2.99336 0.0132046 -4.18559e-21)
(2.99999 7.42488e-06 -4.40166e-21)
(2.99997 2.23133e-05 -4.53443e-21)
(2.99994 5.65528e-05 0)
(2.99988 0.000130584 -4.82627e-21)
(2.99977 0.000265821 -1.66395e-21)
(2.9996 0.000501329 -5.16035e-21)
(2.9993 0.000891218 -3.56681e-21)
(2.99879 0.00154042 0)
(2.99783 0.00266959 -3.85522e-21)
(2.9971 0.0048451 -6.01984e-21)
(2.99999 1.58543e-06 1.46963e-21)
(2.99999 4.84544e-06 1.514e-21)
(2.99997 1.25644e-05 0)
(2.99994 2.9832e-05 1.61143e-21)
(2.99988 6.20306e-05 -1.66513e-21)
(2.99978 0.000120392 1.72268e-21)
(2.99959 0.000218321 0)
(2.99927 0.00038355 0)
(2.99868 0.000667053 0)
(2.99826 0.00120872 2.00438e-21)
)
;

boundaryField
{
    inlet
    {
        type            fixedValue;
        value           uniform (3 0 0);
    }
    sym
    {
        type            slip;
    }
    wedge
    {
        type            slip;
    }
    top
    {
        type            slip;
    }
    back
    {
        type            empty;
    }
    front
    {
        type            empty;
    }
    outlet
    {
        type            inletOutlet;
        inletValue      uniform (3 0 0);
        value           nonuniform List<vector> 10((2.3887 0.699256 -2.45789e-20) (2.17087 1.09292 0) (2.27016 0.781141 2.07307e-20) (2.5515 0.642668 -3.20313e-20) (2.85948 0.264049 0) (2.95286 0.0909253 0) (2.98288 0.034062 7.96191e-21) (2.99336 0.0132046 -4.18559e-21) (2.9971 0.0048451 -6.01984e-21) (2.99826 0.00120872 2.00438e-21));
    }
}


// ************************************************************************* //
