/*--------------------------------*- C++ -*----------------------------------*\
| =========                 |                                                 |
| \\      /  F ield         | OpenFOAM: The Open Source CFD Toolbox           |
|  \\    /   O peration     | Version:  2412                                  |
|   \\  /    A nd           | Website:  www.openfoam.com                      |
|    \\/     M anipulation  |                                                 |
\*---------------------------------------------------------------------------*/
FoamFile
{
    version     2.0;
    format      ascii;
    arch        "LSB;label=32;scalar=64";
    class       volVectorField;
    location    "4";
    object      U;
}
// * * * * * * * * * * * * * * * * * * * * * * * * * * * * * * * * * * * * * //

dimensions      [0 1 -1 0 0 0 0];

internalField   nonuniform List<vector> 
200
(
(-21.2641 0.507106 0)
(15.4664 2.28282 0)
(-11.3374 -0.614112 0)
(7.09272 -3.68606 0)
(-3.05291 -0.443466 0)
(2.98546 -1.23223 0)
(0.127411 -0.566629 0)
(1.17681 -0.420004 0)
(1.02272 -0.309368 0)
(0.875994 -0.208044 0)
(-15.2926 0.240943 0)
(10.2592 0.412729 0)
(-0.829322 0.660628 0)
(2.55235 -0.766381 0)
(1.50253 0.518442 0)
(1.5617 -0.0131438 0)
(1.45278 0.404132 0)
(1.25284 0.482055 0)
(1.00896 0.519794 0)
(0.781092 0.537128 0)
(-15.078 -1.13759 0)
(10.2295 -3.57395 0)
(-1.87082 -2.82911 0)
(2.52345 -1.27468 0)
(0.639544 -1.17931 0)
(0.865679 -0.286381 0)
(0.71031 0.3475 0)
(0.490569 0.840328 0)
(0.306063 1.05697 0)
(0.19818 1.05241 0)
(-16.1276 -2.03004 0)
(10.8728 -3.53496 0)
(-7.03765 2.28583 0)
(2.83446 0.805285 0)
(-3.43256 0.900958 0)
(-0.583549 0.805357 0)
(-1.72579 0.861499 0)
(-1.22484 0.943136 0)
(-1.11328 0.934309 0)
(-0.921342 0.828398 0)
(-11.7743 -0.216346 0)
(2.39831 -0.103071 0)
(-5.38474 -0.144651 0)
(-0.843781 0.101122 0)
(-2.43279 0.173897 0)
(-1.54639 0.334492 0)
(-1.62737 0.470537 0)
(-1.41713 0.567757 0)
(-1.25515 0.562467 0)
(-1.04395 0.48833 0)
(-16.9327 1.96574 0)
(11.328 3.49709 0)
(-7.46684 -2.26391 0)
(3.0741 -0.724204 0)
(-3.56438 -0.342883 0)
(-0.388784 -0.298784 0)
(-1.77634 -0.230703 0)
(-1.14709 -0.226316 0)
(-1.04432 -0.271164 0)
(-0.765316 -0.319645 0)
(-15.2291 0.942061 0)
(10.2315 3.05136 0)
(-1.11475 2.12085 0)
(2.40369 1.31775 0)
(1.31501 1.14298 0)
(1.28169 0.550431 0)
(1.21354 0.245353 0)
(1.09076 -0.0760521 0)
(0.981411 -0.352812 0)
(0.883537 -0.532656 0)
(-16.9931 -0.297104 0)
(11.5127 -1.4217 0)
(-2.83605 -1.83807 0)
(3.52411 1.17882 0)
(1.46122 0.0549002 0)
(1.81629 0.477904 0)
(1.90926 0.208508 0)
(1.85135 0.191013 0)
(1.7324 0.086582 0)
(1.64852 0.0239676 0)
(-21.1982 0.170169 0)
(15.985 -1.19382 0)
(-11.8336 -0.242989 0)
(8.0139 0.616218 0)
(-2.64652 -0.29126 0)
(2.65282 0.929872 0)
(0.0875739 0.148599 0)
(1.01114 0.635063 0)
(0.34937 -0.165428 0)
(0.504352 0.242795 0)
(-19.7386 0.0640266 0)
(14.4685 0.723249 0)
(-8.54874 -1.53058 0)
(5.38981 -2.66088 0)
(-5.0901 1.16779 0)
(3.12924 0.455971 0)
(-2.95162 0.105537 0)
(2.05493 1.52801 0)
(-1.01531 0.267594 0)
(1.22604 0.697678 0)
(0.759615 -0.0456207 -3.04719e-21)
(0.740406 0.0172787 0)
(0.677532 0.0822276 0)
(0.663428 0.16776 0)
(0.693763 0.220205 1.13259e-17)
(0.724551 0.245317 0)
(0.764547 0.258955 0)
(0.802676 0.275336 0)
(0.821784 0.288172 0)
(0.831421 0.29458 -6.77195e-18)
(0.402627 0.614667 -4.96957e-18)
(0.121588 0.505659 5.17221e-18)
(-0.154873 0.176333 0)
(-0.0827862 0.0246429 0)
(-0.0529815 -0.00719563 -2.54535e-22)
(0.0595195 -0.0204461 0)
(0.139124 0.00832819 0)
(0.226644 0.0631794 0)
(0.291356 0.114538 0)
(0.336841 0.131121 0)
(-0.0386568 0.849574 0)
(-0.164168 0.47899 -5.15855e-18)
(-0.166788 0.0812495 0)
(-0.117446 -0.157267 0)
(-0.0670222 -0.170691 -1.13855e-17)
(-0.0134084 -0.175355 5.89251e-18)
(0.0226369 -0.147527 0)
(0.0840936 -0.0894379 6.32862e-18)
(0.121324 -0.022646 0)
(0.173378 0.0317971 6.83374e-18)
(-0.770205 0.660764 0)
(-0.574887 0.332836 0)
(-0.384585 0.0165289 0)
(-0.217902 -0.15398 0)
(-0.146498 -0.189505 5.67728e-18)
(-0.0629044 -0.18082 -5.8818e-18)
(-0.0306844 -0.162296 0)
(0.0228883 -0.101101 -1.26497e-17)
(0.044227 -0.0391365 0)
(0.106884 0.0108795 -6.83524e-18)
(-0.831864 0.381254 2.46347e-18)
(-0.433323 0.0423961 2.56137e-18)
(-0.0996999 -0.292569 0)
(0.0554768 -0.314882 2.74187e-18)
(0.122726 -0.273307 2.83184e-18)
(0.16841 -0.224234 0)
(0.165004 -0.18117 0)
(0.159253 -0.136178 6.31496e-18)
(0.158113 -0.0862053 0)
(0.17541 -0.0309645 0)
(-0.484825 -0.340131 -2.48289e-18)
(0.187973 -0.434453 -2.56616e-18)
(0.281643 -0.404134 0)
(0.384082 -0.319488 -2.71702e-18)
(0.416173 -0.22383 -2.80849e-18)
(0.411452 -0.14121 0)
(0.373763 -0.0833245 0)
(0.318732 -0.0451281 0)
(0.270635 -0.014158 0)
(0.2426 0.0214264 0)
(0.86575 -0.622188 2.45663e-18)
(0.881495 -0.539568 0)
(0.825591 -0.445029 0)
(0.785089 -0.325357 0)
(0.736907 -0.20546 2.79597e-18)
(0.690572 -0.0885305 0)
(0.636841 -0.000122092 0)
(0.571772 0.0398462 0)
(0.501931 0.0420101 0)
(0.4414 0.0363614 3.40232e-18)
(1.40272 -0.15911 -1.20679e-18)
(1.33923 -0.156304 1.25281e-18)
(1.08077 -0.185786 0)
(0.974155 -0.127905 1.34829e-18)
(0.850317 -0.0782787 -1.39882e-18)
(0.80271 3.91623e-05 1.45149e-18)
(0.774096 0.0785921 1.50615e-18)
(0.733474 0.136774 0)
(0.69944 0.150182 1.62158e-18)
(0.679208 0.132726 -1.68852e-18)
(0.169673 -0.479419 -1.88277e-18)
(0.311789 -0.00575936 -1.95661e-18)
(-0.117716 -0.268618 0)
(0.0171927 -0.0738811 -2.08295e-18)
(-0.170221 -0.0866422 -7.14132e-19)
(-0.0308318 -0.0308399 -2.21288e-18)
(-0.0429817 0.0421744 -1.52716e-18)
(0.100354 0.0852458 0)
(0.125662 0.0845982 -1.63919e-18)
(0.195698 0.0555907 -2.55601e-18)
(-0.336368 0.0481504 6.27736e-19)
(0.763366 0.256387 6.50686e-19)
(0.243151 0.0810566 0)
(0.369407 -0.0470186 6.94394e-19)
(0.241142 -0.104902 -7.17682e-19)
(0.147789 -0.157335 7.40827e-19)
(0.0720576 -0.111872 0)
(0.0731564 -0.0613422 0)
(0.096018 -0.00100031 0)
(0.16841 0.0159437 8.52855e-19)
)
;

boundaryField
{
    inlet
    {
        type            fixedValue;
        value           uniform (3 0 0);
    }
    sym
    {
        type            slip;
    }
    wedge
    {
        type            slip;
    }
    top
    {
        type            slip;
    }
    back
    {
        type            empty;
    }
    front
    {
        type            empty;
    }
    outlet
    {
        type            inletOutlet;
        inletValue      uniform (3 0 0);
        value           nonuniform List<vector> 10((0.831421 0.29458 -6.77195e-18) (0.336841 0.131121 0) (0.173378 0.0317971 6.83374e-18) (0.106884 0.0108795 -6.83524e-18) (0.17541 -0.0309645 0) (0.2426 0.0214264 0) (0.4414 0.0363614 3.40232e-18) (0.679208 0.132726 -1.68852e-18) (0.195698 0.0555907 -2.55601e-18) (0.16841 0.0159437 8.52855e-19));
    }
}


// ************************************************************************* //
