/*--------------------------------*- C++ -*----------------------------------*\
| =========                 |                                                 |
| \\      /  F ield         | OpenFOAM: The Open Source CFD Toolbox           |
|  \\    /   O peration     | Version:  2412                                  |
|   \\  /    A nd           | Website:  www.openfoam.com                      |
|    \\/     M anipulation  |                                                 |
\*---------------------------------------------------------------------------*/
FoamFile
{
    version     2.0;
    format      ascii;
    arch        "LSB;label=32;scalar=64";
    class       volScalarField;
    location    "2";
    object      p;
}
// * * * * * * * * * * * * * * * * * * * * * * * * * * * * * * * * * * * * * //

dimensions      [1 -1 -2 0 0 0 0];

internalField   nonuniform List<scalar> 
200
(
1.16719
0.895271
1.07299
0.939403
1.0429
0.991431
1.01245
1.00605
1.00598
1.00601
1.16343
0.876091
1.06609
0.984626
1.01737
0.993557
1.00396
0.999291
1.0019
1.00241
1.16655
0.884224
1.07136
0.984269
1.02189
0.98963
1.00981
0.994976
1.00897
1.00044
1.16544
0.890917
1.06489
0.96019
1.01795
0.978897
1.01392
0.995435
1.00792
1.00255
1.16984
0.892765
1.06168
0.908903
1.03355
0.998331
1.00426
1.00332
1.0044
1.00461
1.16815
0.888993
1.08798
0.968812
1.03288
0.989308
1.01052
1.00224
1.00494
1.00468
1.16597
0.871672
1.06606
0.984552
1.01051
0.992133
1.00005
0.998792
1.00134
1.00247
1.17099
0.897068
1.08234
0.925669
1.04084
0.997905
1.00953
1.00793
1.00677
1.0062
1.1701
0.889724
1.06748
0.93092
1.03822
0.991573
1.01028
1.00622
1.00655
1.00565
1.16911
0.877118
1.07769
0.986351
1.01482
0.993361
1.00995
0.997595
1.00803
0.999844
1.00637
1.00513
1.00571
1.0057
1.00573
1.00579
1.00585
1.0059
1.00596
1.00603
1.00328
1.00412
1.00584
1.00532
1.00579
1.0058
1.00586
1.00593
1.00599
1.00606
1.00781
1.00423
1.00606
1.0055
1.00577
1.00583
1.00589
1.00595
1.00602
1.00608
1.00611
1.00389
1.00566
1.00517
1.0057
1.00579
1.00589
1.00597
1.00604
1.0061
1.00564
1.00459
1.00585
1.00546
1.00582
1.00591
1.00596
1.00602
1.00607
1.00613
1.00526
1.00475
1.00575
1.00554
1.00585
1.00594
1.006
1.00605
1.0061
1.00614
1.00296
1.00442
1.00609
1.00553
1.00602
1.006
1.00602
1.00607
1.00611
1.00616
1.00627
1.00554
1.00636
1.00605
1.00614
1.00614
1.00611
1.00612
1.00614
1.00617
1.00686
1.00353
1.00611
1.00524
1.00581
1.00594
1.006
1.00607
1.00612
1.00617
1.01001
1.00158
1.00823
1.00517
1.0063
1.00606
1.00606
1.0061
1.00614
1.00618
)
;

boundaryField
{
    inlet
    {
        type            fixedValue;
        value           uniform 1;
    }
    sym
    {
        type            slip;
    }
    wedge
    {
        type            slip;
    }
    top
    {
        type            slip;
    }
    back
    {
        type            empty;
    }
    front
    {
        type            empty;
    }
    outlet
    {
        type            zeroGradient;
    }
}


// ************************************************************************* //
