/*--------------------------------*- C++ -*----------------------------------*\
| =========                 |                                                 |
| \\      /  F ield         | OpenFOAM: The Open Source CFD Toolbox           |
|  \\    /   O peration     | Version:  2412                                  |
|   \\  /    A nd           | Website:  www.openfoam.com                      |
|    \\/     M anipulation  |                                                 |
\*---------------------------------------------------------------------------*/
FoamFile
{
    version     2.0;
    format      ascii;
    arch        "LSB;label=32;scalar=64";
    class       surfaceScalarField;
    location    "2";
    object      phi;
}
// * * * * * * * * * * * * * * * * * * * * * * * * * * * * * * * * * * * * * //

dimensions      [1 0 -1 0 0 0 0];

oriented        oriented;

internalField   nonuniform List<scalar> 
370
(
4.38661e-05
0.000124858
-0.000181177
0.000224928
-0.000142348
-3.97377e-05
0.000356399
-0.000499086
0.00031494
4.06241e-05
0.000428299
-0.000113166
0.000475775
-4.73739e-05
0.000455324
2.06358e-05
0.00048042
-2.49286e-05
4.82882e-05
0.000432536
0.00027591
3.60845e-06
0.000543108
-4.15215e-05
0.000561239
-5.86008e-05
4.55151e-05
1.70433e-05
-0.00015447
0.00024217
-0.000439841
0.000171085
-0.000349153
-0.000138071
-0.000357554
2.91021e-05
-0.000266537
-0.00011564
-1.34199e-05
-0.000204876
0.000227941
-6.04328e-05
0.000393358
-0.00020638
0.000210356
0.000123619
-0.000201842
0.000429224
4.26307e-05
-2.1643e-06
-1.77925e-05
0.000231875
-6.80146e-05
-8.71274e-05
8.61637e-05
-0.000124386
7.94356e-05
-0.000108332
-0.00011856
0.000185219
0.000186089
-8.18174e-05
-2.22533e-05
1.88086e-06
-0.000273165
0.000372994
-0.000228281
0.000383941
-7.13758e-05
-0.000160621
0.000198843
-3.93174e-05
8.65744e-05
2.45494e-05
0.000162977
-0.000200319
0.000144051
-8.86315e-05
-0.000120595
0.000147091
3.74457e-05
4.03918e-05
-0.000213998
0.000254097
-6.59727e-06
0.000165089
0.000653067
-0.000276488
0.000562063
-7.12588e-05
0.000566292
-4.50031e-05
0.000606872
-1.66782e-05
0.000396728
9.65559e-06
0.00028504
2.3465e-05
1.67763e-05
0.000148652
0.000181559
1.46651e-05
0.000303605
0.000128766
0.000288827
0.000175269
0.000154777
-0.000144097
0.000247811
-0.000167251
0.000280458
-7.61581e-05
0.000256995
6.08261e-06
0.000197076
6.91083e-05
0.000112502
0.000107768
7.78725e-05
5.15564e-05
0.000289799
-0.000128904
0.000627031
-0.000206902
0.000715363
8.54791e-05
3.3476e-06
0.000566758
-0.000179355
1.5753e-05
-0.00033247
7.80481e-05
-0.000363733
3.72841e-05
-0.000314026
1.93015e-05
-0.000230343
2.44356e-05
2.75902e-06
-0.000155415
5.44051e-05
-1.64891e-05
-0.00013801
-1.67486e-05
-5.17269e-05
-8.30943e-06
0.000517688
-1.58419e-05
0.000491905
5.77827e-05
0.000495345
7.94132e-05
0.000541524
-8.24098e-06
0.000549373
1.12949e-05
0.000580436
-6.83527e-06
2.22504e-05
0.000560801
5.94695e-05
7.95426e-05
-0.000177638
0.000220221
-0.000122918
-6.54246e-05
0.000413136
-0.000553115
0.00034881
0.00012124
0.00044105
-1.207e-05
0.000430651
2.07316e-06
0.000343288
9.84909e-05
0.000381041
-4.46452e-05
0.000121106
0.000282175
0.000227148
0.000448365
0.000382072
-0.000170635
-4.97342e-05
-6.17259e-05
-5.94838e-05
3.91838e-05
-5.37916e-06
0.000115941
0.000414181
1.98618e-05
0.000287434
0.000127596
0.00023233
5.54305e-05
0.000186461
4.59993e-05
0.000164715
2.17241e-05
0.000154402
1.02857e-05
0.000149102
5.34755e-06
0.000146581
2.63243e-06
0.000145288
1.54485e-06
-4.18689e-07
-7.47226e-05
-0.000109861
4.56684e-05
7.47042e-06
7.83484e-05
2.30306e-05
0.000118372
6.03151e-06
0.000129192
1.09116e-05
0.000136152
3.2889e-06
0.000140782
7.48709e-07
0.000143661
-1.70345e-07
0.000145804
-4.31248e-07
-1.92231e-06
9.47313e-05
-1.95589e-05
0.000152922
-5.0419e-05
0.000148391
2.76953e-05
0.000151133
3.4115e-06
0.000153037
9.06859e-06
0.00015241
3.84452e-06
0.000152327
8.29518e-07
0.00015253
-3.08755e-07
0.000152838
-6.28722e-07
-2.33726e-06
9.57312e-05
3.19164e-05
7.8231e-05
-3.26513e-05
9.24153e-05
1.36012e-05
0.000109707
-1.37205e-05
0.000125462
-6.61161e-06
0.000136645
-7.38112e-06
0.000143699
-6.2387e-06
0.000148152
-4.71626e-06
0.000151073
-3.46176e-06
-3.84866e-06
0.000154878
2.61635e-05
0.000103425
1.9042e-05
0.000130814
-1.35989e-05
0.000138424
-2.11302e-05
0.000147876
-1.5945e-05
0.000152913
-1.24122e-05
0.000155387
-8.78438e-06
0.000156727
-6.04573e-06
0.000157543
-4.2106e-06
-4.09517e-06
6.43969e-05
1.3631e-05
8.61485e-05
-2.45168e-06
0.000122217
-4.94234e-05
0.00013672
-3.53997e-05
0.000149924
-2.90291e-05
0.000155879
-1.83361e-05
0.000158283
-1.12937e-05
0.000159274
-7.06757e-06
0.000159765
-4.65831e-06
-4.08722e-06
-2.54215e-05
-0.000115615
9.13767e-05
-0.000119179
0.000118887
-7.65193e-05
0.000149692
-6.60789e-05
0.00015551
-3.47241e-05
0.000159011
-2.18088e-05
0.000160988
-1.3404e-05
0.000161926
-8.07326e-06
0.000162354
-5.06227e-06
-3.86784e-06
0.000539125
-9.23771e-05
0.000398497
2.29581e-05
0.000347567
-2.50731e-05
0.000269328
1.24355e-05
0.000227941
6.84239e-06
0.000200808
5.38368e-06
0.000184209
3.09961e-06
0.000174912
1.07728e-06
0.000170065
-2.21979e-07
-1.33857e-06
0.000305838
-0.00011567
0.000162894
0.000166476
0.000159171
-2.1227e-05
0.000147006
2.4803e-05
0.0001525
1.42977e-06
0.000158332
-3.96219e-07
0.00016196
-6.07782e-07
0.000163913
-9.93253e-07
0.000164844
-1.15375e-06
-1.25937e-06
3.24193e-07
0.000166888
0.000145614
0.000170566
0.000172056
0.000171707
0.000171028
0.000169893
0.000168728
)
;

boundaryField
{
    inlet
    {
        type            calculated;
        value           nonuniform List<scalar> 10(-0.000171076 -0.000158292 -0.000166789 -0.000169425 -0.000164423 -0.000163847 -0.000152397 -0.000173998 -0.000159408 -0.000152572);
    }
    sym
    {
        type            calculated;
        value           uniform 0;
    }
    wedge
    {
        type            calculated;
        value           nonuniform List<scalar> 10(2.40923e-20 0 -1.20732e-20 1.20752e-20 1.20716e-20 0 0 0 1.20713e-20 1.20923e-20);
    }
    top
    {
        type            calculated;
        value           uniform 0;
    }
    back
    {
        type            empty;
    }
    front
    {
        type            empty;
    }
    outlet
    {
        type            calculated;
        value           nonuniform List<scalar> 10(0.000145921 0.000147553 0.000153484 0.000152772 0.000157945 0.000159884 0.000162241 0.000167621 0.000164845 0.000167543);
    }
}


// ************************************************************************* //
