/*--------------------------------*- C++ -*----------------------------------*\
| =========                 |                                                 |
| \\      /  F ield         | OpenFOAM: The Open Source CFD Toolbox           |
|  \\    /   O peration     | Version:  2412                                  |
|   \\  /    A nd           | Website:  www.openfoam.com                      |
|    \\/     M anipulation  |                                                 |
\*---------------------------------------------------------------------------*/
FoamFile
{
    version     2.0;
    format      ascii;
    arch        "LSB;label=32;scalar=64";
    class       surfaceScalarField;
    location    "2";
    object      phi;
}
// * * * * * * * * * * * * * * * * * * * * * * * * * * * * * * * * * * * * * //

dimensions      [1 0 -1 0 0 0 0];

oriented        oriented;

internalField   nonuniform List<scalar> 
370
(
0.529202
6.26466e-08
0.529201
3.77685e-07
0.5292
1.22544e-06
0.529197
3.26454e-06
0.529189
7.99725e-06
0.52917
1.8864e-05
0.529126
4.38362e-05
0.529024
0.000101828
0.528783
0.000240196
0.000590595
0.528194
0.529202
3.20549e-08
0.529202
2.00824e-07
0.529203
6.75128e-07
0.529204
1.83084e-06
0.529207
4.51847e-06
0.529216
1.06649e-05
0.529235
2.46412e-05
0.52928
5.64366e-05
0.529394
0.000128821
0.000296773
0.529685
0.529202
1.01205e-08
0.529202
6.33226e-08
0.529203
2.1243e-07
0.529204
5.74389e-07
0.529207
1.41176e-06
0.529214
3.31411e-06
0.529231
7.6037e-06
0.529271
1.72679e-05
0.529361
3.89045e-05
8.79848e-05
0.529571
0.529202
3.18767e-09
0.529202
1.99552e-08
0.529202
6.695e-08
0.529202
1.80868e-07
0.529203
4.43726e-07
0.529206
1.03871e-06
0.529211
2.37423e-06
0.529223
5.3652e-06
0.52925
1.20214e-05
2.69497e-05
0.529312
0.529202
1.00633e-09
0.529202
6.29567e-09
0.529202
2.11092e-08
0.529202
5.70097e-08
0.529202
1.39845e-07
0.529203
3.27348e-07
0.529205
7.48257e-07
0.529208
1.69081e-06
0.529217
3.78868e-06
8.487e-06
0.529235
0.529202
3.25872e-10
0.529202
2.03861e-09
0.529202
6.83555e-09
0.529202
1.84631e-08
0.529202
4.52998e-08
0.529202
1.0607e-07
0.529203
2.42549e-07
0.529204
5.48314e-07
0.529206
1.22917e-06
2.75285e-06
0.529212
0.529202
1.05394e-10
0.529202
6.59314e-10
0.529202
2.21069e-09
0.529202
5.97135e-09
0.529202
1.4652e-08
0.529202
3.43121e-08
0.529202
7.84739e-08
0.529203
1.77441e-07
0.529203
3.97843e-07
8.90846e-07
0.529205
0.529202
3.29837e-11
0.529202
2.06428e-10
0.529202
6.92413e-10
0.529202
1.87044e-09
0.529202
4.58896e-09
0.529202
1.07436e-08
0.529202
2.45624e-08
0.529202
5.5517e-08
0.529202
1.24407e-07
2.78282e-07
0.529203
0.529202
9.03503e-12
0.529202
5.65998e-11
0.529202
1.90008e-10
0.529202
5.13392e-10
0.529202
1.25932e-09
0.529202
2.94683e-09
0.529202
6.73229e-09
0.529202
1.52023e-08
0.529202
3.40376e-08
7.60453e-08
0.529202
0.529202
0.529202
0.529202
0.529202
0.529202
0.529202
0.529202
0.529202
0.529202
0.529202
0.643402
-0.115342
0.753864
-0.110272
0.855925
-0.101846
0.949966
-0.0943973
1.02324
-0.0732674
1.06704
-0.0436191
1.06617
0.000787501
0.982821
0.083138
0.888857
0.0939211
0.0654364
0.529436
-0.114971
0.527975
-0.108734
0.529053
-0.103586
0.530904
-0.0957747
0.548946
-0.0910645
0.576143
-0.0714262
0.619886
-0.042666
0.690896
0.0124873
0.722132
0.0625739
0.0936228
0.519039
-0.104446
0.512762
-0.102442
0.509661
-0.100441
0.510988
-0.0972843
0.51427
-0.0943937
0.531975
-0.0889573
0.568917
-0.0795581
0.649796
-0.0684988
0.757804
-0.0455293
0.0567658
0.515782
-0.0909178
0.503401
-0.0900431
0.492187
-0.0892293
0.482688
-0.0878168
0.474674
-0.0863821
0.470037
-0.0843088
0.470282
-0.0797985
0.473718
-0.0719374
0.485886
-0.0577175
-0.0338801
0.514498
-0.0761814
0.50031
-0.0758504
0.486582
-0.0754955
0.473655
-0.0749046
0.461501
-0.0742289
0.45047
-0.0732695
0.442433
-0.0717591
0.438655
-0.0681633
0.44317
-0.0622481
-0.0541143
0.514103
-0.0610723
0.499209
-0.0609556
0.484519
-0.0608022
0.470172
-0.0605632
0.456187
-0.0602433
0.442726
-0.0598062
0.430104
-0.0591348
0.419833
-0.0578965
0.412957
-0.0553759
-0.051961
0.513973
-0.0458401
0.498819
-0.0458021
0.483758
-0.0457399
0.468836
-0.0456431
0.454086
-0.0454932
0.439573
-0.0452914
0.425411
-0.0449719
0.411978
-0.0444657
0.400049
-0.0434484
-0.0419485
0.513932
-0.0305692
0.498688
-0.0305577
0.483483
-0.0305344
0.468331
-0.0304923
0.453263
-0.030425
0.438303
-0.0303306
0.423509
-0.0301776
0.408989
-0.0299467
0.395066
-0.029526
-0.0288596
0.513919
-0.015286
0.498644
-0.0152825
0.483384
-0.0152748
0.468151
-0.0152588
0.452959
-0.0152334
0.43782
-0.0151918
0.422772
-0.015129
0.407857
-0.0150325
0.393205
-0.0148738
-0.0146067
0.513916
0.498634
0.483359
0.4681
0.452866
0.437675
0.422546
0.407513
0.392639
)
;

boundaryField
{
    inlet
    {
        type            calculated;
        value           nonuniform List<scalar> 10(-0.529202 -0.529202 -0.529202 -0.529202 -0.529202 -0.529202 -0.529202 -0.529202 -0.529202 -0.529202);
    }
    sym
    {
        type            calculated;
        value           uniform 0;
    }
    wedge
    {
        type            calculated;
        value           nonuniform List<scalar> 10(-1.68045e-37 2.81889e-17 0 0 4.65105e-17 5.93824e-17 5.93885e-17 0 5.67804e-17 -7.82923e-38);
    }
    top
    {
        type            calculated;
        value           uniform 0;
    }
    back
    {
        type            empty;
    }
    front
    {
        type            empty;
    }
    outlet
    {
        type            calculated;
        value           nonuniform List<scalar> 10(0.823386 0.693741 0.79471 0.576478 0.463378 0.410796 0.390035 0.381976 0.378952 0.378032);
    }
}


// ************************************************************************* //
