/*--------------------------------*- C++ -*----------------------------------*\
| =========                 |                                                 |
| \\      /  F ield         | OpenFOAM: The Open Source CFD Toolbox           |
|  \\    /   O peration     | Version:  2412                                  |
|   \\  /    A nd           | Website:  www.openfoam.com                      |
|    \\/     M anipulation  |                                                 |
\*---------------------------------------------------------------------------*/
FoamFile
{
    version     2.0;
    format      ascii;
    arch        "LSB;label=32;scalar=64";
    class       volVectorField;
    location    "2";
    object      U;
}
// * * * * * * * * * * * * * * * * * * * * * * * * * * * * * * * * * * * * * //

dimensions      [0 1 -1 0 0 0 0];

internalField   nonuniform List<vector> 
200
(
(2.99999 6.12581e-07 0)
(2.99996 3.78144e-06 0)
(2.99989 1.2544e-05 0)
(2.99974 3.38081e-05 0)
(2.99941 8.3276e-05 0)
(2.99865 0.000196673 0)
(2.99693 0.000455564 0)
(2.99299 0.00104709 0)
(2.9838 0.00241059 0)
(2.96305 0.00560123 0)
(3 8.00701e-07 0)
(2.99999 4.94207e-06 0)
(2.99997 1.63891e-05 0)
(2.99992 4.41479e-05 0)
(2.99982 0.000108658 0)
(2.99959 0.000256344 0)
(2.99907 0.000592897 0)
(2.99791 0.00136025 0)
(2.99526 0.00311927 0)
(2.991 0.00721136 0)
(3 2.49103e-07 0)
(3 1.53666e-06 0)
(2.99999 5.08898e-06 0)
(2.99997 1.36748e-05 0)
(2.99994 3.35327e-05 0)
(2.99987 7.8717e-05 0)
(2.99971 0.000180854 0)
(2.99935 0.000411684 0)
(2.99856 0.000930244 0)
(2.99723 0.00211285 0)
(3 7.96793e-08 0)
(3 4.91304e-07 0)
(3 1.62514e-06 0)
(2.99999 4.35707e-06 0)
(2.99998 1.06461e-05 0)
(2.99996 2.48681e-05 0)
(2.99991 5.67771e-05 0)
(2.9998 0.000128249 0)
(2.99955 0.000287117 0)
(2.99911 0.000643735 0)
(3 2.47356e-08 0)
(3 1.52518e-07 0)
(3 5.04489e-07 0)
(3 1.35253e-06 0)
(2.99999 3.30472e-06 0)
(2.99999 7.71911e-06 0)
(2.99997 1.76236e-05 0)
(2.99993 3.9795e-05 0)
(2.99985 8.91384e-05 0)
(2.99971 0.000199715 0)
(3 7.99859e-09 0)
(3 4.93201e-08 0)
(3 1.63148e-07 0)
(3 4.37456e-07 0)
(3 1.06907e-06 0)
(3 2.4978e-06 0)
(2.99999 5.7045e-06 0)
(2.99998 1.28868e-05 0)
(2.99995 2.88677e-05 0)
(2.9999 6.46447e-05 0)
(3 2.59441e-09 0)
(3 1.5998e-08 0)
(3 5.29251e-08 0)
(3 1.41933e-07 0)
(3 3.46944e-07 0)
(3 8.10868e-07 0)
(3 1.85263e-06 0)
(2.99999 4.18697e-06 0)
(2.99998 9.38544e-06 0)
(2.99997 2.10209e-05 0)
(3 8.3023e-10 0)
(3 5.11942e-09 0)
(3 1.69356e-08 0)
(3 4.54128e-08 0)
(3 1.10991e-07 0)
(3 2.59354e-07 0)
(3 5.92415e-07 0)
(3 1.33862e-06 0)
(3 2.99917e-06 0)
(2.99999 6.71131e-06 0)
(3 2.46925e-10 0)
(3 1.52249e-09 0)
(3 5.03576e-09 0)
(3 1.34994e-08 0)
(3 3.29783e-08 0)
(3 7.70149e-08 0)
(3 1.7579e-07 0)
(3 3.96877e-07 0)
(3 8.88453e-07 0)
(3 1.98553e-06 0)
(3 5.14559e-11 0)
(3 3.17239e-10 0)
(3 1.0491e-09 0)
(3 2.81129e-09 0)
(3 6.86386e-09 0)
(3 1.60165e-08 0)
(3 3.65225e-08 0)
(3 8.2354e-08 0)
(3 1.84164e-07 0)
(3 4.11069e-07 0)
(2.8896 0.0262752 -1.12705e-21)
(2.81136 0.0750275 0)
(2.71875 0.140656 0)
(2.61536 0.238374 0)
(2.49201 0.352955 3.48716e-20)
(2.39041 0.499409 0)
(2.35633 0.61397 0)
(2.34952 0.683963 0)
(2.37174 0.70076 0)
(2.38879 0.69919 -2.45815e-20)
(2.97262 0.0269201 -1.32149e-20)
(2.94037 0.0810302 1.2367e-20)
(2.89159 0.160079 0)
(2.81927 0.292408 0)
(2.72023 0.456991 -1.29773e-20)
(2.57876 0.704905 0)
(2.40617 0.938586 0)
(2.21579 1.10067 0)
(2.14589 1.15523 0)
(2.17089 1.09296 0)
(2.9922 0.00616833 0)
(2.98378 0.0164223 -1.27895e-20)
(2.9704 0.0318794 0)
(2.95006 0.0607826 0)
(2.92329 0.100045 -3.01528e-20)
(2.87617 0.168394 1.42154e-20)
(2.79567 0.25906 0)
(2.65082 0.414389 1.64755e-20)
(2.41196 0.632975 0)
(2.27031 0.78089 2.07216e-20)
(2.99745 0.00194131 0)
(2.99459 0.00521655 0)
(2.9899 0.0107997 0)
(2.98251 0.0214588 0)
(2.97226 0.0373516 1.45449e-20)
(2.95609 0.0620575 -1.58047e-20)
(2.92545 0.104478 0)
(2.86087 0.185346 -3.70591e-20)
(2.721 0.334938 0)
(2.55243 0.642307 -3.20487e-20)
(2.99914 0.000635803 5.83297e-21)
(2.99812 0.00175714 6.00907e-21)
(2.99638 0.00378434 0)
(2.99364 0.0075756 6.40181e-21)
(2.98966 0.0135723 6.62313e-21)
(2.9837 0.0228787 0)
(2.97327 0.0381059 0)
(2.95213 0.0670054 1.71009e-20)
(2.90703 0.12755 0)
(2.85983 0.263448 0)
(2.99971 0.00021554 -5.8458e-21)
(2.99934 0.000611692 -6.03009e-21)
(2.99869 0.00137528 0)
(2.99763 0.00282561 -6.45542e-21)
(2.99605 0.00521266 -6.70477e-21)
(2.99366 0.00900656 0)
(2.9898 0.0150104 0)
(2.98246 0.0256651 0)
(2.96726 0.0466681 0)
(2.95296 0.0907469 0)
(2.9999 7.3119e-05 5.84968e-21)
(2.99977 0.000212173 0)
(2.99953 0.000499254 0)
(2.99912 0.00106096 0)
(2.99849 0.00202228 6.6249e-21)
(2.99752 0.00358669 0)
(2.99597 0.00609186 0)
(2.99322 0.0102663 0)
(2.98773 0.0181153 0)
(2.98292 0.0340055 7.96186e-21)
(2.99997 2.41915e-05 -2.93014e-21)
(2.99992 7.14903e-05 3.0177e-21)
(2.99984 0.000175513 0)
(2.99968 0.000388662 3.21103e-21)
(2.99943 0.000766712 -3.33032e-21)
(2.99903 0.00140124 3.43146e-21)
(2.99838 0.00243421 3.55409e-21)
(2.99727 0.00413993 0)
(2.99513 0.00719347 3.83163e-21)
(2.99337 0.0131851 -4.18523e-21)
(2.99999 7.39826e-06 -4.40166e-21)
(2.99997 2.22303e-05 -4.53443e-21)
(2.99994 5.65154e-05 0)
(2.99988 0.000130531 -4.82627e-21)
(2.99977 0.000265646 -1.66395e-21)
(2.9996 0.00050114 -5.16035e-21)
(2.9993 0.000890806 -3.5668e-21)
(2.99879 0.00153946 0)
(2.99783 0.00266697 -3.85519e-21)
(2.99711 0.00483842 -6.01977e-21)
(2.99999 1.58319e-06 1.46963e-21)
(2.99999 4.83957e-06 1.514e-21)
(2.99997 1.25528e-05 0)
(2.99994 2.98125e-05 1.61143e-21)
(2.99988 6.19827e-05 -1.66513e-21)
(2.99978 0.000120346 1.72268e-21)
(2.99959 0.000218215 0)
(2.99927 0.000383305 0)
(2.99868 0.000666409 0)
(2.99827 0.00120711 2.00436e-21)
)
;

boundaryField
{
    inlet
    {
        type            fixedValue;
        value           uniform (3 0 0);
    }
    sym
    {
        type            slip;
    }
    wedge
    {
        type            slip;
    }
    top
    {
        type            slip;
    }
    back
    {
        type            empty;
    }
    front
    {
        type            empty;
    }
    outlet
    {
        type            inletOutlet;
        inletValue      uniform (3 0 0);
        value           nonuniform List<vector> 10((2.38879 0.69919 -2.45815e-20) (2.17089 1.09296 0) (2.27031 0.78089 2.07216e-20) (2.55243 0.642307 -3.20487e-20) (2.85983 0.263448 0) (2.95296 0.0907469 0) (2.98292 0.0340055 7.96186e-21) (2.99337 0.0131851 -4.18523e-21) (2.99711 0.00483842 -6.01977e-21) (2.99827 0.00120711 2.00436e-21));
    }
}


// ************************************************************************* //
