/*--------------------------------*- C++ -*----------------------------------*\
| =========                 |                                                 |
| \\      /  F ield         | OpenFOAM: The Open Source CFD Toolbox           |
|  \\    /   O peration     | Version:  2412                                  |
|   \\  /    A nd           | Website:  www.openfoam.com                      |
|    \\/     M anipulation  |                                                 |
\*---------------------------------------------------------------------------*/
FoamFile
{
    version     2.0;
    format      ascii;
    arch        "LSB;label=32;scalar=64";
    class       volVectorField;
    location    "2";
    object      U;
}
// * * * * * * * * * * * * * * * * * * * * * * * * * * * * * * * * * * * * * //

dimensions      [0 1 -1 0 0 0 0];

internalField   nonuniform List<vector> 
200
(
(-19.3389 0.582188 0)
(13.9816 1.19585 0)
(-10.397 -1.38247 0)
(6.61398 -3.44812 0)
(-2.51776 -1.76176 0)
(2.68668 -1.38141 0)
(0.34637 -0.812186 0)
(1.212 -0.473837 0)
(1.10958 -0.240519 0)
(1.07309 -0.0220639 0)
(-15.072 0.309311 0)
(10.1927 1.0316 0)
(-2.52862 0.833114 0)
(2.86456 -1.17087 0)
(-1.69434 1.98763 0)
(0.383283 0.207674 0)
(-1.67806 0.106222 0)
(-0.354518 0.643767 0)
(-1.01539 -0.143121 0)
(-0.313662 0.502536 0)
(-16.3157 -0.25526 0)
(11.3976 -1.41578 0)
(-4.69383 -1.3089 0)
(3.4801 1.27488 0)
(-3.31174 1.19192 0)
(2.81723 1.86581 0)
(-2.40073 -1.47971 0)
(1.72094 -0.329519 0)
(-0.970518 -0.954612 0)
(1.06443 -0.683723 0)
(-17.889 -0.311284 0)
(13.0735 -0.884447 0)
(-8.83542 2.47924 0)
(5.13824 3.29361 0)
(-4.73683 -1.27701 0)
(3.42854 0.423916 0)
(-1.63702 0.644024 0)
(1.5571 -1.17234 0)
(-0.344938 -0.412432 0)
(0.697964 -0.592471 0)
(-19.779 -0.226461 0)
(14.4055 0.907751 0)
(-11.0357 0.80487 0)
(7.54676 0.430113 0)
(-1.18275 -0.14788 0)
(2.09619 -0.637366 0)
(1.30783 -0.491115 0)
(1.17421 -0.871014 0)
(0.788722 -0.726043 0)
(0.435493 -0.738781 0)
(-17.434 0.483399 0)
(12.3388 1.91013 0)
(-5.99941 1.35131 0)
(4.6087 -2.80791 0)
(-2.27171 -0.581454 0)
(2.4222 -0.0969715 0)
(-0.313938 0.41389 0)
(0.968041 0.957844 0)
(0.188245 1.07068 0)
(0.226706 0.958791 0)
(-15.2466 -0.3792 0)
(10.3132 -0.600176 0)
(-2.074 -0.0371798 0)
(2.79339 1.42739 0)
(-1.93548 -1.84232 0)
(0.546803 -0.67359 0)
(-1.5373 -0.425309 0)
(-0.458459 -0.307882 0)
(-0.799494 -0.0097095 0)
(-0.301651 -0.182371 0)
(-20.1492 -0.505571 0)
(14.8561 -1.31291 0)
(-10.9043 1.27188 0)
(7.12566 3.64747 0)
(-1.63505 2.21291 0)
(2.28391 1.7468 0)
(0.899975 1.01562 0)
(1.18825 0.636514 0)
(1.3077 0.384331 0)
(1.35403 0.24113 0)
(-19.5758 0.340405 0)
(14.1463 1.01778 0)
(-10.4723 -1.46356 0)
(6.72692 -3.85611 0)
(-2.31349 -1.71018 0)
(2.57944 -0.996443 0)
(0.454425 -1.1509 0)
(0.991103 -0.536738 0)
(0.780634 -0.497468 0)
(0.816146 0.0306061 0)
(-16.4927 0.261332 0)
(11.292 1.35183 0)
(-3.91738 0.83651 0)
(3.43559 -1.14821 0)
(-3.26998 2.67868 0)
(2.542 0.914596 0)
(-2.43936 1.17551 0)
(1.86918 1.47211 0)
(-1.45031 0.0483883 0)
(1.23289 1.18259 0)
(0.959404 0.344209 -7.61214e-21)
(0.86246 0.507724 0)
(0.61832 0.349619 0)
(0.504153 0.320122 0)
(0.45732 0.22225 1.1325e-17)
(0.42997 0.180625 0)
(0.424122 0.164269 0)
(0.429828 0.15852 0)
(0.438697 0.158586 0)
(0.467098 0.162733 -6.78425e-18)
(-0.700587 -0.201627 -5.0013e-18)
(0.306927 0.546274 5.17106e-18)
(-0.0396943 0.168821 0)
(0.367609 0.203905 0)
(0.294235 0.155205 1.08902e-22)
(0.363208 0.136736 0)
(0.392829 0.133347 0)
(0.415773 0.134714 0)
(0.436427 0.138113 0)
(0.472711 0.143349 0)
(-0.36457 -0.595074 0)
(0.648427 -0.21286 -5.16254e-18)
(0.221391 0.031331 0)
(0.438278 0.0752596 0)
(0.386855 0.106434 -1.13325e-17)
(0.410117 0.10947 5.86505e-18)
(0.429209 0.111116 0)
(0.444975 0.115083 6.30228e-18)
(0.460291 0.120222 0)
(0.492018 0.125661 6.78992e-18)
(-0.065138 0.329283 0)
(0.393171 0.154958 0)
(0.0694422 0.179691 0)
(0.325001 0.131349 0)
(0.288289 0.111946 5.6757e-18)
(0.354143 0.103819 -5.86924e-18)
(0.395033 0.102497 0)
(0.426178 0.104717 -1.26076e-17)
(0.451505 0.10826 0)
(0.489929 0.111785 -6.79276e-18)
(0.24464 -0.083598 2.50307e-18)
(0.384995 -0.14731 2.58151e-18)
(0.192078 -0.0312252 0)
(0.393828 -0.0403105 2.74363e-18)
(0.364628 -0.0018719 2.83322e-18)
(0.404027 0.0241974 0)
(0.43319 0.0455882 0)
(0.455243 0.0624044 6.2981e-18)
(0.474212 0.0749241 0)
(0.506667 0.0840394 0)
(-0.0357169 0.298075 -2.51366e-18)
(0.286634 0.386877 -2.58916e-18)
(0.188594 0.0103939 0)
(0.367308 0.0592004 -2.74243e-18)
(0.373585 0.0371908 -2.83109e-18)
(0.412862 0.0492241 0)
(0.441153 0.0614047 0)
(0.462888 0.0691102 0)
(0.48139 0.0743033 0)
(0.512981 0.0780094 0)
(-0.569618 -0.343086 2.50779e-18)
(0.448467 -0.302114 0)
(0.0508864 -0.241376 0)
(0.465215 -0.159713 0)
(0.365718 -0.0875972 2.82832e-18)
(0.426626 -0.035926 0)
(0.452422 0.000366137 0)
(0.470869 0.0243277 0)
(0.489231 0.0393517 0)
(0.520595 0.0490343 3.39599e-18)
(1.27158 -0.135491 -1.22684e-18)
(1.15976 -0.122713 1.2688e-18)
(0.880252 -0.0831289 0)
(0.781004 -0.0426569 1.3588e-18)
(0.643376 0.0110684 -1.40835e-18)
(0.569791 0.0305083 1.45872e-18)
(0.534739 0.037538 1.51286e-18)
(0.520323 0.0412908 0)
(0.519093 0.0435376 1.63306e-18)
(0.53792 0.0447652 -1.69751e-18)
(0.540368 -0.340698 -1.86279e-18)
(0.689822 0.358613 -1.92255e-18)
(0.244903 -0.00970961 0)
(0.444753 0.184418 -2.05645e-18)
(0.374322 0.0911277 -7.08183e-19)
(0.41425 0.0648358 -2.19626e-18)
(0.448527 0.047751 -1.51613e-18)
(0.474485 0.0356022 0)
(0.496193 0.0285359 -1.634e-18)
(0.528955 0.0247441 -2.5472e-18)
(-1.228 -0.253878 6.26038e-19)
(1.11163 0.606465 6.45429e-19)
(-0.0581624 -0.0693863 0)
(0.610535 0.0111737 6.85391e-19)
(0.385667 -0.0499125 -7.07317e-19)
(0.469341 -0.0333057 7.31423e-19)
(0.485864 -0.0157833 0)
(0.497272 -0.00459513 0)
(0.510883 0.00248667 0)
(0.537645 0.00728027 8.4893e-19)
)
;

boundaryField
{
    inlet
    {
        type            fixedValue;
        value           uniform (3 0 0);
    }
    sym
    {
        type            slip;
    }
    wedge
    {
        type            slip;
    }
    top
    {
        type            slip;
    }
    back
    {
        type            empty;
    }
    front
    {
        type            empty;
    }
    outlet
    {
        type            inletOutlet;
        inletValue      uniform (3 0 0);
        value           nonuniform List<vector> 10((0.467098 0.162733 -6.78425e-18) (0.472711 0.143349 0) (0.492018 0.125661 6.78992e-18) (0.489929 0.111785 -6.79276e-18) (0.506667 0.0840394 0) (0.512981 0.0780094 0) (0.520595 0.0490343 3.39599e-18) (0.53792 0.0447652 -1.69751e-18) (0.528955 0.0247441 -2.5472e-18) (0.537645 0.00728027 8.4893e-19));
    }
}


// ************************************************************************* //
