/*--------------------------------*- C++ -*----------------------------------*\
| =========                 |                                                 |
| \\      /  F ield         | OpenFOAM: The Open Source CFD Toolbox           |
|  \\    /   O peration     | Version:  2412                                  |
|   \\  /    A nd           | Website:  www.openfoam.com                      |
|    \\/     M anipulation  |                                                 |
\*---------------------------------------------------------------------------*/
FoamFile
{
    version     2.0;
    format      ascii;
    arch        "LSB;label=32;scalar=64";
    class       volScalarField;
    location    "8.5";
    object      p;
}
// * * * * * * * * * * * * * * * * * * * * * * * * * * * * * * * * * * * * * //

dimensions      [1 -1 -2 0 0 0 0];

internalField   nonuniform List<scalar> 
200
(
1.18456
0.87033
1.07389
0.927029
1.03673
0.978177
1.0068
0.997898
0.998833
0.999354
1.18144
0.84491
1.05106
0.98722
0.997059
0.994933
0.995587
0.996712
0.997634
0.998152
1.18019
0.850191
1.04155
0.9815
0.998941
0.995997
0.997038
0.998174
0.99885
0.999198
1.17507
0.879196
1.04701
0.952514
0.993797
0.981305
0.988582
0.992208
0.994956
0.996581
1.21493
0.926901
1.02017
0.983961
0.995774
0.993893
0.995108
0.995907
0.996764
0.997512
1.20981
0.873448
1.05724
0.964113
1.00197
0.989848
0.992841
0.993094
0.994163
0.995486
1.21903
0.816638
1.08314
0.984773
1.00823
1.00344
1.00088
0.999924
0.999201
0.998747
1.20568
0.831979
1.15064
0.989091
1.01801
1.01451
1.00851
1.00525
1.00382
1.00282
1.10205
0.783002
1.19766
1.00848
1.06279
1.0305
1.02478
1.01592
1.01171
1.00811
1.1854
0.861338
1.1304
0.959293
1.05162
1.0044
1.02828
1.00571
1.01465
1.00541
0.999423
0.999081
0.998745
0.99852
0.998405
0.99835
0.998291
0.998229
0.998174
0.998133
0.998289
0.998071
0.99795
0.99808
0.998251
0.998378
0.998375
0.998321
0.998252
0.998193
0.999272
0.999139
0.999043
0.998972
0.998894
0.998734
0.998566
0.998411
0.998279
0.998191
0.997769
0.998328
0.998542
0.998729
0.998818
0.998783
0.998671
0.99852
0.998357
0.998233
0.998167
0.998486
0.998825
0.99904
0.999116
0.999029
0.998839
0.998602
0.998374
0.998215
0.997305
0.998123
0.998904
0.999169
0.999246
0.999127
0.998893
0.998613
0.998354
0.998178
0.998832
0.999036
0.999348
0.999417
0.999351
0.999153
0.998859
0.998531
0.998257
0.998113
1.00198
1.00059
1.00018
0.999678
0.999435
0.999181
0.998856
0.998469
0.998147
0.99808
1.00439
1.00127
1.00066
0.999795
0.999469
0.999103
0.998856
0.998416
0.998086
0.998086
1.00619
1.00076
1.00128
0.999937
0.99973
0.999279
0.998936
0.998523
0.998158
0.998104
)
;

boundaryField
{
    inlet
    {
        type            fixedValue;
        value           uniform 1;
    }
    sym
    {
        type            slip;
    }
    wedge
    {
        type            slip;
    }
    top
    {
        type            slip;
    }
    back
    {
        type            empty;
    }
    front
    {
        type            empty;
    }
    outlet
    {
        type            zeroGradient;
    }
}


// ************************************************************************* //
