/*--------------------------------*- C++ -*----------------------------------*\
| =========                 |                                                 |
| \\      /  F ield         | OpenFOAM: The Open Source CFD Toolbox           |
|  \\    /   O peration     | Version:  2412                                  |
|   \\  /    A nd           | Website:  www.openfoam.com                      |
|    \\/     M anipulation  |                                                 |
\*---------------------------------------------------------------------------*/
FoamFile
{
    version     2.0;
    format      ascii;
    arch        "LSB;label=32;scalar=64";
    class       surfaceScalarField;
    location    "8.5";
    object      phi;
}
// * * * * * * * * * * * * * * * * * * * * * * * * * * * * * * * * * * * * * //

dimensions      [1 0 -1 0 0 0 0];

oriented        oriented;

internalField   nonuniform List<scalar> 
370
(
4.85729e-05
0.000109987
-0.000190452
0.000239803
-0.000192306
3.68265e-06
0.000305458
-0.000498159
0.000263025
4.267e-05
0.000403231
-0.000140445
0.00040637
-3.19303e-06
0.000404253
1.86844e-06
0.000392651
1.14104e-05
1.9742e-05
0.000372688
0.000361371
-0.000108587
0.000798627
-0.000199114
0.000973088
-0.000170087
0.00061464
-0.000140207
0.000709082
-5.20647e-05
0.00055958
8.55277e-06
0.000456452
9.94557e-05
0.000320042
0.000137792
0.000201902
0.000129109
0.000107324
0.000113935
0.00034314
-0.000323659
0.000682095
-0.000539584
0.000577778
-6.56498e-05
0.000431082
5.74435e-06
0.000352527
2.60699e-05
0.000225147
0.000135053
0.000116691
0.00020724
2.13586e-05
0.000232552
-4.46058e-05
0.000194441
0.000143568
-8.13167e-05
0.000154232
-0.000379519
-8.58209e-05
-0.000301289
-0.000491924
0.000339899
-0.00057349
8.58073e-05
-0.000698123
0.000149476
-0.000684277
0.000120241
-0.000622943
0.000144992
-0.000536186
0.000145034
-0.000462608
0.000120185
8.67292e-05
-0.000406366
-0.000761913
0.000171913
-0.00142393
0.000358886
-0.000913212
-0.000174176
-0.000906848
7.66899e-05
-0.000792611
3.23191e-05
-0.000746695
7.17113e-05
-0.000683271
7.92934e-05
-0.000607146
6.69642e-05
-0.000527569
3.89713e-05
6.2509e-06
-0.000448476
-0.000250518
0.000302873
-0.000467265
0.000578494
-0.000610227
-3.60507e-05
-0.000615688
7.54307e-05
-0.000672106
8.21643e-05
-0.000632512
2.65603e-05
-0.000566976
9.17156e-06
-0.000477854
-2.59795e-05
-0.000379263
-6.27826e-05
-8.79343e-05
-0.000287588
0.00019662
0.000151395
0.000586336
0.000178897
0.000640491
-0.000121328
0.000584875
0.000117374
0.000537861
0.000111219
0.000477661
7.03677e-05
0.00042562
4.79105e-05
0.00037689
1.23865e-05
0.000329739
-2.35477e-05
-5.42051e-05
0.000290093
0.000323661
8.04036e-05
0.000618103
-0.00019643
0.000916106
-0.00050222
0.000874352
0.00010588
0.000932769
1.31922e-05
0.000851083
0.000116168
0.000821811
5.09989e-05
0.000761127
5.36522e-05
0.000715756
7.38447e-06
7.12225e-06
0.00064368
0.00139987
-0.000318384
0.00156149
-0.000257513
0.00113955
-0.000173218
0.00102562
-3.12176e-05
0.000834732
0.000207272
0.00069283
0.000176219
0.000637033
6.59251e-05
0.00044668
0.000209263
0.000405327
2.3997e-05
8.71849e-05
0.000307002
0.000206976
-7.01324e-05
-0.000277534
-0.000338904
-0.000178883
-4.47193e-05
-1.53466e-05
0.000168008
0.000171807
0.000240244
0.000351172
2.09504e-05
0.000334442
1.61616e-05
0.000309098
2.48668e-05
0.000275619
3.32275e-05
0.000241218
3.44885e-05
0.000212065
2.96231e-05
0.000188515
2.4483e-05
0.000172172
1.77526e-05
0.000161437
1.25412e-05
1.0595e-05
-4.10638e-05
0.000175298
-0.000107326
8.193e-05
-0.0001184
3.55931e-05
-9.81409e-05
1.28408e-05
-6.40606e-05
5.99163e-07
-2.68867e-05
-7.10399e-06
5.44254e-06
-6.96944e-06
2.75683e-05
-3.0285e-06
4.11667e-05
6.79204e-07
8.55917e-06
-0.000150136
0.000243289
-0.000177574
0.000108598
-0.000159549
1.6873e-05
-0.000119343
-2.78769e-05
-7.38574e-05
-4.51878e-05
-3.38948e-05
-4.6926e-05
-2.93902e-06
-3.73376e-05
1.80144e-05
-2.29296e-05
2.66662e-05
-6.46454e-06
9.99732e-06
-0.00033954
0.000175387
-0.000262811
3.09638e-05
-0.000179553
-6.70663e-05
-0.000105949
-0.000102053
-4.86675e-05
-0.000102859
-5.91751e-06
-8.97805e-05
2.23053e-05
-6.52771e-05
3.74591e-05
-3.73394e-05
4.27571e-05
-1.05599e-05
1.33259e-05
-0.000281874
6.61759e-06
-0.000142613
-0.000109708
-5.01898e-05
-0.000160442
7.86267e-06
-0.000160778
4.32613e-05
-0.000138747
6.27793e-05
-0.000109582
7.4135e-05
-7.66112e-05
7.93348e-05
-4.20951e-05
7.81961e-05
-8.52182e-06
1.88051e-05
-7.96804e-05
-0.000204941
3.55093e-05
-0.000227278
8.41237e-05
-0.00021049
0.000108892
-0.000186419
0.000118635
-0.000149065
0.000119101
-0.000110448
0.000116068
-7.37305e-05
0.000110864
-3.66956e-05
0.000103728
-7.56412e-07
2.47798e-05
0.000292396
-0.000214854
0.000268847
-0.000207926
0.000250859
-0.000194758
0.0002223
-0.000159031
0.000193214
-0.000120684
0.000167434
-8.51301e-05
0.000148474
-5.50386e-05
0.000133479
-2.17042e-05
0.000118303
1.47902e-05
3.08424e-05
0.000550157
-0.000134102
0.000426009
-9.02316e-05
0.00034771
-0.000119685
0.000260418
-7.32289e-05
0.000193755
-5.48136e-05
0.000145483
-3.73514e-05
0.000121889
-3.18423e-05
0.000107659
-7.61299e-06
8.7886e-05
3.47422e-05
3.4865e-05
0.000231589
-7.77274e-05
0.000105984
2.59904e-05
2.8294e-05
-4.61793e-05
-3.12622e-05
-1.57953e-05
-5.81277e-05
-2.90474e-05
-5.36651e-05
-4.24695e-05
-3.71287e-05
-4.89362e-05
-2.08242e-05
-2.41387e-05
-7.60952e-06
2.15857e-05
2.85115e-05
0.00014632
0.000162021
0.000111705
9.35846e-05
6.34599e-05
2.03424e-05
-2.91816e-05
-5.36047e-05
-3.20002e-05
)
;

boundaryField
{
    inlet
    {
        type            calculated;
        value           nonuniform List<scalar> 10(-0.000149718 -0.000135825 -0.000123625 -0.000101538 0.000204638 0.00011281 -4.51396e-05 -0.000186504 -0.000708207 -0.000314052);
    }
    sym
    {
        type            calculated;
        value           uniform 0;
    }
    wedge
    {
        type            calculated;
        value           nonuniform List<scalar> 10(1.19811e-20 1.19777e-20 2.39498e-20 1.19726e-20 -4.20847e-39 0 2.39464e-20 1.19748e-20 1.19766e-20 -1.19779e-20);
    }
    top
    {
        type            calculated;
        value           uniform 0;
    }
    back
    {
        type            empty;
    }
    front
    {
        type            empty;
    }
    outlet
    {
        type            calculated;
        value           nonuniform List<scalar> 10(0.00015293 4.52016e-05 2.70329e-05 4.09539e-05 7.39481e-05 9.87174e-05 0.000112959 8.43871e-05 -8.59907e-07 -3.14458e-06);
    }
}


// ************************************************************************* //
