/*--------------------------------*- C++ -*----------------------------------*\
| =========                 |                                                 |
| \\      /  F ield         | OpenFOAM: The Open Source CFD Toolbox           |
|  \\    /   O peration     | Version:  2412                                  |
|   \\  /    A nd           | Website:  www.openfoam.com                      |
|    \\/     M anipulation  |                                                 |
\*---------------------------------------------------------------------------*/
FoamFile
{
    version     2.0;
    format      ascii;
    arch        "LSB;label=32;scalar=64";
    class       volVectorField;
    location    "8.5";
    object      U;
}
// * * * * * * * * * * * * * * * * * * * * * * * * * * * * * * * * * * * * * //

dimensions      [0 1 -1 0 0 0 0];

internalField   nonuniform List<vector> 
200
(
(-21.8702 0.536392 0)
(15.9034 2.13785 0)
(-11.7092 -0.80702 0)
(7.35259 -3.72467 0)
(-3.28075 -0.445275 0)
(3.07053 -1.31456 0)
(-0.0337975 -0.596669 0)
(1.2051 -0.51767 0)
(0.957775 -0.436583 0)
(0.851551 -0.350962 0)
(-15.8222 0.237936 0)
(10.6109 0.521178 0)
(-0.954091 0.774467 0)
(2.56359 -0.702442 0)
(1.33889 0.642544 0)
(1.4595 0.0322515 0)
(1.23332 0.506965 0)
(0.911171 0.525099 0)
(0.578461 0.539353 0)
(0.353744 0.541566 0)
(-15.6487 -0.955324 0)
(10.5776 -3.43127 0)
(-2.07467 -2.79057 0)
(2.61123 -1.25851 0)
(0.390984 -1.00031 0)
(0.760508 0.0692135 0)
(0.401989 0.86081 0)
(0.157817 1.23886 0)
(-0.0604776 1.09917 0)
(-0.140754 0.819349 0)
(-16.3031 -1.99166 0)
(10.9512 -3.39649 0)
(-6.97366 2.35017 0)
(2.43126 1.13401 0)
(-3.3843 1.20681 0)
(-0.921827 1.10915 0)
(-1.70549 1.17956 0)
(-1.29461 1.14362 0)
(-1.15506 0.93337 0)
(-0.993089 0.691365 0)
(-12.4692 -0.43131 0)
(3.1886 0.624765 0)
(-5.41524 0.485136 0)
(-0.580026 0.414282 0)
(-2.53832 0.586502 0)
(-1.57244 0.639196 0)
(-1.69748 0.760678 0)
(-1.47237 0.744649 0)
(-1.30148 0.604646 0)
(-1.09916 0.412759 0)
(-17.7453 1.5282 0)
(9.61468 2.85094 0)
(-7.16542 -1.91121 0)
(2.11054 0.0828038 0)
(-3.26391 -0.164216 0)
(-0.847732 -0.0321341 0)
(-1.61372 -0.00946798 0)
(-1.18224 -0.111332 0)
(-0.98144 -0.251009 0)
(-0.728091 -0.37806 0)
(-20.7866 0.621233 0)
(13.4735 3.79297 0)
(-3.19191 1.3682 0)
(3.50144 1.18468 0)
(0.711389 1.00226 0)
(1.17015 0.468052 0)
(1.12055 0.172975 0)
(0.942674 -0.116684 0)
(0.803362 -0.382604 0)
(0.692852 -0.563734 0)
(-21.0444 0.548062 0)
(14.7276 -0.558638 0)
(-3.79206 -2.56846 0)
(4.42852 0.231884 0)
(1.65999 -0.0279188 0)
(1.82845 0.373908 0)
(1.92927 0.289918 0)
(1.83685 0.216084 0)
(1.69521 0.0950759 0)
(1.56381 -0.026096 0)
(-21.282 -0.404761 0)
(20.1595 -2.22143 0)
(-6.93267 -1.28094 0)
(7.82773 0.871327 0)
(-0.238664 0.373167 0)
(2.59512 0.996731 0)
(1.23802 0.435829 0)
(1.27912 0.564387 0)
(0.946012 0.0237382 0)
(0.828018 0.152708 0)
(-23.4121 -0.823313 0)
(17.6552 -0.267677 0)
(-10.9902 -1.13024 0)
(5.70434 -1.48916 0)
(-4.94057 1.36453 0)
(2.94279 0.738913 0)
(-2.47072 0.294909 0)
(1.95293 1.49345 0)
(-0.731145 0.277466 0)
(1.18353 0.710206 0)
(0.805389 -0.168082 -2.81779e-21)
(0.819865 0.00881188 0)
(0.805667 0.155113 0)
(0.757462 0.245711 0)
(0.687962 0.285116 1.12819e-17)
(0.618477 0.289265 0)
(0.562773 0.276054 0)
(0.52433 0.256422 0)
(0.504378 0.235724 0)
(0.494563 0.217793 -6.7872e-18)
(0.0342016 0.532745 -5.00905e-18)
(-0.244106 0.245456 5.17769e-18)
(-0.296029 0.123781 0)
(-0.284476 0.0719112 0)
(-0.21459 0.0482295 1.39149e-21)
(-0.124968 0.0326806 0)
(-0.029043 0.0383333 0)
(0.0588402 0.0426202 0)
(0.104628 0.0415695 0)
(0.14614 0.0581081 0)
(-0.298695 0.509508 0)
(-0.428153 0.101055 -5.12495e-18)
(-0.426905 -0.0853533 0)
(-0.360246 -0.162783 0)
(-0.250328 -0.175429 -1.1328e-17)
(-0.142101 -0.143888 5.8711e-18)
(-0.0485315 -0.0976177 0)
(0.0317978 -0.0354382 6.32253e-18)
(0.0755097 0.0134606 0)
(0.08738 0.0551285 6.81862e-18)
(-0.886387 0.479444 0)
(-0.75841 0.159571 0)
(-0.546653 -0.0903565 0)
(-0.349662 -0.204523 0)
(-0.194143 -0.225023 5.65653e-18)
(-0.0710837 -0.200894 -5.86752e-18)
(0.0363942 -0.131477 0)
(0.0905179 -0.0627008 -1.26226e-17)
(0.12897 0.00475508 0)
(0.132358 0.0626563 -6.81298e-18)
(-0.904494 0.219556 2.46461e-18)
(-0.463847 -0.222025 2.55943e-18)
(-0.21471 -0.434704 0)
(-0.0363326 -0.43796 2.73661e-18)
(0.0775793 -0.367242 2.82897e-18)
(0.148388 -0.280305 0)
(0.19526 -0.182717 0)
(0.226411 -0.0801643 6.29228e-18)
(0.242601 0.0127878 0)
(0.238789 0.0920372 0)
(-0.462251 -0.449832 -2.49028e-18)
(0.0431138 -0.53574 -2.56923e-18)
(0.143331 -0.535198 0)
(0.259694 -0.47159 -2.72147e-18)
(0.301784 -0.378455 -2.81265e-18)
(0.323537 -0.275308 0)
(0.330599 -0.168621 0)
(0.331986 -0.0589707 0)
(0.32617 0.0438517 0)
(0.318874 0.119595 0)
(0.677108 -0.678767 2.47471e-18)
(0.684861 -0.640351 0)
(0.639621 -0.574521 0)
(0.601704 -0.469527 0)
(0.542256 -0.359336 2.80167e-18)
(0.485395 -0.25276 0)
(0.438155 -0.1558 0)
(0.410363 -0.0530517 0)
(0.382344 0.0541297 0)
(0.365149 0.11832 3.39405e-18)
(1.31061 -0.265565 -1.20699e-18)
(1.18987 -0.292511 1.2557e-18)
(0.933949 -0.341628 0)
(0.777137 -0.283893 1.35243e-18)
(0.593258 -0.215014 -1.40631e-18)
(0.45658 -0.130459 1.46188e-18)
(0.356441 -0.0749762 1.5187e-18)
(0.336558 0.00835611 0)
(0.294585 0.101557 1.63846e-18)
(0.273238 0.127519 -1.70304e-18)
(0.54438 -0.413692 -1.86905e-18)
(0.481661 -0.123477 -1.93858e-18)
(0.0986299 -0.306936 0)
(0.0267433 -0.106432 -2.0856e-18)
(-0.173433 -0.0911643 -7.15687e-19)
(-0.153835 -0.0791003 -2.21613e-18)
(-0.129728 -0.0995829 -1.52684e-18)
(-0.096698 -0.0394317 0)
(-0.036875 0.112297 -1.64652e-18)
(-0.00276331 0.0983286 -2.56798e-18)
(-0.259554 0.0248597 6.2786e-19)
(0.787084 0.294759 6.49464e-19)
(0.141313 0.0718978 0)
(0.348709 0.0352584 6.91844e-19)
(0.184058 -0.062619 -7.15113e-19)
(0.138324 -0.151452 7.40619e-19)
(-0.0178653 -0.177847 0)
(-0.158868 -0.0989777 0)
(-0.174743 0.0131436 0)
(-0.00995786 0.0693181 8.552e-19)
)
;

boundaryField
{
    inlet
    {
        type            fixedValue;
        value           uniform (3 0 0);
    }
    sym
    {
        type            slip;
    }
    wedge
    {
        type            slip;
    }
    top
    {
        type            slip;
    }
    back
    {
        type            empty;
    }
    front
    {
        type            empty;
    }
    outlet
    {
        type            inletOutlet;
        inletValue      uniform (3 0 0);
        value           nonuniform List<vector> 10((0.494563 0.217793 -6.7872e-18) (0.14614 0.0581081 0) (0.08738 0.0551285 6.81862e-18) (0.132358 0.0626563 -6.81298e-18) (0.238789 0.0920372 0) (0.318874 0.119595 0) (0.365149 0.11832 3.39405e-18) (0.273238 0.127519 -1.70304e-18) (3 0 0) (3 0 0));
    }
}


// ************************************************************************* //
