/*--------------------------------*- C++ -*----------------------------------*\
| =========                 |                                                 |
| \\      /  F ield         | OpenFOAM: The Open Source CFD Toolbox           |
|  \\    /   O peration     | Version:  2412                                  |
|   \\  /    A nd           | Website:  www.openfoam.com                      |
|    \\/     M anipulation  |                                                 |
\*---------------------------------------------------------------------------*/
FoamFile
{
    version     2.0;
    format      ascii;
    arch        "LSB;label=32;scalar=64";
    class       volScalarField;
    location    "2";
    object      Ma;
}
// * * * * * * * * * * * * * * * * * * * * * * * * * * * * * * * * * * * * * //

dimensions      [0 0 0 0 0 0 0];

internalField   nonuniform List<scalar> 
1250
(
5.35462
4.4446
3.85721
3.42806
3.09773
2.83539
2.62305
2.44768
2.30089
2.17564
2.0676
1.97259
1.8883
1.81202
1.74245
1.67763
1.61676
1.55817
1.50121
1.44421
1.38631
1.3253
1.25932
1.18443
1.10544
5.34228
4.43736
3.85266
3.42517
3.09593
2.83443
2.62274
2.448
2.30179
2.17718
2.06982
1.97565
1.8923
1.81721
1.74908
1.68614
1.62765
1.57226
1.51962
1.46867
1.41937
1.37106
1.32425
1.27906
1.26296
5.32032
4.42519
3.84567
3.42138
3.09428
2.83439
2.62396
2.45033
2.30516
2.18165
2.07544
1.98258
1.90075
1.82747
1.7615
1.70121
1.646
1.59471
1.5472
1.5027
1.4615
1.4233
1.38879
1.35796
1.35495
5.29096
4.40939
3.83705
3.41719
3.09308
2.83538
2.62668
2.45456
2.31078
2.18865
2.08389
1.99262
1.91255
1.84129
1.77766
1.72009
1.66803
1.62043
1.57718
1.53755
1.50183
1.46958
1.44124
1.4163
1.41618
5.25635
4.39123
3.82756
3.41306
3.09254
2.83748
2.63083
2.46046
2.31825
2.19766
2.09445
2.00481
1.9265
1.85718
1.79567
1.74045
1.69099
1.64624
1.60606
1.56969
1.53732
1.50837
1.48307
1.46068
1.46077
5.21858
4.37184
3.81784
3.4093
3.09277
2.84061
2.63619
2.46768
2.32711
2.20806
2.10635
2.01825
1.94153
1.87388
1.81415
1.76081
1.71332
1.67061
1.63253
1.59825
1.56788
1.54077
1.51704
1.49582
1.49532
5.17936
4.3521
3.80836
3.40611
3.09379
2.84464
2.6425
2.47586
2.33688
2.21929
2.11896
2.03222
1.95685
1.89059
1.83225
1.78034
1.73428
1.69301
1.65632
1.62337
1.5942
1.56813
1.54521
1.52456
1.52324
5.14009
4.33267
3.79941
3.40356
3.0955
2.84936
2.64948
2.48462
2.34714
2.23089
2.13177
2.04619
1.97193
1.90677
1.8495
1.79865
1.75361
1.71333
1.67755
1.64544
1.617
1.59151
1.56902
1.54861
1.54643
5.10172
4.314
3.79114
3.40166
3.09779
2.85459
2.65686
2.49369
2.35758
2.2425
2.14443
2.05981
1.98645
1.92214
1.86567
1.8156
1.77128
1.73167
1.69649
1.6649
1.63688
1.61172
1.58942
1.56908
1.56607
5.06502
4.2964
3.78365
3.40034
3.10052
2.86012
2.66443
2.50281
2.36792
2.25387
2.15668
2.07285
2.0002
1.93654
1.88067
1.83115
1.78733
1.74816
1.71336
1.68209
1.6543
1.6293
1.60708
1.58671
1.58292
5.03041
4.28002
3.77694
3.39953
3.10356
2.8658
2.67199
2.51178
2.37798
2.26482
2.16837
2.08517
2.01307
1.94991
1.89448
1.84535
1.80186
1.76298
1.72841
1.69732
1.66964
1.64469
1.62245
1.60199
1.5975
4.99826
4.26497
3.771
3.39914
3.10678
2.87147
2.67939
2.52045
2.38762
2.27522
2.17937
2.09669
2.02502
1.96223
1.9071
1.85824
1.81496
1.77626
1.74181
1.71081
1.68316
1.6582
1.63588
1.61531
1.61017
4.96869
4.25128
3.76579
3.3991
3.11008
2.87703
2.68652
2.52871
2.39672
2.28497
2.18963
2.10736
2.03601
1.97349
1.91858
1.86989
1.82675
1.78814
1.75374
1.72276
1.69507
1.67005
1.64763
1.62691
1.62122
4.94183
4.23897
3.76127
3.39933
3.11337
2.88238
2.69328
2.53649
2.40523
2.29403
2.1991
2.11715
2.04605
1.98372
1.92895
1.88037
1.83728
1.79871
1.76431
1.73329
1.70554
1.68043
1.65788
1.63701
1.63082
4.91766
4.22799
3.75739
3.39977
3.11659
2.88745
2.69962
2.54371
2.41309
2.30235
2.20776
2.12606
2.05514
1.99294
1.93826
1.88972
1.84666
1.80808
1.77363
1.74255
1.71471
1.68947
1.66679
1.64574
1.63914
4.89618
4.21833
3.7541
3.40036
3.11968
2.89219
2.70548
2.55035
2.42027
2.30991
2.21559
2.13409
2.06329
2.00118
1.94654
1.89802
1.85493
1.8163
1.78178
1.75061
1.72265
1.69729
1.67445
1.65323
1.64628
4.87731
4.20993
3.75135
3.40107
3.12259
2.89656
2.71083
2.55637
2.42675
2.31671
2.2226
2.14124
2.07053
2.00846
1.95383
1.90529
1.86215
1.82346
1.78885
1.75757
1.72949
1.70398
1.68098
1.65958
1.65234
4.86098
4.20275
3.74912
3.40185
3.1253
2.90054
2.71565
2.56176
2.43252
2.32274
2.2288
2.14754
2.07688
2.01483
1.96017
1.91159
1.86838
1.8296
1.79488
1.76348
1.73526
1.70961
1.68644
1.66486
1.6574
4.8471
4.19672
3.74735
3.40267
3.12778
2.90409
2.71993
2.56651
2.43759
2.32801
2.2342
2.153
2.08237
2.0203
1.96561
1.91696
1.87367
1.83479
1.79995
1.76842
1.74005
1.71424
1.6909
1.66913
1.66151
4.83556
4.1918
3.746
3.40351
3.13
2.90722
2.72364
2.57062
2.44195
2.33253
2.2388
2.15765
2.08701
2.02492
1.97017
1.92145
1.87806
1.83907
1.80411
1.77244
1.74391
1.71793
1.69441
1.67244
1.66472
4.82627
4.18791
3.74504
3.40433
3.13195
2.9099
2.7268
2.57409
2.44561
2.33631
2.24264
2.1615
2.09085
2.02872
1.9739
1.9251
1.88161
1.8425
1.80741
1.77559
1.7469
1.72075
1.69704
1.67487
1.66709
4.81911
4.185
3.74442
3.4051
3.13361
2.91214
2.7294
2.57692
2.44858
2.33936
2.24573
2.16459
2.09391
2.03173
1.97684
1.92795
1.88436
1.84514
1.80991
1.77795
1.74909
1.72276
1.69885
1.67646
1.66867
4.81397
4.183
3.7441
3.40581
3.13497
2.9139
2.73143
2.57912
2.45088
2.34171
2.24809
2.16694
2.09623
2.03399
1.97904
1.93007
1.88638
1.84705
1.81169
1.77958
1.75056
1.72404
1.69992
1.67729
1.6695
4.81072
4.18186
3.74405
3.40644
3.136
2.91522
2.73291
2.5807
2.45251
2.34337
2.24974
2.16858
2.09783
2.03555
1.98053
1.93149
1.88772
1.84829
1.81281
1.78058
1.7514
1.7247
1.70036
1.67748
1.66968
4.80933
4.18137
3.74419
3.40688
3.13671
2.91602
2.73384
2.58164
2.45351
2.34434
2.25074
2.16951
2.09877
2.03641
1.98138
1.93225
1.88845
1.84892
1.81339
1.78103
1.75177
1.7249
1.70044
1.67724
1.66944
1.02095
1.15586
1.33387
1.44394
1.51571
1.56607
1.60477
1.63715
1.66582
1.69231
1.71733
1.74141
1.76484
1.78776
1.8104
1.83294
1.85554
1.87842
1.90174
1.9258
1.95099
1.97815
2.00935
2.05113
1.94694
1.12512
1.11502
1.16346
1.20878
1.25341
1.29524
1.3336
1.36867
1.40093
1.43094
1.45922
1.48625
1.51232
1.53774
1.56276
1.58763
1.61253
1.63762
1.66314
1.68936
1.7166
1.74524
1.7755
1.80575
1.81007
1.22974
1.20694
1.23341
1.2581
1.2863
1.3162
1.34631
1.3758
1.40435
1.43194
1.4587
1.48475
1.51032
1.53546
1.56044
1.58539
1.61053
1.636
1.66205
1.6888
1.71635
1.74473
1.77357
1.80116
1.81293
1.29928
1.27356
1.29175
1.30661
1.32532
1.34712
1.37073
1.39519
1.41992
1.44462
1.46917
1.49362
1.51789
1.54211
1.56635
1.59077
1.61546
1.64055
1.66629
1.6927
1.71972
1.74724
1.77482
1.80147
1.81692
1.35134
1.32483
1.33882
1.34792
1.3603
1.37613
1.39457
1.41475
1.43602
1.45797
1.48038
1.50308
1.52602
1.54919
1.57265
1.59642
1.62058
1.64526
1.67059
1.69665
1.72325
1.75024
1.77732
1.80406
1.822
1.3929
1.36631
1.37796
1.38354
1.39165
1.40311
1.41748
1.43409
1.45234
1.47177
1.49209
1.51309
1.53468
1.55676
1.57931
1.60241
1.626
1.65019
1.67507
1.70078
1.72706
1.75376
1.78069
1.80766
1.82764
1.42742
1.40102
1.41126
1.41458
1.41973
1.42797
1.43917
1.45284
1.46848
1.48564
1.50404
1.52343
1.54366
1.5646
1.58635
1.60863
1.63162
1.6553
1.67973
1.70509
1.73113
1.75764
1.78456
1.81187
1.83325
1.45684
1.43073
1.44004
1.44184
1.44491
1.45074
1.45946
1.47073
1.48414
1.49933
1.51597
1.53385
1.55278
1.57274
1.59344
1.61504
1.6374
1.66057
1.68454
1.70956
1.73537
1.76178
1.78872
1.81618
1.83894
1.48235
1.45655
1.46524
1.46596
1.4675
1.47152
1.47829
1.4876
1.49915
1.5126
1.52769
1.54419
1.56194
1.58076
1.6007
1.62152
1.64325
1.66592
1.68945
1.71414
1.73972
1.76601
1.79297
1.82066
1.84435
1.5047
1.47922
1.48746
1.48741
1.48781
1.49043
1.49565
1.50338
1.51336
1.52533
1.53903
1.55428
1.5709
1.58884
1.60783
1.62797
1.64913
1.67128
1.6944
1.71873
1.74409
1.77029
1.79725
1.82496
1.84971
1.52443
1.49924
1.50715
1.50652
1.50606
1.50759
1.51158
1.51801
1.52668
1.53736
1.54987
1.564
1.57964
1.59659
1.61492
1.63433
1.65493
1.67658
1.69929
1.72328
1.74843
1.77451
1.80143
1.82928
1.8547
1.54191
1.51698
1.52465
1.52358
1.52244
1.52311
1.52612
1.53147
1.53904
1.54865
1.5601
1.57325
1.58795
1.60419
1.62168
1.64054
1.66057
1.68176
1.70407
1.72773
1.75268
1.77864
1.80552
1.83329
1.85957
1.5574
1.5327
1.54019
1.53878
1.5371
1.53709
1.53929
1.54378
1.55043
1.5591
1.56966
1.58194
1.59588
1.61129
1.62822
1.64645
1.66597
1.68674
1.70867
1.73205
1.75678
1.78261
1.80941
1.83726
1.86403
1.5711
1.5466
1.55395
1.55228
1.55018
1.54961
1.55116
1.55491
1.5608
1.5687
1.57848
1.59003
1.60323
1.61805
1.63431
1.65202
1.67108
1.69144
1.71306
1.73617
1.76071
1.7864
1.81313
1.84085
1.86832
1.58316
1.55882
1.56607
1.56419
1.56175
1.56074
1.56175
1.56491
1.57016
1.5774
1.58653
1.59743
1.61003
1.6242
1.63995
1.65716
1.67585
1.69584
1.71719
1.74006
1.76441
1.78996
1.81658
1.84433
1.87218
1.5937
1.56947
1.57666
1.57462
1.5719
1.57052
1.57109
1.57375
1.57848
1.58517
1.59374
1.60409
1.61614
1.62982
1.64507
1.66191
1.68017
1.69991
1.72099
1.74366
1.76784
1.79325
1.81979
1.84741
1.87583
1.60282
1.57866
1.58579
1.58362
1.58068
1.57899
1.5792
1.58146
1.58574
1.59198
1.60009
1.60998
1.62158
1.63482
1.64969
1.66612
1.68412
1.70355
1.72441
1.74692
1.77094
1.79623
1.82266
1.85031
1.87903
1.61057
1.58644
1.59352
1.59124
1.58812
1.58618
1.58609
1.58801
1.59193
1.5978
1.60553
1.61504
1.62628
1.63918
1.6537
1.66985
1.68752
1.70674
1.72743
1.74981
1.7737
1.79888
1.82525
1.85279
1.88197
1.61703
1.59286
1.59989
1.59752
1.59425
1.59209
1.59175
1.59339
1.59703
1.60259
1.61002
1.61924
1.63018
1.64281
1.65708
1.67294
1.69044
1.70946
1.73002
1.75231
1.77609
1.80116
1.82746
1.85503
1.88448
1.62225
1.59796
1.60493
1.60247
1.59906
1.59673
1.59618
1.5976
1.601
1.60634
1.61353
1.62252
1.63325
1.64567
1.65974
1.67546
1.69276
1.7117
1.73217
1.75438
1.77806
1.80307
1.82933
1.85685
1.88667
1.62626
1.60177
1.60864
1.60608
1.60254
1.60005
1.59934
1.60059
1.60382
1.60899
1.61603
1.62487
1.63546
1.64775
1.6617
1.67729
1.69455
1.71339
1.73384
1.75599
1.77961
1.80455
1.83079
1.85838
1.88845
1.62911
1.60428
1.61099
1.60831
1.60464
1.60203
1.60119
1.60232
1.60545
1.61052
1.61747
1.62624
1.63676
1.64899
1.6629
1.67848
1.69569
1.71453
1.735
1.75712
1.78069
1.80561
1.83188
1.85948
1.88987
1.63084
1.60549
1.61194
1.6091
1.6053
1.6026
1.60168
1.60276
1.60585
1.6109
1.61783
1.6266
1.63713
1.64939
1.66333
1.67893
1.6962
1.71508
1.73561
1.75772
1.78129
1.80623
1.83253
1.86027
1.89088
1.63155
1.60532
1.6114
1.60831
1.60443
1.60165
1.60074
1.60182
1.60496
1.61006
1.61707
1.62592
1.63654
1.6489
1.66294
1.67867
1.69603
1.71502
1.73563
1.75779
1.78139
1.80639
1.8328
1.86063
1.89151
1.6312
1.60363
1.60902
1.60574
1.60178
1.59908
1.59824
1.59946
1.60272
1.60797
1.61515
1.62416
1.63497
1.64751
1.66175
1.67766
1.69522
1.71438
1.73511
1.75734
1.78101
1.80611
1.83264
1.86065
1.89177
)
;

boundaryField
{
    inlet
    {
        type            calculated;
        value           uniform 1.90944;
    }
    sym
    {
        type            calculated;
        value           nonuniform List<scalar> 
25
(
5.35462
4.4446
3.85721
3.42806
3.09773
2.83539
2.62305
2.44768
2.30089
2.17564
2.06759
1.97259
1.8883
1.81202
1.74244
1.67761
1.61673
1.55812
1.50114
1.4441
1.38613
1.325
1.25882
1.18352
1.10367
)
;
    }
    wedge
    {
        type            calculated;
        value           nonuniform List<scalar> 
25
(
1.00328
1.14505
1.32137
1.42974
1.49986
1.54869
1.58596
1.61698
1.64436
1.6696
1.69343
1.71634
1.73861
1.76041
1.78193
1.80336
1.82484
1.8466
1.86878
1.89164
1.91555
1.94126
1.97061
2.00939
1.90389
)
;
    }
    top
    {
        type            calculated;
        value           nonuniform List<scalar> 
50
(
4.80933
4.18137
3.74419
3.40688
3.13671
2.91602
2.73384
2.58164
2.45351
2.34433
2.25074
2.16951
2.09877
2.03641
1.98138
1.93225
1.88845
1.84892
1.81339
1.78102
1.75177
1.72489
1.70043
1.67724
1.66943
1.63119
1.60363
1.60901
1.60572
1.60176
1.59906
1.59821
1.59943
1.60269
1.60794
1.61511
1.62412
1.63493
1.64747
1.66171
1.67761
1.69517
1.71433
1.73506
1.75729
1.78096
1.80606
1.83259
1.8606
1.89172
)
;
    }
    back
    {
        type            empty;
    }
    front
    {
        type            empty;
    }
    outlet
    {
        type            calculated;
        value           nonuniform List<scalar> 
25
(
2.02622
1.79367
1.78925
1.79218
1.79641
1.80133
1.80635
1.81154
1.81656
1.82158
1.82633
1.83099
1.8353
1.83946
1.84324
1.8468
1.84996
1.85282
1.85527
1.85738
1.85907
1.86039
1.86125
1.8617
1.86188
)
;
    }
}


// ************************************************************************* //
