/*--------------------------------*- C++ -*----------------------------------*\
| =========                 |                                                 |
| \\      /  F ield         | OpenFOAM: The Open Source CFD Toolbox           |
|  \\    /   O peration     | Version:  2412                                  |
|   \\  /    A nd           | Website:  www.openfoam.com                      |
|    \\/     M anipulation  |                                                 |
\*---------------------------------------------------------------------------*/
FoamFile
{
    version     2.0;
    format      ascii;
    arch        "LSB;label=32;scalar=64";
    class       volScalarField;
    location    "2";
    object      p;
}
// * * * * * * * * * * * * * * * * * * * * * * * * * * * * * * * * * * * * * //

dimensions      [1 -1 -2 0 0 0 0];

internalField   nonuniform List<scalar> 
1250
(
-705541
-1.90314e+06
-2.84278e+06
-3.60307e+06
-4.23077e+06
-4.75666e+06
-5.20158e+06
-5.58089e+06
-5.90557e+06
-6.18439e+06
-6.42373e+06
-6.62907e+06
-6.80437e+06
-6.95328e+06
-7.07836e+06
-7.18214e+06
-7.26633e+06
-7.33271e+06
-7.38238e+06
-7.41661e+06
-7.43598e+06
-7.44131e+06
-7.43271e+06
-7.41038e+06
-7.37362e+06
-703600
-1.89947e+06
-2.83844e+06
-3.59857e+06
-4.22641e+06
-4.7526e+06
-5.19793e+06
-5.57771e+06
-5.90293e+06
-6.18231e+06
-6.42228e+06
-6.62828e+06
-6.80433e+06
-6.95404e+06
-7.08005e+06
-7.18487e+06
-7.27028e+06
-7.33811e+06
-7.38956e+06
-7.42601e+06
-7.44829e+06
-7.45747e+06
-7.45422e+06
-7.43952e+06
-7.41387e+06
-700151
-1.89305e+06
-2.83085e+06
-3.59074e+06
-4.21884e+06
-4.7456e+06
-5.19172e+06
-5.5724e+06
-5.89865e+06
-6.17914e+06
-6.42033e+06
-6.62764e+06
-6.80512e+06
-6.95641e+06
-7.08416e+06
-7.19095e+06
-7.27862e+06
-7.34904e+06
-7.40355e+06
-7.4436e+06
-7.47019e+06
-7.48457e+06
-7.4876e+06
-7.48039e+06
-7.46349e+06
-695571
-1.88464e+06
-2.82099e+06
-3.58064e+06
-4.2092e+06
-4.73682e+06
-5.18406e+06
-5.56607e+06
-5.89379e+06
-6.17588e+06
-6.4188e+06
-6.62798e+06
-6.80748e+06
-6.96095e+06
-7.0911e+06
-7.20053e+06
-7.29112e+06
-7.3648e+06
-7.42296e+06
-7.46711e+06
-7.49832e+06
-7.51786e+06
-7.5266e+06
-7.52564e+06
-7.5154e+06
-690188
-1.87488e+06
-2.80966e+06
-3.56918e+06
-4.1984e+06
-4.72718e+06
-5.17589e+06
-5.55958e+06
-5.88916e+06
-6.17326e+06
-6.41833e+06
-6.6298e+06
-6.81175e+06
-6.96783e+06
-7.1008e+06
-7.21324e+06
-7.30709e+06
-7.3843e+06
-7.44627e+06
-7.49454e+06
-7.53018e+06
-7.55445e+06
-7.56821e+06
-7.57248e+06
-7.56764e+06
-684327
-1.86438e+06
-2.79762e+06
-3.55717e+06
-4.18729e+06
-4.71748e+06
-5.16795e+06
-5.55363e+06
-5.88538e+06
-6.17179e+06
-6.41931e+06
-6.63335e+06
-6.81801e+06
-6.97696e+06
-7.11294e+06
-7.22856e+06
-7.32577e+06
-7.40651e+06
-7.47221e+06
-7.5244e+06
-7.56413e+06
-7.59266e+06
-7.61081e+06
-7.61957e+06
-7.61927e+06
-678230
-1.85359e+06
-2.78539e+06
-3.54515e+06
-4.17638e+06
-4.70823e+06
-5.16068e+06
-5.54858e+06
-5.88271e+06
-6.17164e+06
-6.42179e+06
-6.63857e+06
-6.82608e+06
-6.98798e+06
-7.12703e+06
-7.24584e+06
-7.34635e+06
-7.43051e+06
-7.49975e+06
-7.55558e+06
-7.59905e+06
-7.6314e+06
-7.65342e+06
-7.66609e+06
-7.6697e+06
-672116
-1.84288e+06
-2.7734e+06
-3.53355e+06
-4.16608e+06
-4.69976e+06
-5.15438e+06
-5.54465e+06
-5.88129e+06
-6.17285e+06
-6.42572e+06
-6.6453e+06
-6.83569e+06
-7.00054e+06
-7.14261e+06
-7.26451e+06
-7.36819e+06
-7.45559e+06
-7.52812e+06
-7.5873e+06
-7.63416e+06
-7.66992e+06
-7.69539e+06
-7.71149e+06
-7.71852e+06
-666110
-1.83246e+06
-2.76187e+06
-3.52257e+06
-4.15654e+06
-4.69218e+06
-5.14906e+06
-5.54179e+06
-5.88102e+06
-6.17525e+06
-6.43085e+06
-6.65322e+06
-6.84645e+06
-7.01418e+06
-7.15917e+06
-7.28403e+06
-7.3907e+06
-7.48111e+06
-7.55669e+06
-7.61892e+06
-7.66886e+06
-7.70769e+06
-7.73622e+06
-7.75537e+06
-7.7654e+06
-660338
-1.82254e+06
-2.75099e+06
-3.51237e+06
-4.14789e+06
-4.68557e+06
-5.14476e+06
-5.53998e+06
-5.8818e+06
-6.17868e+06
-6.43698e+06
-6.66208e+06
-6.85805e+06
-7.02854e+06
-7.17631e+06
-7.30395e+06
-7.41341e+06
-7.50661e+06
-7.58499e+06
-7.65e+06
-7.70271e+06
-7.7443e+06
-7.77556e+06
-7.7974e+06
-7.8101e+06
-654858
-1.81317e+06
-2.74084e+06
-3.50299e+06
-4.1401e+06
-4.67984e+06
-5.14136e+06
-5.53905e+06
-5.88341e+06
-6.18289e+06
-6.44381e+06
-6.67153e+06
-6.87013e+06
-7.04323e+06
-7.19361e+06
-7.32385e+06
-7.4359e+06
-7.53167e+06
-7.61259e+06
-7.68014e+06
-7.73535e+06
-7.77941e+06
-7.81311e+06
-7.83735e+06
-7.85241e+06
-649738
-1.80448e+06
-2.73151e+06
-3.49449e+06
-4.13321e+06
-4.67499e+06
-5.13879e+06
-5.53889e+06
-5.88573e+06
-6.18771e+06
-6.45113e+06
-6.68134e+06
-6.88241e+06
-7.05797e+06
-7.21079e+06
-7.34343e+06
-7.45785e+06
-7.55597e+06
-7.63921e+06
-7.70904e+06
-7.7665e+06
-7.81277e+06
-7.84864e+06
-7.87502e+06
-7.89215e+06
-644996
-1.79648e+06
-2.72298e+06
-3.48682e+06
-4.12714e+06
-4.67092e+06
-5.13692e+06
-5.53933e+06
-5.88853e+06
-6.19288e+06
-6.45867e+06
-6.69123e+06
-6.89462e+06
-7.07246e+06
-7.22752e+06
-7.36237e+06
-7.47897e+06
-7.57923e+06
-7.66457e+06
-7.73645e+06
-7.79593e+06
-7.84417e+06
-7.88197e+06
-7.91024e+06
-7.92921e+06
-640666
-1.78921e+06
-2.7153e+06
-3.48002e+06
-4.12188e+06
-4.66757e+06
-5.13567e+06
-5.54028e+06
-5.89171e+06
-6.19829e+06
-6.46629e+06
-6.70102e+06
-6.90656e+06
-7.0865e+06
-7.24362e+06
-7.38049e+06
-7.49906e+06
-7.60124e+06
-7.68846e+06
-7.76218e+06
-7.82346e+06
-7.87345e+06
-7.91296e+06
-7.94288e+06
-7.96347e+06
-636745
-1.78265e+06
-2.70843e+06
-3.47401e+06
-4.11735e+06
-4.66485e+06
-5.13492e+06
-5.54158e+06
-5.89509e+06
-6.20374e+06
-6.47378e+06
-6.71052e+06
-6.91802e+06
-7.09988e+06
-7.25887e+06
-7.39756e+06
-7.51791e+06
-7.62182e+06
-7.71072e+06
-7.78608e+06
-7.84895e+06
-7.90048e+06
-7.94149e+06
-7.97287e+06
-7.99486e+06
-633247
-1.77684e+06
-2.70239e+06
-3.4688e+06
-4.11353e+06
-4.66271e+06
-5.13461e+06
-5.54317e+06
-5.89858e+06
-6.20913e+06
-6.48104e+06
-6.7196e+06
-6.92888e+06
-7.11247e+06
-7.27314e+06
-7.41346e+06
-7.53539e+06
-7.64084e+06
-7.73123e+06
-7.80802e+06
-7.87229e+06
-7.92516e+06
-7.96748e+06
-8.00011e+06
-8.02332e+06
-630159
-1.77173e+06
-2.69713e+06
-3.46434e+06
-4.11035e+06
-4.66107e+06
-5.13465e+06
-5.54493e+06
-5.90208e+06
-6.21434e+06
-6.48792e+06
-6.72813e+06
-6.939e+06
-7.12413e+06
-7.2863e+06
-7.42806e+06
-7.55139e+06
-7.65818e+06
-7.74987e+06
-7.82792e+06
-7.89339e+06
-7.94743e+06
-7.99087e+06
-8.02458e+06
-8.04882e+06
-627483
-1.76734e+06
-2.69265e+06
-3.4606e+06
-4.10778e+06
-4.6599e+06
-5.13498e+06
-5.54681e+06
-5.9055e+06
-6.21929e+06
-6.49437e+06
-6.73602e+06
-6.94829e+06
-7.13478e+06
-7.29826e+06
-7.44128e+06
-7.56582e+06
-7.67378e+06
-7.76659e+06
-7.84571e+06
-7.91222e+06
-7.96724e+06
-8.01163e+06
-8.04625e+06
-8.07135e+06
-625203
-1.76363e+06
-2.6889e+06
-3.45753e+06
-4.10576e+06
-4.65912e+06
-5.13552e+06
-5.54871e+06
-5.90876e+06
-6.22388e+06
-6.50026e+06
-6.74318e+06
-6.95667e+06
-7.14433e+06
-7.30893e+06
-7.45303e+06
-7.57861e+06
-7.68756e+06
-7.78132e+06
-7.86134e+06
-7.92872e+06
-7.98457e+06
-8.02974e+06
-8.0651e+06
-8.09091e+06
-623311
-1.76057e+06
-2.68586e+06
-3.4551e+06
-4.10425e+06
-4.65868e+06
-5.13623e+06
-5.55058e+06
-5.91179e+06
-6.22806e+06
-6.50554e+06
-6.74953e+06
-6.96405e+06
-7.15271e+06
-7.31826e+06
-7.46327e+06
-7.58971e+06
-7.69948e+06
-7.79403e+06
-7.8748e+06
-7.94288e+06
-7.9994e+06
-8.0452e+06
-8.08116e+06
-8.10752e+06
-621788
-1.75815e+06
-2.68348e+06
-3.45325e+06
-4.10318e+06
-4.65851e+06
-5.13702e+06
-5.55235e+06
-5.91452e+06
-6.23173e+06
-6.51014e+06
-6.75501e+06
-6.97038e+06
-7.15984e+06
-7.32617e+06
-7.47192e+06
-7.59907e+06
-7.70951e+06
-7.80469e+06
-7.88606e+06
-7.9547e+06
-8.01175e+06
-8.05804e+06
-8.09445e+06
-8.12122e+06
-620621
-1.75632e+06
-2.68173e+06
-3.45195e+06
-4.1025e+06
-4.65857e+06
-5.13784e+06
-5.55394e+06
-5.91688e+06
-6.23484e+06
-6.51397e+06
-6.75954e+06
-6.97558e+06
-7.16569e+06
-7.33262e+06
-7.47895e+06
-7.60665e+06
-7.71761e+06
-7.81328e+06
-7.8951e+06
-7.96417e+06
-8.02162e+06
-8.06827e+06
-8.105e+06
-8.13206e+06
-619791
-1.75504e+06
-2.68054e+06
-3.45111e+06
-4.10214e+06
-4.65875e+06
-5.13859e+06
-5.55527e+06
-5.91879e+06
-6.2373e+06
-6.51697e+06
-6.76305e+06
-6.97959e+06
-7.17016e+06
-7.33755e+06
-7.4843e+06
-7.6124e+06
-7.72374e+06
-7.81977e+06
-7.90193e+06
-7.9713e+06
-8.02902e+06
-8.07592e+06
-8.11288e+06
-8.1401e+06
-619280
-1.75427e+06
-2.67986e+06
-3.45066e+06
-4.10202e+06
-4.65899e+06
-5.13921e+06
-5.55626e+06
-5.92015e+06
-6.23903e+06
-6.51904e+06
-6.76546e+06
-6.98232e+06
-7.1732e+06
-7.34088e+06
-7.48792e+06
-7.61628e+06
-7.72787e+06
-7.82413e+06
-7.9065e+06
-7.97608e+06
-8.03398e+06
-8.08103e+06
-8.11811e+06
-8.14543e+06
-618971
-1.75395e+06
-2.67954e+06
-3.45053e+06
-4.102e+06
-4.6592e+06
-5.13956e+06
-5.55683e+06
-5.92087e+06
-6.23995e+06
-6.52011e+06
-6.76672e+06
-6.98371e+06
-7.17476e+06
-7.34256e+06
-7.48975e+06
-7.61823e+06
-7.72995e+06
-7.82631e+06
-7.90881e+06
-7.97847e+06
-8.03647e+06
-8.08358e+06
-8.12074e+06
-8.14808e+06
-7.29611e+06
-7.23314e+06
-7.19024e+06
-7.15311e+06
-7.11808e+06
-7.08348e+06
-7.04867e+06
-7.01353e+06
-6.97816e+06
-6.94276e+06
-6.9076e+06
-6.87296e+06
-6.83916e+06
-6.80653e+06
-6.77541e+06
-6.74617e+06
-6.71923e+06
-6.69506e+06
-6.67421e+06
-6.65738e+06
-6.6455e+06
-6.63989e+06
-6.64275e+06
-6.65855e+06
-6.69903e+06
-7.3702e+06
-7.32895e+06
-7.29421e+06
-7.26183e+06
-7.23069e+06
-7.19973e+06
-7.16834e+06
-7.13636e+06
-7.10386e+06
-7.07104e+06
-7.03818e+06
-7.0056e+06
-6.97363e+06
-6.94263e+06
-6.91298e+06
-6.88507e+06
-6.85932e+06
-6.83622e+06
-6.8163e+06
-6.80022e+06
-6.78878e+06
-6.78305e+06
-6.78442e+06
-6.79445e+06
-6.81316e+06
-7.43228e+06
-7.39956e+06
-7.36879e+06
-7.33809e+06
-7.30794e+06
-7.27803e+06
-7.24797e+06
-7.21754e+06
-7.18671e+06
-7.15559e+06
-7.1244e+06
-7.09339e+06
-7.06291e+06
-7.03328e+06
-7.00487e+06
-6.97807e+06
-6.95332e+06
-6.93108e+06
-6.91188e+06
-6.89628e+06
-6.88496e+06
-6.8787e+06
-6.87831e+06
-6.88423e+06
-6.89537e+06
-7.49284e+06
-7.46725e+06
-7.44134e+06
-7.41359e+06
-7.38523e+06
-7.35661e+06
-7.3277e+06
-7.29844e+06
-7.26885e+06
-7.23901e+06
-7.2091e+06
-7.17935e+06
-7.15005e+06
-7.12154e+06
-7.09414e+06
-7.06826e+06
-7.04428e+06
-7.02267e+06
-7.00392e+06
-6.98852e+06
-6.97702e+06
-6.96998e+06
-6.9679e+06
-6.97091e+06
-6.97835e+06
-7.55179e+06
-7.53201e+06
-7.51063e+06
-7.48612e+06
-7.45995e+06
-7.43287e+06
-7.40516e+06
-7.37696e+06
-7.34837e+06
-7.31953e+06
-7.29061e+06
-7.26183e+06
-7.23347e+06
-7.20583e+06
-7.17924e+06
-7.15405e+06
-7.13066e+06
-7.10948e+06
-7.09097e+06
-7.07559e+06
-7.06376e+06
-7.05592e+06
-7.05244e+06
-7.05344e+06
-7.05872e+06
-7.60895e+06
-7.59402e+06
-7.57668e+06
-7.55533e+06
-7.53151e+06
-7.50615e+06
-7.47974e+06
-7.45259e+06
-7.42493e+06
-7.39695e+06
-7.36883e+06
-7.34083e+06
-7.3132e+06
-7.28623e+06
-7.26024e+06
-7.23557e+06
-7.21259e+06
-7.19168e+06
-7.17327e+06
-7.15776e+06
-7.14553e+06
-7.13695e+06
-7.13233e+06
-7.13187e+06
-7.13566e+06
-7.66408e+06
-7.65329e+06
-7.63951e+06
-7.62111e+06
-7.59963e+06
-7.57605e+06
-7.55103e+06
-7.52498e+06
-7.49822e+06
-7.47102e+06
-7.44361e+06
-7.41624e+06
-7.38919e+06
-7.36274e+06
-7.3372e+06
-7.3129e+06
-7.29018e+06
-7.26941e+06
-7.25098e+06
-7.23526e+06
-7.22261e+06
-7.21335e+06
-7.20778e+06
-7.20618e+06
-7.20879e+06
-7.71696e+06
-7.70975e+06
-7.69909e+06
-7.68339e+06
-7.66415e+06
-7.64236e+06
-7.61875e+06
-7.59383e+06
-7.56799e+06
-7.54154e+06
-7.51477e+06
-7.48796e+06
-7.46138e+06
-7.43534e+06
-7.41013e+06
-7.38608e+06
-7.36352e+06
-7.34278e+06
-7.32424e+06
-7.30827e+06
-7.29518e+06
-7.28529e+06
-7.27891e+06
-7.27636e+06
-7.27798e+06
-7.76738e+06
-7.76329e+06
-7.75539e+06
-7.74215e+06
-7.72498e+06
-7.70493e+06
-7.68274e+06
-7.65895e+06
-7.63402e+06
-7.60832e+06
-7.58216e+06
-7.55586e+06
-7.5297e+06
-7.50398e+06
-7.47902e+06
-7.45513e+06
-7.43264e+06
-7.41187e+06
-7.39317e+06
-7.3769e+06
-7.36337e+06
-7.3529e+06
-7.3458e+06
-7.34243e+06
-7.34315e+06
-7.81519e+06
-7.81382e+06
-7.80837e+06
-7.79732e+06
-7.78209e+06
-7.76369e+06
-7.74286e+06
-7.7202e+06
-7.69618e+06
-7.67122e+06
-7.64566e+06
-7.61983e+06
-7.59404e+06
-7.56861e+06
-7.54384e+06
-7.52006e+06
-7.49759e+06
-7.47673e+06
-7.45783e+06
-7.44124e+06
-7.42728e+06
-7.41626e+06
-7.40851e+06
-7.40438e+06
-7.40431e+06
-7.86023e+06
-7.86126e+06
-7.85797e+06
-7.8489e+06
-7.83544e+06
-7.81857e+06
-7.79905e+06
-7.77748e+06
-7.75437e+06
-7.73013e+06
-7.70516e+06
-7.67979e+06
-7.65435e+06
-7.62917e+06
-7.60456e+06
-7.58085e+06
-7.55836e+06
-7.53738e+06
-7.51827e+06
-7.50136e+06
-7.48698e+06
-7.47544e+06
-7.46708e+06
-7.46228e+06
-7.46145e+06
-7.90238e+06
-7.90552e+06
-7.90414e+06
-7.89684e+06
-7.88499e+06
-7.86955e+06
-7.85126e+06
-7.83075e+06
-7.80851e+06
-7.78499e+06
-7.76059e+06
-7.73567e+06
-7.71057e+06
-7.68562e+06
-7.66115e+06
-7.6375e+06
-7.61496e+06
-7.59385e+06
-7.57451e+06
-7.55728e+06
-7.5425e+06
-7.53048e+06
-7.52155e+06
-7.51611e+06
-7.51461e+06
-7.94155e+06
-7.94654e+06
-7.94684e+06
-7.94114e+06
-7.93074e+06
-7.91661e+06
-7.89948e+06
-7.87996e+06
-7.85856e+06
-7.83574e+06
-7.8119e+06
-7.78742e+06
-7.76265e+06
-7.73793e+06
-7.7136e+06
-7.68997e+06
-7.66739e+06
-7.64615e+06
-7.62659e+06
-7.60906e+06
-7.59389e+06
-7.58141e+06
-7.57196e+06
-7.56594e+06
-7.56379e+06
-7.97766e+06
-7.98427e+06
-7.98606e+06
-7.98177e+06
-7.97268e+06
-7.95975e+06
-7.94369e+06
-7.92511e+06
-7.90451e+06
-7.88236e+06
-7.85907e+06
-7.83502e+06
-7.81058e+06
-7.78608e+06
-7.76186e+06
-7.73828e+06
-7.71564e+06
-7.69428e+06
-7.67451e+06
-7.6567e+06
-7.64118e+06
-7.62827e+06
-7.61833e+06
-7.61177e+06
-7.60905e+06
-8.01065e+06
-8.01867e+06
-8.02177e+06
-8.01873e+06
-8.01083e+06
-7.99898e+06
-7.98391e+06
-7.9662e+06
-7.94636e+06
-7.92485e+06
-7.90208e+06
-7.87846e+06
-7.85432e+06
-7.83004e+06
-7.80595e+06
-7.78241e+06
-7.75974e+06
-7.73825e+06
-7.71831e+06
-7.70023e+06
-7.68438e+06
-7.67108e+06
-7.6607e+06
-7.65365e+06
-7.65038e+06
-8.04049e+06
-8.04973e+06
-8.05398e+06
-8.05204e+06
-8.04519e+06
-8.03433e+06
-8.02015e+06
-8.00324e+06
-7.98411e+06
-7.9632e+06
-7.94094e+06
-7.91772e+06
-7.89389e+06
-7.86983e+06
-7.84587e+06
-7.82238e+06
-7.79967e+06
-7.77809e+06
-7.75798e+06
-7.73967e+06
-7.72352e+06
-7.70987e+06
-7.69908e+06
-7.69158e+06
-7.68783e+06
-8.06716e+06
-8.07745e+06
-8.08268e+06
-8.08172e+06
-8.07581e+06
-8.06582e+06
-8.05246e+06
-8.03628e+06
-8.0178e+06
-7.99745e+06
-7.97567e+06
-7.95283e+06
-7.9293e+06
-7.90545e+06
-7.88163e+06
-7.85819e+06
-7.83547e+06
-7.81381e+06
-7.79355e+06
-7.77504e+06
-7.75863e+06
-7.74466e+06
-7.7335e+06
-7.7256e+06
-7.72141e+06
-8.09067e+06
-8.10183e+06
-8.10792e+06
-8.1078e+06
-8.1027e+06
-8.0935e+06
-8.08086e+06
-8.06535e+06
-8.04746e+06
-8.02763e+06
-8.00629e+06
-7.98381e+06
-7.96058e+06
-7.93694e+06
-7.91326e+06
-7.88988e+06
-7.86715e+06
-7.84543e+06
-7.82505e+06
-7.80636e+06
-7.78972e+06
-7.77546e+06
-7.76398e+06
-7.75572e+06
-7.75116e+06
-8.11102e+06
-8.12291e+06
-8.12971e+06
-8.13032e+06
-8.12593e+06
-8.11741e+06
-8.10542e+06
-8.0905e+06
-8.07314e+06
-8.05379e+06
-8.03285e+06
-8.01071e+06
-7.98775e+06
-7.96432e+06
-7.94077e+06
-7.91746e+06
-7.89475e+06
-7.87297e+06
-7.85249e+06
-7.83366e+06
-7.81681e+06
-7.80231e+06
-7.79055e+06
-7.78197e+06
-7.77708e+06
-8.12825e+06
-8.14074e+06
-8.14813e+06
-8.14934e+06
-8.14556e+06
-8.13763e+06
-8.12619e+06
-8.11179e+06
-8.0949e+06
-8.07597e+06
-8.0554e+06
-8.03357e+06
-8.01086e+06
-7.98762e+06
-7.9642e+06
-7.94097e+06
-7.91828e+06
-7.89648e+06
-7.87592e+06
-7.85696e+06
-7.83994e+06
-7.82523e+06
-7.81323e+06
-7.80438e+06
-7.79921e+06
-8.14241e+06
-8.15535e+06
-8.16322e+06
-8.16493e+06
-8.16165e+06
-8.15422e+06
-8.14326e+06
-8.1293e+06
-8.11282e+06
-8.09426e+06
-8.074e+06
-8.05245e+06
-8.02996e+06
-8.00689e+06
-7.98361e+06
-7.96045e+06
-7.93779e+06
-7.91597e+06
-7.89536e+06
-7.87629e+06
-7.85913e+06
-7.84424e+06
-7.83204e+06
-7.82298e+06
-7.81757e+06
-8.15356e+06
-8.16684e+06
-8.17506e+06
-8.17717e+06
-8.1743e+06
-8.16727e+06
-8.1567e+06
-8.14311e+06
-8.12697e+06
-8.10871e+06
-8.08873e+06
-8.06741e+06
-8.04511e+06
-8.0222e+06
-7.99902e+06
-7.97594e+06
-7.95331e+06
-7.93149e+06
-7.91083e+06
-7.89169e+06
-7.87441e+06
-7.85939e+06
-7.84702e+06
-7.83779e+06
-7.83219e+06
-8.16179e+06
-8.17527e+06
-8.18375e+06
-8.18615e+06
-8.18359e+06
-8.17687e+06
-8.16661e+06
-8.15331e+06
-8.13744e+06
-8.11942e+06
-8.09965e+06
-8.07851e+06
-8.05637e+06
-8.03358e+06
-8.01051e+06
-7.98749e+06
-7.96489e+06
-7.94307e+06
-7.92238e+06
-7.90318e+06
-7.88582e+06
-7.87068e+06
-7.8582e+06
-7.84884e+06
-7.8431e+06
-8.16717e+06
-8.18076e+06
-8.18938e+06
-8.19199e+06
-8.18964e+06
-8.18315e+06
-8.17309e+06
-8.16e+06
-8.14431e+06
-8.12647e+06
-8.10685e+06
-8.08584e+06
-8.06381e+06
-8.04112e+06
-8.01811e+06
-7.99514e+06
-7.97257e+06
-7.95076e+06
-7.93004e+06
-7.9108e+06
-7.89338e+06
-7.87818e+06
-7.86562e+06
-7.85616e+06
-7.85033e+06
-8.16981e+06
-8.1834e+06
-8.19211e+06
-8.19481e+06
-8.19259e+06
-8.18621e+06
-8.17627e+06
-8.16328e+06
-8.1477e+06
-8.12994e+06
-8.11041e+06
-8.08947e+06
-8.0675e+06
-8.04485e+06
-8.02189e+06
-7.99895e+06
-7.9764e+06
-7.95458e+06
-7.93386e+06
-7.91459e+06
-7.89714e+06
-7.88191e+06
-7.8693e+06
-7.85981e+06
-7.85393e+06
)
;

boundaryField
{
    inlet
    {
        type            fixedValue;
        value           uniform 101325;
    }
    sym
    {
        type            slip;
    }
    wedge
    {
        type            slip;
    }
    top
    {
        type            slip;
    }
    back
    {
        type            empty;
    }
    front
    {
        type            empty;
    }
    outlet
    {
        type            zeroGradient;
    }
}


// ************************************************************************* //
