/*--------------------------------*- C++ -*----------------------------------*\
| =========                 |                                                 |
| \\      /  F ield         | OpenFOAM: The Open Source CFD Toolbox           |
|  \\    /   O peration     | Version:  2412                                  |
|   \\  /    A nd           | Website:  www.openfoam.com                      |
|    \\/     M anipulation  |                                                 |
\*---------------------------------------------------------------------------*/
FoamFile
{
    version     2.0;
    format      ascii;
    arch        "LSB;label=32;scalar=64";
    class       surfaceScalarField;
    location    "2";
    object      phi;
}
// * * * * * * * * * * * * * * * * * * * * * * * * * * * * * * * * * * * * * //

dimensions      [1 0 -1 0 0 0 0];

oriented        oriented;

internalField   nonuniform List<scalar> 
2425
(
355.565
-0.0696097
355.67
-0.169409
355.925
-0.245936
356.135
-0.305003
356.482
-0.347235
356.732
-0.377323
357.12
-0.394399
357.359
-0.402455
357.747
-0.398077
357.934
-0.38526
358.288
-0.359762
358.385
-0.325416
358.663
-0.274871
358.622
-0.212188
358.769
-0.128432
358.522
-0.0259825
358.459
0.109491
357.885
0.277665
357.437
0.500009
356.316
0.787425
355.214
1.17854
353.153
1.70973
350.725
2.4677
347.041
3.5652
5.17895
341.948
354.177
-0.123891
354.25
-0.297588
354.445
-0.431919
354.598
-0.533464
354.859
-0.60689
355.029
-0.655651
355.311
-0.681455
355.459
-0.68606
355.721
-0.669812
355.798
-0.63275
356.002
-0.572847
355.976
-0.489043
356.078
-0.377846
355.888
-0.235906
355.828
-0.0556054
355.413
0.169042
355.106
0.449951
354.34
0.798862
353.644
1.23744
352.366
1.78716
351.109
2.48131
349.159
3.35698
347.135
4.46411
344.828
5.84964
7.54804
342.488
351.69
-0.164226
351.734
-0.389625
351.88
-0.561561
351.969
-0.688538
352.151
-0.776844
352.234
-0.830453
352.411
-0.851992
352.447
-0.842913
352.583
-0.803486
352.534
-0.733287
352.595
-0.630256
352.426
-0.492268
352.373
-0.314869
352.043
-0.0938301
351.832
0.178625
351.295
0.509384
350.877
0.910187
350.073
1.39142
349.395
1.97007
348.272
2.66011
347.325
3.48255
345.955
4.45258
344.806
5.58884
343.738
6.89953
8.38663
342.911
348.337
-0.192311
348.35
-0.450594
348.452
-0.64302
348.481
-0.780355
348.593
-0.870232
348.594
-0.917347
348.679
-0.924833
348.619
-0.894275
348.649
-0.826022
348.497
-0.719593
348.448
-0.573012
348.18
-0.38415
348.028
-0.148811
347.625
0.136742
347.352
0.479104
346.799
0.883433
346.396
1.35872
345.687
1.91136
345.164
2.55177
344.315
3.2863
343.733
4.12495
342.868
5.07031
342.313
6.12836
341.906
7.29487
8.56414
341.737
344.355
-0.208383
344.341
-0.48206
344.406
-0.680369
344.385
-0.815659
344.439
-0.896936
344.377
-0.929519
344.394
-0.917206
344.264
-0.861883
344.223
-0.764256
344.006
-0.624226
343.894
-0.440252
343.581
-0.210902
343.39
0.0672341
342.979
0.396441
342.714
0.781686
342.214
1.22577
341.892
1.73465
341.325
2.31065
340.981
2.96025
340.382
3.68387
340.083
4.48701
339.563
5.36656
339.357
6.32435
339.289
7.35393
8.44958
339.415
339.982
-0.215386
339.945
-0.49225
339.98
-0.686675
339.921
-0.812568
339.933
-0.879948
339.827
-0.894865
339.798
-0.861744
339.628
-0.78295
339.547
-0.659796
339.304
-0.492701
339.168
-0.280909
338.852
-0.0237839
338.666
0.280871
338.289
0.634112
338.07
1.03918
337.654
1.49695
337.429
2.0111
337.005
2.58176
336.815
3.21205
336.417
3.90053
336.318
4.6493
336.028
5.45376
336.033
6.31477
336.156
7.22601
8.18322
336.436
335.415
-0.214557
335.36
-0.484637
335.374
-0.668234
335.288
-0.780011
335.274
-0.830898
335.141
-0.82746
335.089
-0.7748
334.901
-0.675772
334.808
-0.53235
334.564
-0.34556
334.433
-0.115422
334.141
0.157804
333.986
0.475372
333.664
0.837173
333.506
1.24515
333.181
1.69882
333.052
2.20027
332.752
2.74797
332.688
3.3441
332.44
3.98531
332.48
4.67357
332.348
5.40361
332.487
6.17613
332.726
6.98572
7.82899
333.096
330.822
-0.209158
330.752
-0.467556
330.752
-0.637475
330.648
-0.734322
330.619
-0.769424
330.473
-0.749894
330.413
-0.68132
330.223
-0.567055
330.134
-0.409657
329.906
-0.210706
329.797
0.0290038
329.542
0.308628
329.429
0.62846
329.168
0.987717
329.074
1.38729
328.833
1.82594
328.785
2.3048
328.591
2.82194
328.622
3.37807
328.492
3.97028
328.63
4.59909
328.611
5.2598
328.84
5.95314
329.154
6.67439
7.42105
329.58
326.316
-0.199549
326.238
-0.441756
326.23
-0.595915
326.116
-0.677427
326.082
-0.697898
325.932
-0.664676
325.875
-0.583728
325.694
-0.458786
325.62
-0.292873
325.416
-0.0880509
325.336
0.154367
325.123
0.432965
325.054
0.747471
324.853
1.0965
324.817
1.48034
324.651
1.89728
324.673
2.34777
324.563
2.82936
324.669
3.34285
324.627
3.88461
324.835
4.45583
324.898
5.05191
325.188
5.67364
325.552
6.31705
6.97996
326.013
321.992
-0.187992
321.907
-0.41272
321.896
-0.551308
321.777
-0.619103
321.744
-0.627561
321.597
-0.584229
321.548
-0.495182
321.382
-0.364465
321.326
-0.195386
321.149
0.00965496
321.099
0.248926
320.928
0.52071
320.9
0.824208
320.752
1.15783
320.767
1.52133
320.663
1.91284
320.74
2.33246
320.699
2.77794
320.859
3.24925
320.886
3.74368
321.146
4.26135
321.27
4.79847
321.603
5.35579
322
5.92981
6.51887
322.483
317.904
-0.174402
317.816
-0.379865
317.805
-0.50273
317.686
-0.557732
317.657
-0.556081
317.518
-0.505232
317.48
-0.41129
317.33
-0.278428
317.294
-0.110112
317.144
0.0910237
317.123
0.323033
316.989
0.583934
316.998
0.872707
316.895
1.18751
316.952
1.52787
316.9
1.89184
317.022
2.27919
317.033
2.68756
317.237
3.1172
317.316
3.56504
317.611
4.03187
317.78
4.51409
318.142
5.01241
318.56
5.5239
6.04697
319.055
314.097
-0.160359
314.007
-0.346929
313.998
-0.455271
313.881
-0.499505
313.858
-0.490316
313.726
-0.435007
313.701
-0.339525
313.566
-0.208076
313.549
-0.044165
313.424
0.149493
313.428
0.370786
313.325
0.617682
313.365
0.888911
313.301
1.18267
313.391
1.49823
313.38
1.83371
313.535
2.18877
313.589
2.56138
313.822
2.95124
313.941
3.35612
314.261
3.77597
314.465
4.20789
314.845
4.65248
315.276
5.10716
5.57063
315.777
310.59
-0.14552
310.5
-0.312718
310.493
-0.406997
310.379
-0.441521
310.363
-0.426389
310.24
-0.368554
310.226
-0.273736
310.106
-0.146046
310.107
0.0110724
310.002
0.194885
310.028
0.403272
309.952
0.634142
310.017
0.886194
309.983
1.15758
310.1
1.44749
310.121
1.75414
310.303
2.077
310.388
2.41407
310.645
2.76533
310.792
3.12832
311.129
3.50354
311.356
3.88824
311.747
4.28297
312.185
4.68556
5.0947
312.685
307.397
-0.130956
307.307
-0.279759
307.303
-0.361325
307.193
-0.387879
307.183
-0.368779
307.067
-0.310587
307.064
-0.218689
306.957
-0.0970212
306.972
0.0510952
306.886
0.223026
306.929
0.416643
306.875
0.629953
306.959
0.861569
306.95
1.10978
307.087
1.37369
307.134
1.65162
307.334
1.94306
307.443
2.24632
307.714
2.56097
307.884
2.88527
308.23
3.21904
308.474
3.5601
308.871
3.90887
309.31
4.26342
4.62264
309.807
304.52
-0.116253
304.43
-0.246779
304.43
-0.316203
304.323
-0.335648
304.318
-0.313694
304.211
-0.256399
304.216
-0.168759
304.121
-0.0544716
304.147
0.0833448
304.076
0.242172
304.134
0.419994
304.098
0.614882
304.197
0.825516
304.207
1.05023
304.359
1.28816
304.425
1.53775
304.639
1.7984
304.765
2.06847
305.047
2.34779
305.231
2.63444
305.583
2.92871
305.837
3.2285
306.236
3.53418
306.672
3.84414
4.15717
307.163
301.957
-0.102109
301.868
-0.215451
301.87
-0.273939
301.766
-0.287608
301.768
-0.264198
301.666
-0.209234
301.68
-0.127276
301.594
-0.0217195
301.63
0.104538
301.571
0.249184
301.64
0.410294
301.618
0.586116
301.73
0.775336
301.755
0.976481
301.918
1.18865
301.998
1.41046
302.221
1.64132
302.36
1.87989
302.648
2.12571
302.842
2.37741
303.196
2.63476
303.456
2.89611
303.853
3.16169
304.285
3.43008
3.70016
304.767
299.7
-0.0881787
299.613
-0.184762
299.618
-0.232895
299.517
-0.241475
299.523
-0.217378
299.428
-0.165547
299.448
-0.0900627
299.37
0.00600379
299.415
0.120043
299.366
0.249938
299.444
0.393947
299.433
0.550452
299.555
0.718262
299.591
0.896004
299.763
1.08285
299.854
1.27754
300.083
1.47948
300.232
1.68739
300.523
1.90098
300.723
2.11881
301.076
2.34094
301.339
2.56581
301.731
2.79361
302.157
3.0231
3.25307
302.629
297.743
-0.0749042
297.656
-0.155807
297.664
-0.194643
297.567
-0.19918
297.577
-0.17542
297.486
-0.127703
297.513
-0.0596178
297.442
0.0261347
297.494
0.127234
297.453
0.241823
297.54
0.368321
297.538
0.505323
297.667
0.651711
297.713
0.806313
297.892
0.968323
297.991
1.13666
298.225
1.31075
298.379
1.48956
298.671
1.67261
298.876
1.85885
299.227
2.04799
299.49
2.23877
299.876
2.43124
300.294
2.62431
2.81675
300.755
296.073
-0.0620474
295.988
-0.12791
295.998
-0.158088
295.904
-0.159227
295.918
-0.136439
295.833
-0.0934478
295.865
-0.0333136
295.8
0.041634
295.859
0.129413
295.826
0.228411
295.919
0.337277
295.926
0.454781
296.061
0.579966
296.115
0.711789
296.299
0.849554
296.405
0.992306
296.643
1.1395
296.802
1.29018
297.095
1.444
297.301
1.59987
297.649
1.75767
297.911
1.91623
298.291
2.07549
298.699
2.23448
2.39183
299.148
294.679
-0.0498679
294.596
-0.101755
294.608
-0.124275
294.518
-0.122941
294.536
-0.101995
294.456
-0.0645223
294.493
-0.0130584
294.435
0.0504742
294.499
0.124425
294.474
0.207473
294.574
0.298478
294.588
0.396442
294.73
0.500534
294.791
0.609918
294.98
0.72397
295.092
0.841911
295.333
0.963259
295.496
1.08723
295.789
1.2134
295.997
1.34094
296.342
1.46951
296.601
1.5981
296.975
1.7265
297.373
1.85381
1.97851
297.81
293.551
-0.0382278
293.469
-0.0769732
293.484
-0.0926103
293.396
-0.089541
293.419
-0.0711207
293.344
-0.0397898
293.386
0.00245954
293.334
0.0541131
293.405
0.113877
293.386
0.180715
293.493
0.253737
293.515
0.332152
293.663
0.415317
293.731
0.502561
293.926
0.593404
294.044
0.687203
294.289
0.783569
294.457
0.881835
294.752
0.981668
294.961
1.08229
295.304
1.1834
295.56
1.28405
295.927
1.38393
296.316
1.48211
1.57683
296.741
292.675
-0.0272587
292.595
-0.0539972
292.613
-0.0637987
292.529
-0.0599741
292.556
-0.0449353
292.485
-0.0205337
292.534
0.0118406
292.488
0.0510292
292.566
0.0961585
292.554
0.146423
292.667
0.201235
292.697
0.259976
292.852
0.322239
292.927
0.38749
293.128
0.455445
293.254
0.525588
293.503
0.597714
293.677
0.671276
293.974
0.746052
294.187
0.821428
294.529
0.897073
294.784
0.972139
295.145
1.04629
295.525
1.11824
1.18643
295.938
292.041
-0.0168669
291.963
-0.0330322
291.984
-0.0378189
291.904
-0.034386
291.936
-0.0232617
291.871
-0.00668971
291.925
0.0155073
291.886
0.0415483
291.97
0.0719391
291.966
0.10513
292.086
0.141798
292.123
0.180526
292.285
0.222095
292.368
0.265155
292.576
0.310566
292.709
0.357018
292.965
0.405383
293.146
0.454379
293.449
0.50486
293.667
0.555554
294.011
0.607096
294.268
0.65841
294.625
0.709299
295
0.758602
0.805387
295.401
291.636
-0.0100985
291.564
-0.0141381
291.587
-0.0181352
291.515
-0.0123257
291.55
-0.00939605
291.494
0.00240137
291.551
0.0103866
291.523
0.0266267
291.61
0.038497
291.616
0.0581437
291.74
0.0731052
291.787
0.0954002
291.952
0.112869
292.045
0.137282
292.256
0.156832
292.4
0.182922
292.659
0.204169
292.851
0.231632
293.158
0.254225
293.386
0.282903
293.735
0.306626
293.999
0.336795
294.359
0.362043
294.742
0.395591
0.422201
295.12
291.468
291.363
291.429
291.326
291.407
291.32
291.424
291.364
291.498
291.472
291.64
291.655
291.863
291.925
292.176
292.289
292.587
292.747
293.094
293.292
293.687
293.925
294.348
294.711
295.179
353.709
-11.749
357.493
-3.69439
362.929
-5.36929
369.489
-6.45124
376.064
-6.4882
382.061
-5.89645
387.219
-5.07126
391.549
-4.23543
395.103
-3.48695
398.016
-2.84717
400.385
-2.31104
402.32
-1.86965
403.899
-1.49512
405.142
-1.18441
406.109
-0.926093
406.854
-0.711321
407.435
-0.548104
407.936
-0.471428
408.492
-0.530747
409.307
-0.792534
410.742
-1.41518
413.564
-2.80404
419.786
-6.20502
435.854
-16.0495
-50.4808
347.59
-16.832
351.708
-7.73782
351.084
-4.67111
348.617
-3.87347
346.131
-3.90186
344.381
-4.02766
343.435
-4.02141
343.16
-3.85912
343.349
-3.59735
343.862
-3.28832
344.595
-2.98163
345.515
-2.69614
346.571
-2.45346
347.727
-2.26187
348.987
-2.13436
350.406
-2.08634
352.047
-2.14808
353.968
-2.35736
356.27
-2.80246
359.136
-3.63174
362.834
-5.08858
367.708
-7.65488
373.893
-12.3689
379.149
-21.2861
-36.4598
344.734
-18.6334
347.375
-10.3311
349.021
-6.2531
349.422
-4.19151
349
-3.39004
348.268
-3.20157
347.561
-3.22535
347.047
-3.26504
346.772
-3.25824
346.736
-3.20024
346.923
-3.11037
347.329
-3.02005
347.921
-2.94817
348.652
-2.91405
349.52
-2.95257
350.556
-3.08167
351.785
-3.34096
353.238
-3.7798
354.976
-4.51508
357.087
-5.71928
359.634
-7.61352
362.544
-10.5442
365.244
-15.0483
365.653
-21.6733
-29.7507
342.004
-18.878
343.284
-11.5704
344.678
-7.59008
345.669
-5.1123
346.115
-3.75771
346.129
-3.13469
345.898
-2.91766
345.586
-2.88827
345.307
-2.92592
345.127
-2.97472
345.092
-3.02543
345.235
-3.0814
345.54
-3.15185
345.97
-3.28151
346.543
-3.47266
347.269
-3.76839
348.159
-4.20091
349.231
-4.82847
350.5
-5.76244
351.973
-7.17219
353.605
-9.22572
355.197
-12.1173
356.213
-16.0449
355.585
-21.0296
-26.3376
339.012
-18.4523
339.541
-12.059
340.463
-8.45766
341.4
-5.9834
342.107
-4.3925
342.512
-3.46626
342.656
-2.99233
342.624
-2.79735
342.508
-2.76053
342.384
-2.80957
342.317
-2.90779
342.359
-3.03806
342.498
-3.22467
342.755
-3.46148
343.116
-3.78646
343.598
-4.21113
344.203
-4.77907
344.939
-5.54446
345.789
-6.59607
346.722
-8.08685
347.654
-10.1405
348.399
-12.8444
348.604
-16.2322
347.776
-20.1818
-24.2419
335.727
-17.7173
335.832
-12.1226
336.369
-8.94027
337.088
-6.63853
337.778
-5.01241
338.315
-3.93281
338.662
-3.27292
338.837
-2.91601
338.892
-2.76657
338.879
-2.7553
338.862
-2.83833
338.876
-3.00056
338.961
-3.23152
339.1
-3.54677
339.324
-3.95339
339.627
-4.46979
340.003
-5.13022
340.457
-5.98151
340.964
-7.08873
341.476
-8.58307
341.912
-10.5603
342.128
-13.0436
341.908
-15.9946
341.041
-19.3018
-22.695
332.244
-16.8361
332.1
-11.9356
332.36
-9.14523
332.854
-7.06989
333.425
-5.51419
333.952
-4.39073
334.371
-3.62605
334.66
-3.14828
334.834
-2.89153
334.923
-2.80258
334.967
-2.84252
335.007
-2.98843
335.056
-3.23162
335.146
-3.57877
335.285
-4.02711
335.45
-4.59161
335.647
-5.30447
335.878
-6.19809
336.118
-7.31586
336.318
-8.76896
336.41
-10.6359
336.289
-12.9064
335.834
-15.5244
334.937
-18.3867
-21.3522
328.665
-15.8893
328.369
-11.5952
328.434
-9.15448
328.738
-7.31113
329.166
-5.87408
329.617
-4.77473
330.026
-3.96925
330.352
-3.41733
330.588
-3.0788
330.743
-2.91633
330.838
-2.90056
330.899
-3.01092
330.952
-3.24073
331.015
-3.58057
331.084
-4.03615
331.154
-4.62114
331.219
-5.34871
331.281
-6.24788
331.322
-7.3445
331.3
-8.73163
331.154
-10.4747
330.812
-12.5494
330.197
-14.8933
329.261
-17.4397
-20.0888
325.076
-14.9186
324.684
-11.1576
324.609
-9.02472
324.76
-7.40007
325.052
-6.09882
325.405
-5.0611
325.759
-4.25951
326.071
-3.67298
326.321
-3.27977
326.504
-3.05852
326.628
-2.98923
326.707
-3.05615
326.756
-3.24879
326.796
-3.56811
326.829
-4.01089
326.826
-4.58131
326.793
-5.29729
326.733
-6.17459
326.63
-7.22868
326.447
-8.53488
326.135
-10.1472
325.642
-12.0422
324.927
-14.1646
323.948
-16.4447
-18.8295
321.545
-13.9456
321.091
-10.6565
320.914
-8.79404
320.944
-7.36861
321.114
-6.20453
321.365
-5.24691
321.645
-4.47663
321.912
-3.8848
322.143
-3.46264
322.323
-3.19894
322.451
-3.08266
322.53
-3.10458
322.578
-3.26013
322.601
-3.54061
322.592
-3.9498
322.538
-4.49314
322.436
-5.17701
322.286
-6.0113
322.078
-7.00689
321.78
-8.22264
321.352
-9.7057
320.759
-11.435
319.962
-13.3537
318.945
-15.4179
-17.5725
318.126
-12.981
317.628
-10.1118
317.376
-8.48792
317.308
-7.24129
317.375
-6.20815
317.528
-5.33734
317.726
-4.61469
317.933
-4.03765
318.123
-3.60506
318.277
-3.31478
318.389
-3.16286
318.458
-3.14443
318.486
-3.25398
318.487
-3.4963
318.452
-3.86644
318.358
-4.36534
318.203
-5.00307
317.988
-5.78203
317.703
-6.70783
317.321
-7.82811
316.813
-9.18358
316.147
-10.7564
315.303
-12.499
314.257
-14.3562
-16.297
314.862
-12.0288
314.332
-9.53578
314.02
-8.12326
313.872
-7.03624
313.85
-6.12461
313.914
-5.341
314.031
-4.67362
314.17
-4.12386
314.306
-3.69583
314.419
-3.39195
314.5
-3.21303
314.541
-3.15914
314.55
-3.23353
314.528
-3.43043
314.46
-3.75286
314.334
-4.20674
314.139
-4.78812
313.875
-5.50244
313.532
-6.35092
313.091
-7.37407
312.526
-8.60649
311.814
-10.0319
310.928
-11.6012
309.859
-13.2796
-15.0253
311.783
-11.0895
311.228
-8.93516
310.868
-7.7112
310.654
-6.76661
310.554
-5.9661
310.538
-5.26626
310.577
-4.65738
310.646
-4.14257
310.721
-3.72821
310.785
-3.42085
310.825
-3.22548
310.835
-3.14551
310.811
-3.18111
310.758
-3.33891
310.666
-3.61821
310.509
-4.01536
310.28
-4.53849
309.977
-5.18315
309.591
-5.95133
309.107
-6.87778
308.502
-7.99035
307.756
-9.27442
306.854
-10.6893
305.775
-12.1883
-13.747
308.916
-10.1611
308.34
-8.3136
307.938
-7.259
307.667
-6.44182
307.5
-5.74223
307.411
-5.12135
307.377
-4.57071
307.377
-4.09452
307.39
-3.7012
307.4
-3.39887
307.394
-3.19429
307.363
-3.09286
307.308
-3.10172
307.225
-3.21978
307.1
-3.44775
306.91
-3.79696
306.653
-4.2568
306.319
-4.83174
305.901
-5.51956
305.385
-6.35086
304.754
-7.34885
303.989
-8.4987
303.069
-9.75802
301.986
-11.0985
-12.4855
306.28
-9.2405
305.684
-7.6726
305.245
-6.77131
304.924
-6.06863
304.696
-5.46052
304.54
-4.91292
304.439
-4.419
304.373
-3.98362
304.325
-3.6154
304.28
-3.32372
304.226
-3.117
304.154
-3.00208
304.059
-2.9827
303.94
-3.06306
303.776
-3.25215
303.561
-3.54569
303.279
-3.94878
302.921
-4.4532
302.479
-5.06286
301.942
-5.80222
301.292
-6.68939
300.513
-7.7097
299.593
-8.82914
298.515
-10.0095
-11.231
303.888
-8.3242
303.272
-7.01249
302.799
-6.25101
302.432
-5.65178
302.149
-5.12666
301.934
-4.64688
301.769
-4.20717
301.64
-3.81264
301.533
-3.47234
301.434
-3.19582
301.331
-2.99127
301.214
-2.86596
301.082
-2.82564
300.921
-2.87593
300.73
-3.02205
300.484
-3.26894
300.179
-3.6124
299.804
-4.05208
299.342
-4.58505
298.788
-5.23602
298.126
-6.01806
297.341
-6.9158
296.417
-7.8946
295.346
-8.93255
-10.0023
301.75
-7.40849
301.113
-6.33279
300.608
-5.69978
300.199
-5.19458
299.865
-4.74493
299.593
-4.32762
299.37
-3.93917
299.183
-3.58503
299.019
-3.27389
298.867
-3.01503
298.717
-2.81705
298.559
-2.68693
298.386
-2.63027
298.194
-2.65427
297.966
-2.764
297.697
-2.96498
297.376
-3.25386
296.979
-3.62756
296.5
-4.08868
295.931
-4.65646
295.26
-5.33797
294.472
-6.11829
293.556
-6.97067
292.501
-7.86619
-8.78977
299.873
-6.48996
299.214
-5.63266
298.677
-5.11842
298.227
-4.69913
297.846
-4.31827
297.521
-3.95852
297.243
-3.61831
297
-3.30332
296.783
-3.022
296.581
-2.78326
296.386
-2.59501
296.187
-2.46439
295.979
-2.39751
295.753
-2.39989
295.499
-2.47927
295.207
-2.63566
294.862
-2.8712
294.448
-3.18655
293.956
-3.57929
293.377
-4.06739
292.701
-4.65391
291.915
-5.32343
291.004
-6.04946
289.962
-6.81693
-7.60612
298.259
-5.56553
297.578
-4.91091
297.008
-4.50701
296.519
-4.16644
296.092
-3.84849
295.717
-3.5418
295.387
-3.24706
295.092
-2.97013
294.824
-2.71918
294.575
-2.5023
294.337
-2.32715
294.1
-2.20021
293.858
-2.12743
293.601
-2.11448
293.319
-2.16489
293.004
-2.2849
292.643
-2.47394
292.215
-2.73224
291.712
-3.06105
291.128
-3.47345
290.451
-3.96878
289.667
-4.5316
288.769
-5.14301
287.746
-5.78359
-6.44339
296.912
-4.63268
296.206
-4.16622
295.603
-3.86487
295.074
-3.59651
294.602
-3.33616
294.179
-3.07869
293.798
-2.82722
293.453
-2.58773
293.138
-2.36808
292.845
-2.1753
292.566
-2.01646
292.294
-1.8973
292.02
-1.8234
291.734
-1.79885
291.43
-1.82957
291.097
-1.91593
290.719
-2.0625
290.281
-2.2702
289.773
-2.53845
289.186
-2.87799
288.511
-3.28609
287.735
-3.74746
286.846
-4.24478
285.839
-4.7694
-5.30901
295.831
-3.68945
295.098
-3.39745
294.461
-3.19024
293.89
-2.98839
293.373
-2.78023
292.901
-2.56972
292.472
-2.35965
292.079
-2.15874
291.719
-1.97152
291.384
-1.80644
291.069
-1.6673
290.763
-1.56095
290.461
-1.49023
290.152
-1.46076
289.827
-1.47348
289.478
-1.5346
289.092
-1.64378
288.647
-1.80318
288.136
-2.01537
287.551
-2.2847
286.881
-2.60799
286.112
-2.97073
285.238
-3.36314
284.251
-3.77376
-4.19758
295.015
-2.73698
294.256
-2.60301
293.58
-2.48104
292.966
-2.33829
292.398
-2.17855
291.878
-2.01289
291.397
-1.84499
290.959
-1.68441
290.555
-1.53313
290.183
-1.3998
289.833
-1.2851
289.501
-1.19677
289.174
-1.13438
288.847
-1.10432
288.508
-1.10651
288.15
-1.14499
287.756
-1.21985
287.31
-1.33845
286.802
-1.4943
286.221
-1.69769
285.558
-1.93651
284.8
-2.20639
283.94
-2.4938
282.971
-2.79867
-3.11277
294.47
-1.78889
293.683
-1.77868
292.961
-1.73497
292.297
-1.63379
291.671
-1.52757
291.099
-1.39898
290.565
-1.28446
290.083
-1.16066
289.636
-1.0581
289.232
-0.954854
288.851
-0.877207
288.497
-0.806155
288.151
-0.763333
287.813
-0.73333
287.464
-0.732509
287.104
-0.750012
286.706
-0.801617
286.266
-0.873192
285.76
-0.982757
285.19
-1.1149
284.535
-1.27677
283.791
-1.45207
282.947
-1.64372
282
-1.84296
-2.05001
294.231
-0.841421
293.384
-0.933382
292.622
-0.911608
291.865
-0.872653
291.192
-0.793737
290.537
-0.735083
289.969
-0.656383
289.424
-0.600807
288.955
-0.532753
288.505
-0.486844
288.113
-0.434957
287.731
-0.403778
287.384
-0.372359
287.032
-0.359833
286.689
-0.352002
286.323
-0.362874
285.938
-0.381341
285.499
-0.422751
285.01
-0.475361
284.447
-0.546728
283.809
-0.626303
283.08
-0.715596
282.255
-0.809171
281.326
-0.907741
-1.01167
294.321
293.437
292.518
291.69
290.895
290.2
289.549
288.984
288.461
288.005
287.581
287.203
286.843
286.503
286.163
285.819
285.446
285.033
284.562
284.022
283.399
282.688
281.882
280.978
)
;

boundaryField
{
    inlet
    {
        type            calculated;
        value           nonuniform List<scalar> 
25
(
-355.481
-354.109
-351.633
-348.29
-344.316
-339.951
-335.39
-330.801
-326.298
-321.975
-317.887
-314.08
-310.572
-307.378
-304.499
-301.935
-299.678
-297.719
-296.048
-294.654
-293.525
-292.649
-292.014
-291.609
-291.403
)
;
    }
    sym
    {
        type            calculated;
        value           uniform 0;
    }
    wedge
    {
        type            calculated;
        value           nonuniform List<scalar> 
25
(
4.89423e-15
9.7836e-15
-2.81499e-34
-9.99515e-15
1.02166e-14
2.09273e-14
-1.07136e-14
0
-1.11818e-14
0
0
-3.01658e-35
2.38528e-14
2.41448e-14
0
2.46379e-14
-1.12466e-33
-5.9744e-34
0
0
-1.23602e-33
2.54205e-14
5.09051e-14
-2.54579e-14
0
)
;
    }
    top
    {
        type            calculated;
        value           uniform 0;
    }
    back
    {
        type            empty;
    }
    front
    {
        type            empty;
    }
    outlet
    {
        type            calculated;
        value           nonuniform List<scalar> 
25
(
486.344
365.142
358.952
352.185
345.687
339.506
333.6
328.008
322.694
317.697
312.985
308.596
304.5
300.731
297.264
294.124
291.292
288.784
286.587
284.709
283.143
281.89
280.941
280.292
279.966
)
;
    }
}


// ************************************************************************* //
