/*--------------------------------*- C++ -*----------------------------------*\
| =========                 |                                                 |
| \\      /  F ield         | OpenFOAM: The Open Source CFD Toolbox           |
|  \\    /   O peration     | Version:  2412                                  |
|   \\  /    A nd           | Website:  www.openfoam.com                      |
|    \\/     M anipulation  |                                                 |
\*---------------------------------------------------------------------------*/
FoamFile
{
    version     2.0;
    format      ascii;
    arch        "LSB;label=32;scalar=64";
    class       volScalarField;
    location    "2";
    object      rho;
}
// * * * * * * * * * * * * * * * * * * * * * * * * * * * * * * * * * * * * * //

dimensions      [1 -3 0 0 0 0 0];

internalField   nonuniform List<scalar> 
1250
(
-1.24761
-5.10607
-8.40274
-11.1035
-13.2468
-14.9297
-16.2499
-17.294
-18.1198
-18.7762
-19.2887
-19.6853
-19.9754
-20.1777
-20.2937
-20.3379
-20.307
-20.2137
-20.051
-19.8299
-19.5387
-19.1867
-18.7574
-18.2506
-17.8035
-1.24322
-5.09784
-8.39297
-11.0938
-13.2386
-14.9238
-16.2472
-17.2948
-18.125
-18.7861
-19.3043
-19.7069
-20.0046
-20.2153
-20.342
-20.3984
-20.3838
-20.3106
-20.1752
-19.99
-19.7497
-19.4691
-19.1455
-18.7942
-18.7112
-1.23561
-5.08381
-8.3761
-11.0771
-13.2245
-14.9141
-16.2433
-17.2976
-18.1356
-18.8053
-19.3332
-19.7467
-20.0569
-20.2816
-20.4247
-20.5003
-20.5086
-20.4624
-20.3598
-20.214
-20.0216
-19.7977
-19.5401
-19.2601
-19.2448
-1.22573
-5.06599
-8.35488
-11.0564
-13.2077
-14.9035
-16.2407
-17.3044
-18.1528
-18.8339
-19.3746
-19.8019
-20.1274
-20.369
-20.5311
-20.6278
-20.6599
-20.6401
-20.5673
-20.4541
-20.2975
-20.1107
-19.8907
-19.6447
-19.6547
-1.21432
-5.04587
-8.33128
-11.0339
-13.1902
-14.8938
-16.2407
-17.3155
-18.1763
-18.8706
-19.4257
-19.8683
-20.2106
-20.47
-20.6516
-20.769
-20.8237
-20.8278
-20.7805
-20.6937
-20.5645
-20.4048
-20.211
-19.9889
-20.0191
-1.20206
-5.02482
-8.30708
-11.0116
-13.1739
-14.8865
-16.2444
-17.3315
-18.2059
-18.9145
-19.4848
-19.9435
-20.3027
-20.5799
-20.7804
-20.9174
-20.9928
-21.0181
-20.9929
-20.9283
-20.8217
-20.6839
-20.5116
-20.3097
-20.3592
-1.18946
-5.00368
-8.2833
-10.9904
-13.1596
-14.8819
-16.2517
-17.352
-18.2404
-18.9637
-19.5496
-20.0242
-20.4002
-20.6945
-20.9128
-21.0681
-21.1624
-21.2068
-21.2012
-21.1561
-21.069
-20.9503
-20.7968
-20.6131
-20.681
-1.17694
-4.98318
-8.26081
-10.9712
-13.1479
-14.8807
-16.2628
-17.3766
-18.2793
-19.0174
-19.6185
-20.1088
-20.5008
-20.8114
-21.0465
-21.2187
-21.3303
-21.392
-21.4039
-21.376
-21.3064
-21.2046
-21.0679
-20.9007
-20.986
-1.16472
-4.96356
-8.23977
-10.954
-13.1385
-14.8821
-16.2767
-17.4039
-18.3208
-19.0734
-19.6895
-20.1947
-20.6021
-20.9281
-21.1789
-21.3666
-21.4941
-21.5715
-21.5993
-21.5871
-21.5331
-21.4465
-21.325
-21.1728
-21.2745
-1.15304
-4.94515
-8.22051
-10.9389
-13.1316
-14.886
-16.2931
-17.4336
-18.3644
-19.1311
-19.7614
-20.2809
-20.7027
-21.0431
-21.3084
-21.5106
-21.6526
-21.7443
-21.7865
-21.7883
-21.7484
-21.6756
-21.5679
-21.4292
-21.5461
-1.14198
-4.92798
-8.20291
-10.9257
-13.1266
-14.8917
-16.311
-17.4644
-18.4085
-19.1886
-19.8325
-20.3655
-20.8009
-21.1546
-21.4334
-21.6488
-21.8042
-21.9089
-21.9642
-21.9788
-21.9517
-21.8912
-21.7958
-21.6693
-21.8006
-1.13167
-4.91222
-8.18711
-10.9145
-13.1235
-14.899
-16.33
-17.4959
-18.4526
-19.2455
-19.9021
-20.4477
-20.8957
-21.2618
-21.553
-21.7805
-21.9479
-22.0645
-22.1316
-22.1577
-22.1421
-22.0928
-22.0085
-21.8929
-22.0376
-1.12212
-4.8978
-8.17293
-10.9049
-13.1218
-14.9073
-16.3494
-17.527
-18.4957
-19.3005
-19.9691
-20.5264
-20.986
-21.3636
-21.666
-21.9046
-22.0831
-22.2104
-22.2882
-22.3246
-22.3193
-22.28
-22.2055
-22.0996
-22.2569
-1.11342
-4.88481
-8.16043
-10.8969
-13.1213
-14.9163
-16.369
-17.5575
-18.5374
-19.3533
-20.0328
-20.6009
-21.0711
-21.4591
-21.7718
-22.0204
-22.2087
-22.3457
-22.433
-22.4787
-22.4826
-22.4522
-22.3866
-22.2893
-22.4582
-1.10555
-4.87318
-8.14944
-10.8902
-13.1218
-14.9256
-16.3881
-17.5868
-18.577
-19.403
-20.0926
-20.6705
-21.1504
-21.5478
-21.8698
-22.1274
-22.3246
-22.4702
-22.566
-22.62
-22.6319
-22.6093
-22.5514
-22.4617
-22.6416
-1.09855
-4.86296
-8.14
-10.8849
-13.123
-14.935
-16.4066
-17.6146
-18.6141
-19.4494
-20.1481
-20.7349
-21.2234
-21.6292
-21.9594
-22.2251
-22.4301
-22.5833
-22.6866
-22.7477
-22.7668
-22.7511
-22.6999
-22.6167
-22.8069
-1.09237
-4.85407
-8.13196
-10.8807
-13.1249
-14.9444
-16.4241
-17.6405
-18.6485
-19.4921
-20.1989
-20.7936
-21.2898
-21.7031
-22.0406
-22.3133
-22.5252
-22.6851
-22.7948
-22.8622
-22.8874
-22.8775
-22.8321
-22.7545
-22.9544
-1.08705
-4.84652
-8.12533
-10.8776
-13.1273
-14.9535
-16.4404
-17.6644
-18.6798
-19.5307
-20.2447
-20.8463
-21.3493
-21.769
-22.1128
-22.3916
-22.6095
-22.775
-22.8903
-22.963
-22.9934
-22.9885
-22.948
-22.8751
-23.0841
-1.08254
-4.84025
-8.11999
-10.8755
-13.1301
-14.9621
-16.4555
-17.6859
-18.7079
-19.5652
-20.2854
-20.8929
-21.4017
-21.827
-22.1762
-22.4602
-22.6831
-22.8534
-22.9734
-23.0505
-23.0852
-23.0844
-23.0477
-22.9787
-23.1962
-1.07883
-4.83522
-8.11591
-10.8742
-13.1331
-14.9702
-16.469
-17.705
-18.7326
-19.5952
-20.3206
-20.9332
-21.4468
-21.8768
-22.2305
-22.5187
-22.7457
-22.9199
-23.0437
-23.1244
-23.1626
-23.165
-23.1315
-23.0655
-23.2911
-1.07588
-4.83135
-8.11294
-10.8737
-13.1361
-14.9774
-16.4808
-17.7215
-18.7536
-19.6207
-20.3504
-20.9671
-21.4847
-21.9184
-22.2757
-22.5674
-22.7976
-22.975
-23.1017
-23.1852
-23.2259
-23.2308
-23.1996
-23.1358
-23.3691
-1.07367
-4.82858
-8.11101
-10.8738
-13.1391
-14.9838
-16.4908
-17.7352
-18.7709
-19.6415
-20.3745
-20.9944
-21.5151
-21.9517
-22.3118
-22.606
-22.8387
-23.0184
-23.1472
-23.2327
-23.2754
-23.2819
-23.2523
-23.1898
-23.4304
-1.07213
-4.82679
-8.10994
-10.8743
-13.1417
-14.989
-16.4988
-17.7458
-18.7842
-19.6574
-20.3929
-21.0151
-21.5381
-21.9768
-22.3388
-22.6349
-22.8694
-23.0506
-23.1809
-23.2676
-23.3114
-23.3189
-23.29
-23.2282
-23.4756
-1.07124
-4.82583
-8.10955
-10.8749
-13.1439
-14.9928
-16.5044
-17.7532
-18.7934
-19.6681
-20.4053
-21.029
-21.5534
-21.9934
-22.3568
-22.6539
-22.8895
-23.0716
-23.2027
-23.2901
-23.3343
-23.3421
-23.3134
-23.2511
-23.5053
-1.0706
-4.82551
-8.10931
-10.8755
-13.1449
-14.995
-16.5071
-17.7572
-18.7978
-19.6739
-20.4114
-21.0363
-21.5609
-22.002
-22.3655
-22.6637
-22.8992
-23.0822
-23.2131
-23.3012
-23.3449
-23.353
-23.3228
-23.26
-23.5185
-16.636
-18.0507
-18.0059
-17.1039
-15.988
-14.9526
-14.0779
-13.3565
-12.7596
-12.257
-11.8253
-11.4472
-11.1107
-10.8089
-10.5377
-10.2936
-10.0768
-9.88756
-9.72495
-9.58894
-9.48051
-9.40184
-9.35708
-9.35493
-7.39423
-16.925
-17.2263
-17.2364
-17.1026
-16.8634
-16.5497
-16.1933
-15.819
-15.4437
-15.0777
-14.7269
-14.3936
-14.0804
-13.7886
-13.5197
-13.2743
-13.0501
-12.8469
-12.6684
-12.5167
-12.3942
-12.3031
-12.246
-12.224
-12.2134
-17.4318
-17.688
-17.5884
-17.3871
-17.1464
-16.875
-16.5778
-16.2628
-15.9392
-15.6151
-15.2965
-14.9884
-14.6931
-14.415
-14.156
-13.9183
-13.7029
-13.5123
-13.3484
-13.2116
-13.1033
-13.0257
-12.9814
-12.9711
-12.9939
-17.8781
-18.1596
-18.0444
-17.8123
-17.5536
-17.2842
-17.0047
-16.7158
-16.4207
-16.1236
-15.8296
-15.541
-15.2629
-14.9984
-14.7506
-14.5213
-14.3127
-14.1272
-13.9675
-13.8339
-13.7268
-13.6481
-13.5997
-13.5836
-13.5982
-18.2972
-18.6071
-18.4992
-18.2578
-17.9883
-17.7154
-17.4414
-17.1653
-16.887
-16.6087
-16.3321
-16.0608
-15.7979
-15.5465
-15.3092
-15.0885
-14.8871
-14.7071
-14.5513
-14.4209
-14.3154
-14.2362
-14.1856
-14.1642
-14.1757
-18.6966
-19.0315
-18.9371
-18.697
-18.424
-18.1491
-17.8773
-17.6079
-17.34
-17.0737
-16.8106
-16.5527
-16.3021
-16.0618
-15.8347
-15.6222
-15.4276
-15.2531
-15.1012
-14.974
-14.8706
-14.7916
-14.7393
-14.717
-14.7254
-19.0775
-19.4334
-19.3531
-19.119
-18.8475
-18.5732
-18.3035
-18.0386
-17.7775
-17.52
-17.2665
-17.0186
-16.778
-16.548
-16.3283
-16.1234
-15.9353
-15.7663
-15.6179
-15.494
-15.3928
-15.3148
-15.2627
-15.2377
-15.2455
-19.4395
-19.813
-19.7459
-19.5195
-19.2522
-18.9807
-18.714
-18.4532
-18.1974
-17.9463
-17.7003
-17.4603
-17.2283
-17.0044
-16.7929
-16.5947
-16.4125
-16.2481
-16.103
-15.9821
-15.8832
-15.8065
-15.7541
-15.7302
-15.7361
-19.7819
-20.1704
-20.1149
-19.8968
-19.635
-19.3678
-19.1051
-18.8483
-18.5972
-18.3516
-18.1116
-17.878
-17.6518
-17.4356
-17.2296
-17.0369
-16.86
-16.6995
-16.5577
-16.4392
-16.3424
-16.2673
-16.2161
-16.1903
-16.1962
-20.1041
-20.5054
-20.4602
-20.25
-19.9945
-19.7323
-19.4741
-19.2219
-18.9754
-18.7345
-18.4995
-18.2713
-18.0511
-17.8392
-17.6389
-17.4516
-17.2787
-17.1217
-16.9826
-16.8662
-16.7717
-16.6982
-16.647
-16.6229
-16.627
-20.4055
-20.8179
-20.7817
-20.579
-20.3298
-20.0732
-19.82
-19.5723
-19.3303
-19.0941
-18.8638
-18.6402
-18.4241
-18.2183
-18.0219
-17.8386
-17.6691
-17.5152
-17.3784
-17.2641
-17.1715
-17.0994
-17.0496
-17.0235
-17.0277
-20.6857
-21.1076
-21.0794
-20.8837
-20.6408
-20.3898
-20.1417
-19.8989
-19.6615
-19.4296
-19.2036
-18.9844
-18.7734
-18.57
-18.3785
-18.1985
-18.0319
-17.8803
-17.7459
-17.6335
-17.5427
-17.4717
-17.4217
-17.3973
-17.3998
-20.9444
-21.3746
-21.3535
-21.1644
-20.9273
-20.6819
-20.439
-20.201
-19.9682
-19.7407
-19.5189
-19.3037
-19.0955
-18.8973
-18.7082
-18.5308
-18.3672
-18.218
-18.0858
-17.9751
-17.8857
-17.8157
-17.7666
-17.74
-17.7424
-21.1814
-21.6187
-21.6041
-21.421
-21.1896
-20.9495
-20.7117
-20.4786
-20.2503
-20.027
-19.8091
-19.5974
-19.3933
-19.1967
-19.0108
-18.8368
-18.6757
-18.529
-18.3988
-18.2896
-18.2012
-18.1317
-18.0819
-18.0567
-18.0574
-21.3965
-21.84
-21.8313
-21.6539
-21.4278
-21.1928
-20.96
-20.7315
-20.5076
-20.2884
-20.0741
-19.8658
-19.6639
-19.4711
-19.2879
-19.1172
-18.9582
-18.8139
-18.6854
-18.5773
-18.4894
-18.42
-18.3707
-18.3432
-18.3436
-21.5897
-22.0386
-22.0353
-21.8632
-21.6422
-21.412
-21.1838
-20.9598
-20.7401
-20.5247
-20.314
-20.1087
-19.9101
-19.7193
-19.5395
-19.3701
-19.2142
-19.0715
-18.9445
-18.8375
-18.7503
-18.6808
-18.6304
-18.604
-18.603
-21.7611
-22.2144
-22.2163
-22.0492
-21.8329
-21.6072
-21.3835
-21.1637
-20.948
-20.7363
-20.5289
-20.3265
-20.1303
-19.9424
-19.7638
-19.5973
-19.4422
-19.3013
-19.1762
-19.0707
-18.9838
-18.9143
-18.8643
-18.8358
-18.8344
-21.9107
-22.3676
-22.3743
-22.212
-22.0002
-21.7788
-21.5592
-21.3434
-21.1315
-20.9232
-20.719
-20.5195
-20.3259
-20.1398
-19.9633
-19.7971
-19.6442
-19.5054
-19.3818
-19.2775
-19.1909
-19.1211
-19.0699
-19.0424
-19.04
-22.0386
-22.4984
-22.5096
-22.352
-22.1444
-21.9271
-21.7113
-21.4993
-21.2909
-21.0859
-20.8847
-20.6879
-20.4967
-20.3127
-20.1373
-19.9735
-19.8216
-19.6842
-19.5619
-19.4583
-19.3716
-19.3013
-19.2503
-19.2212
-19.2186
-22.1452
-22.6069
-22.6224
-22.4693
-22.2659
-22.0523
-21.8402
-21.6317
-21.4266
-21.2247
-21.0263
-20.8321
-20.6432
-20.4611
-20.2879
-20.1245
-19.9745
-19.8381
-19.7165
-19.6131
-19.526
-19.4551
-19.4033
-19.375
-19.372
-22.2305
-22.693
-22.7126
-22.5641
-22.3647
-22.1549
-21.9463
-21.7411
-21.5392
-21.3402
-21.1445
-20.9526
-20.7658
-20.5856
-20.4133
-20.252
-20.1026
-19.9668
-19.8458
-19.7422
-19.6542
-19.5829
-19.5314
-19.5024
-19.4995
-22.2948
-22.7568
-22.7802
-22.6363
-22.4413
-22.2353
-22.0302
-21.8283
-21.6293
-21.433
-21.2396
-21.0498
-20.8649
-20.6861
-20.5155
-20.3546
-20.2061
-20.0707
-19.95
-19.8456
-19.7568
-19.6851
-19.6332
-19.6051
-19.6023
-22.3382
-22.7978
-22.8248
-22.686
-22.4958
-22.294
-22.0926
-21.8937
-21.6975
-21.5036
-21.3123
-21.1243
-20.9407
-20.7633
-20.5934
-20.4337
-20.2852
-20.15
-20.0293
-19.9241
-19.8346
-19.7626
-19.7113
-19.6829
-19.6806
-22.3595
-22.8145
-22.8449
-22.7129
-22.5283
-22.3316
-22.134
-21.9385
-21.7447
-21.5529
-21.3632
-21.1765
-20.9942
-20.8175
-20.6486
-20.4888
-20.3408
-20.2054
-20.0843
-19.9783
-19.8882
-19.8162
-19.7647
-19.7373
-19.7355
-22.3569
-22.8027
-22.8397
-22.7166
-22.5408
-22.35
-22.1569
-21.9643
-21.7727
-21.5824
-21.3938
-21.2079
-21.026
-20.8498
-20.6807
-20.5209
-20.372
-20.2353
-20.1125
-20.0046
-19.9135
-19.8412
-19.7903
-19.7635
-19.7621
)
;

boundaryField
{
    inlet
    {
        type            calculated;
        value           uniform 1.17397;
    }
    sym
    {
        type            calculated;
        value           nonuniform List<scalar> 
25
(
-1.24761
-5.10607
-8.40274
-11.1035
-13.2468
-14.9297
-16.2499
-17.294
-18.1198
-18.7762
-19.2887
-19.6853
-19.9754
-20.1777
-20.2937
-20.3379
-20.307
-20.2137
-20.051
-19.8299
-19.5387
-19.1867
-18.7574
-18.2506
-17.8035
)
;
    }
    wedge
    {
        type            calculated;
        value           nonuniform List<scalar> 
25
(
-16.636
-18.0507
-18.0059
-17.1039
-15.988
-14.9526
-14.0779
-13.3565
-12.7596
-12.257
-11.8253
-11.4472
-11.1107
-10.8089
-10.5377
-10.2936
-10.0768
-9.88756
-9.72495
-9.58894
-9.48051
-9.40184
-9.35708
-9.35493
-7.39423
)
;
    }
    top
    {
        type            calculated;
        value           nonuniform List<scalar> 
50
(
-1.0706
-4.82551
-8.10931
-10.8755
-13.1449
-14.995
-16.5071
-17.7572
-18.7978
-19.6739
-20.4114
-21.0363
-21.5609
-22.002
-22.3655
-22.6637
-22.8992
-23.0822
-23.2131
-23.3012
-23.3449
-23.353
-23.3228
-23.26
-23.5185
-22.3569
-22.8027
-22.8397
-22.7166
-22.5408
-22.35
-22.1569
-21.9643
-21.7727
-21.5824
-21.3938
-21.2079
-21.026
-20.8498
-20.6807
-20.5209
-20.372
-20.2353
-20.1125
-20.0046
-19.9135
-19.8412
-19.7903
-19.7635
-19.7621
)
;
    }
    back
    {
        type            empty;
    }
    front
    {
        type            empty;
    }
    outlet
    {
        type            calculated;
        value           nonuniform List<scalar> 
25
(
-6.62852
-11.7784
-12.3553
-12.924
-13.4718
-13.9956
-14.4936
-14.9649
-15.4091
-15.8261
-16.2156
-16.5779
-16.913
-17.221
-17.502
-17.7564
-17.9841
-18.1855
-18.3608
-18.5102
-18.634
-18.7325
-18.8059
-18.8545
-18.8787
)
;
    }
}


// ************************************************************************* //
