/*--------------------------------*- C++ -*----------------------------------*\
| =========                 |                                                 |
| \\      /  F ield         | OpenFOAM: The Open Source CFD Toolbox           |
|  \\    /   O peration     | Version:  2412                                  |
|   \\  /    A nd           | Website:  www.openfoam.com                      |
|    \\/     M anipulation  |                                                 |
\*---------------------------------------------------------------------------*/
FoamFile
{
    version     2.0;
    format      ascii;
    arch        "LSB;label=32;scalar=64";
    class       volScalarField;
    location    "2";
    object      T;
}
// * * * * * * * * * * * * * * * * * * * * * * * * * * * * * * * * * * * * * //

dimensions      [0 0 0 1 0 0 0];

internalField   nonuniform List<scalar> 
1250
(
335.551
315.132
301.233
293.793
290.642
289.891
290.379
291.37
292.551
293.686
294.767
295.703
296.576
297.322
298.047
298.682
299.34
299.946
300.622
301.284
302.089
302.948
304.049
305.382
305.223
335.368
315.004
301.142
293.723
290.58
289.831
290.314
291.3
292.467
293.588
294.646
295.56
296.397
297.105
297.772
298.341
298.901
299.38
299.871
300.281
300.704
301.008
301.248
301.281
297.699
335.02
314.771
300.986
293.608
290.481
289.737
290.213
291.187
292.335
293.434
294.461
295.34
296.132
296.787
297.386
297.873
298.327
298.679
299.007
299.217
299.392
299.409
299.331
299.075
295.418
334.532
314.449
300.776
293.457
290.355
289.616
290.086
291.046
292.175
293.249
294.246
295.09
295.84
296.448
296.99
297.413
297.791
298.061
298.297
298.414
298.495
298.441
298.329
298.12
294.681
333.934
314.059
300.527
293.283
290.214
289.485
289.951
290.9
292.01
293.064
294.035
294.851
295.568
296.142
296.644
297.027
297.362
297.592
297.788
297.877
297.941
297.896
297.822
297.697
294.422
333.259
313.622
300.251
293.093
290.063
289.347
289.812
290.753
291.85
292.888
293.841
294.638
295.332
295.885
296.363
296.726
297.041
297.256
297.441
297.531
297.605
297.589
297.56
297.501
294.333
332.536
313.157
299.961
292.898
289.912
289.215
289.682
290.619
291.707
292.735
293.675
294.46
295.141
295.682
296.149
296.503
296.81
297.024
297.21
297.312
297.402
297.416
297.423
297.411
294.311
331.793
312.681
299.667
292.702
289.764
289.087
289.56
290.496
291.579
292.602
293.533
294.313
294.987
295.523
295.985
296.338
296.644
296.863
297.056
297.172
297.278
297.316
297.352
297.373
294.315
331.051
312.209
299.379
292.514
289.626
288.971
289.452
290.39
291.47
292.491
293.419
294.196
294.867
295.403
295.863
296.219
296.527
296.754
296.954
297.082
297.203
297.261
297.317
297.361
294.329
330.326
311.751
299.1
292.335
289.496
288.864
289.355
290.296
291.377
292.397
293.324
294.101
294.771
295.31
295.771
296.131
296.444
296.678
296.885
297.025
297.157
297.23
297.302
297.362
294.343
329.631
311.314
298.838
292.169
289.379
288.77
289.271
290.217
291.298
292.32
293.247
294.026
294.698
295.239
295.703
296.067
296.384
296.625
296.839
296.989
297.13
297.216
297.299
297.372
294.356
328.975
310.904
298.593
292.016
289.272
288.685
289.196
290.147
291.232
292.255
293.184
293.966
294.639
295.184
295.651
296.021
296.342
296.589
296.81
296.967
297.115
297.211
297.303
297.385
294.366
328.364
310.524
298.368
291.877
289.176
288.611
289.132
290.089
291.175
292.202
293.132
293.917
294.593
295.141
295.612
295.986
296.312
296.564
296.789
296.954
297.109
297.212
297.312
297.401
294.371
327.802
310.176
298.163
291.751
289.09
288.545
289.076
290.038
291.128
292.157
293.09
293.878
294.557
295.109
295.583
295.962
296.291
296.549
296.779
296.949
297.108
297.218
297.323
297.418
294.372
327.29
309.861
297.979
291.64
289.015
288.488
289.028
289.995
291.087
292.12
293.055
293.846
294.527
295.083
295.56
295.943
296.276
296.538
296.772
296.948
297.111
297.227
297.336
297.435
294.368
326.83
309.579
297.816
291.541
288.95
288.44
288.987
289.958
291.054
292.089
293.027
293.821
294.505
295.065
295.545
295.932
296.268
296.535
296.772
296.952
297.119
297.238
297.352
297.454
294.361
326.422
309.329
297.672
291.456
288.894
288.397
288.951
289.927
291.025
292.063
293.003
293.8
294.487
295.05
295.533
295.924
296.263
296.533
296.773
296.957
297.127
297.251
297.368
297.474
294.35
326.064
309.112
297.548
291.382
288.846
288.363
288.923
289.902
291.003
292.043
292.986
293.786
294.475
295.041
295.527
295.921
296.263
296.537
296.78
296.967
297.14
297.267
297.387
297.495
294.334
325.756
308.926
297.442
291.32
288.806
288.333
288.898
289.881
290.984
292.027
292.971
293.774
294.466
295.035
295.523
295.92
296.265
296.542
296.788
296.978
297.154
297.285
297.407
297.518
294.316
325.495
308.769
297.353
291.269
288.773
288.31
288.88
289.865
290.97
292.015
292.961
293.767
294.461
295.033
295.524
295.924
296.272
296.551
296.8
296.994
297.172
297.306
297.43
297.543
294.296
325.282
308.641
297.282
291.228
288.748
288.292
288.865
289.852
290.959
292.006
292.954
293.761
294.458
295.032
295.526
295.929
296.279
296.562
296.813
297.01
297.192
297.329
297.456
297.572
294.273
325.113
308.541
297.226
291.197
288.729
288.278
288.854
289.844
290.952
292
292.95
293.76
294.458
295.035
295.531
295.937
296.29
296.576
296.831
297.031
297.215
297.355
297.486
297.604
294.25
324.988
308.467
297.186
291.175
288.715
288.269
288.847
289.838
290.946
291.996
292.948
293.759
294.459
295.038
295.536
295.945
296.3
296.59
296.847
297.051
297.24
297.384
297.519
297.642
294.228
324.906
308.419
297.16
291.162
288.707
288.264
288.843
289.835
290.944
291.995
292.947
293.76
294.461
295.042
295.542
295.953
296.311
296.604
296.864
297.072
297.265
297.414
297.555
297.686
294.208
324.869
308.398
297.152
291.156
288.707
288.261
288.844
289.832
290.945
291.992
292.949
293.758
294.465
295.043
295.548
295.955
296.319
296.609
296.877
297.083
297.286
297.436
297.594
297.732
294.208
312.44
292.78
291.074
298.581
308.754
318.388
326.357
332.576
337.309
340.915
343.698
345.902
347.71
349.229
350.533
351.687
352.7
353.586
354.383
355.123
355.835
356.545
357.29
358.141
401.035
312.8
302.555
296.678
292.97
290.833
289.808
289.482
289.553
289.819
290.162
290.517
290.861
291.172
291.442
291.665
291.847
292.03
292.236
292.443
292.651
292.867
293.109
293.404
293.802
294.589
311.485
302.744
298.686
296.05
294.113
292.752
291.881
291.389
291.164
291.111
291.165
291.276
291.426
291.574
291.71
291.824
291.916
291.98
292.013
292.032
292.052
292.079
292.116
292.173
292.215
310.759
302.433
299.065
297.13
295.638
294.426
293.489
292.813
292.359
292.079
291.923
291.868
291.869
291.899
291.937
291.975
292.004
292.015
291.997
291.966
291.942
291.928
291.923
291.911
291.886
310.187
302.092
299.07
297.571
296.449
295.464
294.608
293.904
293.356
292.947
292.661
292.469
292.344
292.264
292.211
292.173
292.133
292.087
292.019
291.938
291.868
291.811
291.761
291.718
291.634
309.662
301.747
298.937
297.718
296.872
296.097
295.367
294.708
294.143
293.68
293.312
293.026
292.809
292.642
292.504
292.394
292.292
292.188
292.073
291.941
291.821
291.723
291.636
291.537
291.426
309.16
301.403
298.748
297.724
297.081
296.481
295.875
295.288
294.748
294.271
293.864
293.525
293.243
292.999
292.808
292.634
292.471
292.311
292.153
291.972
291.805
291.663
291.532
291.414
291.26
308.677
301.067
298.538
297.659
297.168
296.707
296.213
295.702
295.203
294.738
294.32
293.949
293.62
293.346
293.093
292.866
292.652
292.446
292.249
292.024
291.813
291.629
291.467
291.297
291.125
308.214
300.742
298.322
297.558
297.185
296.835
296.434
295.994
295.542
295.1
294.685
294.303
293.958
293.636
293.352
293.086
292.827
292.584
292.35
292.091
291.841
291.617
291.413
291.232
291.026
307.774
300.43
298.107
297.438
297.16
296.899
296.576
296.198
295.791
295.38
294.977
294.593
294.229
293.9
293.581
293.279
292.991
292.717
292.454
292.165
291.877
291.618
291.39
291.162
290.945
307.36
300.135
297.899
297.31
297.11
296.921
296.662
296.338
295.974
295.591
295.205
294.826
294.464
294.105
293.775
293.45
293.141
292.842
292.555
292.239
291.92
291.63
291.367
291.137
290.892
306.973
299.858
297.7
297.179
297.044
296.915
296.71
296.432
296.104
295.749
295.381
295.01
294.639
294.291
293.937
293.6
293.273
292.958
292.648
292.309
291.962
291.646
291.368
291.098
290.848
306.614
299.601
297.513
297.051
296.97
296.891
296.73
296.491
296.195
295.864
295.512
295.151
294.794
294.427
294.077
293.732
293.39
293.059
292.728
292.368
292.001
291.664
291.36
291.096
290.825
306.286
299.365
297.338
296.926
296.891
296.855
296.731
296.524
296.255
295.946
295.611
295.263
294.904
294.555
294.198
293.84
293.486
293.137
292.79
292.415
292.031
291.681
291.372
291.075
290.803
305.989
299.153
297.179
296.809
296.812
296.811
296.718
296.538
296.292
296.001
295.683
295.346
295.005
294.649
294.291
293.918
293.557
293.193
292.834
292.447
292.055
291.695
291.37
291.084
290.797
305.725
298.965
297.035
296.7
296.735
296.763
296.696
296.538
296.311
296.037
295.733
295.409
295.071
294.725
294.356
293.991
293.611
293.241
292.871
292.474
292.074
291.708
291.385
291.074
290.787
305.494
298.803
296.909
296.601
296.663
296.714
296.668
296.529
296.318
296.057
295.764
295.451
295.122
294.776
294.42
294.043
293.67
293.291
292.906
292.496
292.09
291.72
291.384
291.084
290.787
305.297
298.669
296.803
296.515
296.596
296.667
296.638
296.513
296.314
296.064
295.781
295.474
295.151
294.814
294.458
294.096
293.714
293.322
292.927
292.508
292.098
291.726
291.396
291.076
290.778
305.135
298.566
296.72
296.444
296.539
296.623
296.607
296.493
296.303
296.061
295.783
295.482
295.163
294.829
294.483
294.112
293.732
293.334
292.933
292.508
292.099
291.73
291.391
291.08
290.773
305.011
298.495
296.662
296.392
296.494
296.586
296.578
296.47
296.285
296.047
295.774
295.475
295.158
294.827
294.476
294.116
293.728
293.329
292.926
292.501
292.097
291.73
291.395
291.068
290.757
304.926
298.462
296.634
296.361
296.463
296.557
296.551
296.444
296.261
296.025
295.751
295.454
295.137
294.805
294.461
294.092
293.709
293.311
292.906
292.487
292.09
291.727
291.385
291.059
290.74
304.884
298.473
296.644
296.359
296.451
296.538
296.527
296.416
296.23
295.991
295.717
295.418
295.101
294.769
294.421
294.059
293.675
293.28
292.876
292.467
292.079
291.718
291.376
291.037
290.712
304.891
298.538
296.701
296.391
296.46
296.531
296.505
296.386
296.192
295.948
295.67
295.368
295.05
294.717
294.373
294.007
293.629
293.238
292.838
292.438
292.058
291.698
291.348
291.008
290.674
304.965
298.682
296.829
296.469
296.498
296.533
296.486
296.348
296.143
295.891
295.608
295.304
294.983
294.651
294.303
293.944
293.566
293.18
292.786
292.396
292.022
291.661
291.311
290.959
290.617
305.141
298.959
297.046
296.603
296.552
296.536
296.45
296.29
296.07
295.809
295.522
295.214
294.894
294.561
294.22
293.864
293.499
293.127
292.752
292.382
292.018
291.66
291.303
290.944
290.595
)
;

boundaryField
{
    inlet
    {
        type            fixedValue;
        value           uniform 300;
    }
    sym
    {
        type            slip;
    }
    wedge
    {
        type            slip;
    }
    top
    {
        type            slip;
    }
    back
    {
        type            empty;
    }
    front
    {
        type            empty;
    }
    outlet
    {
        type            inletOutlet;
        inletValue      uniform 300;
        value           nonuniform List<scalar> 
25
(
370.266
300
300
300
300
300
300
300
300
300
300
300
300
300
300
300
300
300
300
300
300
300
300
300
300
)
;
    }
}


// ************************************************************************* //
