/*--------------------------------*- C++ -*----------------------------------*\
| =========                 |                                                 |
| \\      /  F ield         | OpenFOAM: The Open Source CFD Toolbox           |
|  \\    /   O peration     | Version:  2412                                  |
|   \\  /    A nd           | Website:  www.openfoam.com                      |
|    \\/     M anipulation  |                                                 |
\*---------------------------------------------------------------------------*/
FoamFile
{
    version     2.0;
    format      ascii;
    arch        "LSB;label=32;scalar=64";
    class       volVectorField;
    location    "2";
    object      U;
}
// * * * * * * * * * * * * * * * * * * * * * * * * * * * * * * * * * * * * * //

dimensions      [0 1 -1 0 0 0 0];

internalField   nonuniform List<vector> 
1250
(
(1969.29 -0.354894 0)
(1584.09 -0.633961 0)
(1344.08 -0.679114 0)
(1179.69 -0.6103 0)
(1060.29 -0.472557 0)
(969.237 -0.298227 0)
(897.408 -0.0941495 0)
(838.838 0.127875 0)
(790.127 0.373385 0)
(748.562 0.636304 0)
(712.697 0.925734 0)
(681.028 1.23938 0)
(652.887 1.59177 0)
(627.301 1.98341 0)
(603.948 2.43357 0)
(582.097 2.95023 0)
(561.59 3.5642 0)
(541.78 4.29628 0)
(522.554 5.19996 0)
(503.251 6.3311 0)
(483.696 7.79858 0)
(463.022 9.74663 0)
(440.692 12.4383 0)
(415.238 16.2827 0)
(387.121 21.9812 0)
(1964.21 -0.981866 0)
(1581.18 -1.72998 0)
(1342.29 -1.83725 0)
(1178.56 -1.62216 0)
(1059.56 -1.22077 0)
(968.809 -0.710555 0)
(897.201 -0.119369 0)
(838.847 0.529427 0)
(790.322 1.23867 0)
(748.967 2.00229 0)
(713.312 2.8355 0)
(681.909 3.74084 0)
(654.059 4.74407 0)
(628.843 5.85618 0)
(605.928 7.11566 0)
(584.66 8.5475 0)
(564.876 10.2113 0)
(546.046 12.1565 0)
(528.13 14.4821 0)
(510.669 17.2888 0)
(493.721 20.7487 0)
(476.922 25.063 0)
(460.445 30.5524 0)
(444.146 37.6186 0)
(434.991 46.7925 0)
(1955.12 -1.45367 0)
(1576.26 -2.5133 0)
(1339.51 -2.62456 0)
(1177.03 -2.24916 0)
(1058.81 -1.59997 0)
(968.637 -0.781393 0)
(897.46 0.156228 0)
(839.481 1.18675 0)
(791.299 2.30312 0)
(750.3 3.50451 0)
(715.015 4.80287 0)
(684.029 6.2081 0)
(656.655 7.74355 0)
(632.01 9.42921 0)
(609.774 11.3025 0)
(589.336 13.3947 0)
(570.572 15.7594 0)
(553.022 18.4455 0)
(536.708 21.5315 0)
(521.27 25.0878 0)
(506.873 29.2215 0)
(493.284 34.0243 0)
(480.775 39.6209 0)
(469.235 46.0968 0)
(464.496 53.4948 0)
(1942.91 -1.79062 0)
(1569.83 -3.03918 0)
(1336.04 -3.10438 0)
(1175.28 -2.56316 0)
(1058.17 -1.68237 0)
(968.775 -0.591592 0)
(898.197 0.644358 0)
(840.725 1.99326 0)
(793.005 3.44427 0)
(752.463 4.99434 0)
(717.65 6.65344 0)
(687.177 8.43013 0)
(660.372 10.3461 0)
(636.378 12.4171 0)
(614.888 14.6746 0)
(595.32 17.1407 0)
(577.569 19.8556 0)
(561.207 22.8467 0)
(546.271 26.1616 0)
(532.426 29.8277 0)
(519.84 33.8934 0)
(508.264 38.3714 0)
(497.909 43.2907 0)
(488.553 48.6287 0)
(485.051 54.3374 0)
(1928.48 -2.00466 0)
(1562.4 -3.34095 0)
(1332.18 -3.32911 0)
(1173.51 -2.62899 0)
(1057.73 -1.54673 0)
(969.273 -0.230636 0)
(899.404 1.24387 0)
(842.532 2.83889 0)
(795.34 4.53968 0)
(755.313 6.3399 0)
(721.01 8.24635 0)
(691.078 10.2636 0)
(664.849 12.4087 0)
(641.49 14.6908 0)
(620.696 17.1329 0)
(601.904 19.7457 0)
(585.009 22.5554 0)
(569.595 25.5708 0)
(555.69 28.8175 0)
(542.958 32.2963 0)
(531.537 36.0265 0)
(521.152 39.9902 0)
(511.953 44.1899 0)
(503.654 48.587 0)
(500.416 53.1381 0)
(1912.68 -2.11322 0)
(1554.41 -3.46017 0)
(1328.19 -3.35826 0)
(1171.84 -2.51949 0)
(1057.53 -1.27602 0)
(970.112 0.211348 0)
(901.022 1.85935 0)
(844.789 3.62574 0)
(798.154 5.49194 0)
(758.649 7.44837 0)
(724.853 9.49814 0)
(695.439 11.6417 0)
(669.741 13.8911 0)
(646.945 16.2493 0)
(626.745 18.732 0)
(608.589 21.3414 0)
(592.361 24.0935 0)
(577.654 26.9865 0)
(564.478 30.0335 0)
(552.493 33.2238 0)
(541.809 36.5655 0)
(532.133 40.0334 0)
(523.578 43.6262 0)
(515.83 47.3105 0)
(512.52 51.0567 0)
(1896.25 -2.13812 0)
(1546.25 -3.44289 0)
(1324.25 -3.25224 0)
(1170.35 -2.30371 0)
(1057.61 -0.943628 0)
(971.265 0.65999 0)
(902.974 2.41885 0)
(847.389 4.28758 0)
(801.302 6.24441 0)
(762.301 8.2772 0)
(728.975 10.3857 0)
(700.027 12.5671 0)
(674.79 14.8291 0)
(652.469 17.1706 0)
(632.749 19.602 0)
(615.088 22.1205 0)
(599.363 24.7358 0)
(585.167 27.4412 0)
(572.495 30.2439 0)
(561.006 33.1298 0)
(550.788 36.1037 0)
(541.542 39.1411 0)
(533.358 42.2424 0)
(525.911 45.3818 0)
(522.403 48.5398 0)
(1879.77 -2.10255 0)
(1538.18 -3.3343 0)
(1320.49 -3.0666 0)
(1169.09 -2.04115 0)
(1057.92 -0.608629 0)
(972.661 1.06019 0)
(905.166 2.8743 0)
(850.206 4.78656 0)
(804.642 6.77286 0)
(766.103 8.81925 0)
(733.198 10.9228 0)
(704.654 13.0786 0)
(679.804 15.2913 0)
(657.869 17.5574 0)
(638.526 19.8837 0)
(621.244 22.2651 0)
(605.887 24.708 0)
(592.055 27.2041 0)
(579.729 29.7579 0)
(568.571 32.3557 0)
(558.65 35.0012 0)
(549.67 37.6736 0)
(541.704 40.375 0)
(534.424 43.0858 0)
(530.672 45.7934 0)
(1863.65 -2.02459 0)
(1530.39 -3.16725 0)
(1316.98 -2.83894 0)
(1168.06 -1.769 0)
(1058.45 -0.304298 0)
(974.249 1.38515 0)
(907.517 3.20787 0)
(853.152 5.11602 0)
(808.066 7.08409 0)
(769.944 9.09705 0)
(737.405 11.1501 0)
(709.202 13.2372 0)
(684.67 15.3608 0)
(663.041 17.5163 0)
(643.989 19.7084 0)
(626.99 21.9314 0)
(611.901 24.1897 0)
(598.326 26.475 0)
(586.236 28.791 0)
(575.298 31.1254 0)
(565.566 33.482 0)
(556.749 35.8433 0)
(548.909 38.2133 0)
(541.717 40.5767 0)
(537.709 42.9252 0)
(1848.22 -1.91726 0)
(1523.03 -2.96348 0)
(1313.77 -2.59235 0)
(1167.25 -1.5074 0)
(1059.15 -0.0455428 0)
(975.957 1.62711 0)
(909.948 3.42047 0)
(856.13 5.28692 0)
(811.481 7.20045 0)
(773.724 9.14551 0)
(741.499 11.1162 0)
(713.581 13.1059 0)
(689.305 15.1157 0)
(667.916 17.1408 0)
(649.085 19.1844 0)
(632.298 21.2409 0)
(617.399 23.3139 0)
(604.005 25.396 0)
(592.073 27.4903 0)
(581.279 29.5863 0)
(571.665 31.6882 0)
(562.947 33.7814 0)
(555.176 35.8708 0)
(548.026 37.9445 0)
(543.768 39.997 0)
(1833.65 -1.79105 0)
(1516.16 -2.73914 0)
(1310.86 -2.3416 0)
(1166.64 -1.26668 0)
(1059.97 0.163675 0)
(977.734 1.78956 0)
(912.396 3.52385 0)
(859.081 5.31999 0)
(814.82 7.15217 0)
(777.383 9.00481 0)
(745.424 10.8714 0)
(717.74 12.7452 0)
(693.668 14.6265 0)
(672.466 16.5105 0)
(653.801 18.3998 0)
(637.167 20.2891 0)
(622.405 22.1816 0)
(609.135 24.0708 0)
(597.307 25.9597 0)
(586.606 27.8396 0)
(577.061 29.7146 0)
(568.398 31.5729 0)
(560.658 33.4196 0)
(553.519 35.2456 0)
(549.023 37.0468 0)
(1820.12 -1.65321 0)
(1509.83 -2.50435 0)
(1308.27 -2.09472 0)
(1166.2 -1.05012 0)
(1060.87 0.32592 0)
(979.526 1.88174 0)
(914.806 3.53425 0)
(861.945 5.2387 0)
(818.029 6.97004 0)
(780.868 8.71302 0)
(749.134 10.4609 0)
(721.641 12.2072 0)
(697.73 13.9515 0)
(676.673 15.6895 0)
(658.131 17.4232 0)
(641.608 19.148 0)
(626.938 20.8667 0)
(613.751 22.5737 0)
(601.988 24.2721 0)
(591.341 25.9546 0)
(581.834 27.6254 0)
(573.196 29.2746 0)
(565.463 30.9075 0)
(558.315 32.5168 0)
(553.598 34.0998 0)
(1807.67 -1.50957 0)
(1504.07 -2.26697 0)
(1305.97 -1.85687 0)
(1165.91 -0.858383 0)
(1061.82 0.445998 0)
(981.295 1.91424 0)
(917.138 3.46822 0)
(864.685 5.06557 0)
(821.072 6.68236 0)
(784.149 8.30401 0)
(752.602 9.92384 0)
(725.264 11.5356 0)
(701.481 13.1387 0)
(680.532 14.7291 0)
(662.079 16.3085 0)
(645.634 17.873 0)
(631.026 19.4251 0)
(617.891 20.9602 0)
(606.166 22.4811 0)
(595.548 23.9818 0)
(586.053 25.4664 0)
(577.42 26.9267 0)
(569.677 28.3679 0)
(562.506 29.784 0)
(557.585 31.1732 0)
(1796.36 -1.36362 0)
(1498.87 -2.03084 0)
(1303.95 -1.62948 0)
(1165.73 -0.688951 0)
(1062.79 0.530906 0)
(983.009 1.89882 0)
(919.359 3.34222 0)
(867.269 4.82161 0)
(823.922 6.31447 0)
(787.202 7.80712 0)
(755.81 9.29307 0)
(728.598 10.7665 0)
(704.913 12.2266 0)
(684.046 13.6699 0)
(665.657 15.0977 0)
(649.264 16.5068 0)
(634.693 17.8992 0)
(621.587 19.2714 0)
(609.878 20.6258 0)
(599.268 21.9575 0)
(589.77 23.2704 0)
(581.126 24.5578 0)
(573.361 25.8244 0)
(566.158 27.0655 0)
(561.053 28.2796 0)
(1786.18 -1.21843 0)
(1494.23 -1.79973 0)
(1302.2 -1.41411 0)
(1165.66 -0.540172 0)
(1063.75 0.586049 0)
(984.641 1.84469 0)
(921.446 3.16927 0)
(869.676 4.52344 0)
(826.56 5.88635 0)
(790.011 7.24535 0)
(758.749 8.59428 0)
(731.636 9.92781 0)
(708.026 11.2451 0)
(687.218 12.5429 0)
(668.871 13.8226 0)
(652.51 15.0811 0)
(637.959 16.3206 0)
(624.865 17.5379 0)
(613.157 18.7353 0)
(602.543 19.9089 0)
(593.029 21.062 0)
(584.364 22.1892 0)
(576.568 23.2948 0)
(569.325 24.375 0)
(564.053 25.4286 0)
(1777.13 -1.07534 0)
(1490.14 -1.57452 0)
(1300.71 -1.20982 0)
(1165.67 -0.408427 0)
(1064.69 0.617937 0)
(986.174 1.76134 0)
(923.382 2.9617 0)
(871.893 4.18608 0)
(828.974 5.41546 0)
(792.571 6.63835 0)
(761.413 7.84899 0)
(734.38 9.0426 0)
(710.825 10.2182 0)
(690.059 11.3732 0)
(671.738 12.5083 0)
(655.394 13.6214 0)
(640.848 14.714 0)
(627.753 15.7835 0)
(616.033 16.8322 0)
(605.402 17.8565 0)
(595.862 18.8597 0)
(587.168 19.8371 0)
(579.334 20.7927 0)
(572.047 21.7233 0)
(566.628 22.6278 0)
(1769.17 -0.936054 0)
(1486.57 -1.35742 0)
(1299.44 -1.01756 0)
(1165.74 -0.292788 0)
(1065.58 0.629724 0)
(987.593 1.65419 0)
(925.152 2.72716 0)
(873.905 3.81927 0)
(831.156 4.91345 0)
(794.874 5.99942 0)
(763.801 7.07194 0)
(736.827 8.12675 0)
(713.313 9.16291 0)
(692.573 10.178 0)
(674.265 11.1728 0)
(657.925 12.1452 0)
(643.374 13.0968 0)
(630.267 14.0253 0)
(618.527 14.9325 0)
(607.873 15.8157 0)
(598.301 16.6775 0)
(589.571 17.514 0)
(581.695 18.3287 0)
(574.359 19.119 0)
(568.81 19.8837 0)
(1762.28 -0.801024 0)
(1483.52 -1.14851 0)
(1298.4 -0.83641 0)
(1165.86 -0.19085 0)
(1066.41 0.62544 0)
(988.889 1.52895 0)
(926.752 2.47298 0)
(875.712 3.43184 0)
(833.104 4.39051 0)
(796.921 5.34 0)
(765.914 6.27561 0)
(738.987 7.19361 0)
(715.499 8.09306 0)
(694.774 8.9719 0)
(676.469 9.83062 0)
(660.124 10.6675 0)
(645.558 11.4837 0)
(632.433 12.2774 0)
(620.665 13.05 0)
(609.979 13.799 0)
(600.369 14.5269 0)
(591.597 15.2302 0)
(583.674 15.9119 0)
(576.286 16.5697 0)
(570.624 17.2025 0)
(1756.42 -0.671323 0)
(1480.94 -0.949568 0)
(1297.55 -0.667807 0)
(1166.02 -0.103265 0)
(1067.18 0.605481 0)
(990.052 1.38714 0)
(928.172 2.20183 0)
(877.306 3.02757 0)
(834.815 3.85147 0)
(798.71 4.66583 0)
(767.755 5.46655 0)
(740.86 6.25041 0)
(717.388 7.01653 0)
(696.668 7.76309 0)
(678.357 8.49042 0)
(662 9.197 0)
(647.414 9.88366 0)
(634.263 10.5488 0)
(622.463 11.1934 0)
(611.742 11.8154 0)
(602.089 12.4166 0)
(593.272 12.9939 0)
(585.298 13.5499 0)
(577.853 14.0825 0)
(572.095 14.5901 0)
(1751.54 -0.547075 0)
(1478.83 -0.760707 0)
(1296.89 -0.511593 0)
(1166.2 -0.0293212 0)
(1067.88 0.571234 0)
(991.079 1.23091 0)
(929.412 1.91662 0)
(878.688 2.61011 0)
(836.29 3.30067 0)
(800.249 3.98189 0)
(769.331 4.65031 0)
(742.458 5.30324 0)
(718.993 5.93982 0)
(698.271 6.5585 0)
(679.949 7.15939 0)
(663.574 7.74116 0)
(648.962 8.30424 0)
(635.78 8.84715 0)
(623.944 9.37055 0)
(613.181 9.87244 0)
(603.482 10.354 0)
(594.615 10.8127 0)
(586.586 11.2501 0)
(579.081 11.6643 0)
(573.241 12.0534 0)
(1747.6 -0.429011 0)
(1477.15 -0.583615 0)
(1296.4 -0.369872 0)
(1166.4 0.0288174 0)
(1068.5 0.520711 0)
(991.961 1.05859 0)
(930.467 1.61608 0)
(879.855 2.17864 0)
(837.531 2.73772 0)
(801.535 3.28823 0)
(770.645 3.82734 0)
(743.783 4.35289 0)
(720.32 4.86409 0)
(699.59 5.35961 0)
(681.251 5.83939 0)
(664.854 6.30219 0)
(650.214 6.74815 0)
(636.999 7.17584 0)
(625.123 7.58543 0)
(614.318 7.97502 0)
(604.569 8.34506 0)
(595.649 8.69301 0)
(587.561 9.01962 0)
(579.99 9.32297 0)
(574.082 9.60046 0)
(1744.55 -0.31717 0)
(1475.88 -0.418912 0)
(1296.07 -0.243612 0)
(1166.61 0.0699635 0)
(1069.03 0.452822 0)
(992.699 0.869231 0)
(931.336 1.29955 0)
(880.811 1.73274 0)
(838.541 2.16254 0)
(802.579 2.58499 0)
(771.705 2.99807 0)
(744.849 3.39999 0)
(721.381 3.79019 0)
(700.641 4.16747 0)
(682.283 4.53171 0)
(665.863 4.88171 0)
(651.193 5.21738 0)
(637.943 5.53725 0)
(626.026 5.84109 0)
(615.175 6.12691 0)
(605.374 6.39444 0)
(596.397 6.641 0)
(588.246 6.86637 0)
(580.604 7.06791 0)
(574.637 7.24234 0)
(1742.36 -0.211924 0)
(1475 -0.270047 0)
(1295.87 -0.136361 0)
(1166.8 0.0892651 0)
(1069.47 0.363403 0)
(993.286 0.658105 0)
(932.019 0.963129 0)
(881.554 1.26821 0)
(839.321 1.57163 0)
(803.38 1.86842 0)
(772.515 2.15926 0)
(745.66 2.44099 0)
(722.185 2.71493 0)
(701.431 2.97851 0)
(683.055 3.23308 0)
(666.611 3.47619 0)
(651.912 3.70888 0)
(638.629 3.92857 0)
(626.673 4.13581 0)
(615.777 4.32763 0)
(605.924 4.50387 0)
(596.888 4.66104 0)
(588.67 4.79789 0)
(580.951 4.91049 0)
(574.928 4.99473 0)
(1740.96 -0.129483 0)
(1474.48 -0.139012 0)
(1295.8 -0.0623695 0)
(1166.99 0.0862415 0)
(1069.81 0.241683 0)
(993.726 0.42515 0)
(932.515 0.598562 0)
(882.091 0.785542 0)
(839.877 0.958691 0)
(803.949 1.13933 0)
(773.084 1.30586 0)
(746.228 1.47658 0)
(722.741 1.63373 0)
(701.977 1.7928 0)
(683.581 1.93876 0)
(667.119 2.08458 0)
(652.391 2.21725 0)
(639.082 2.34757 0)
(627.088 2.46381 0)
(616.153 2.57487 0)
(606.251 2.66944 0)
(597.159 2.75476 0)
(588.872 2.81823 0)
(581.076 2.86559 0)
(574.983 2.87766 0)
(1740.36 -0.0490719 0)
(1474.26 -0.039114 0)
(1295.83 -0.0186405 0)
(1167.13 0.0395604 0)
(1070.05 0.0849541 0)
(993.994 0.151564 0)
(932.835 0.203463 0)
(882.407 0.269807 0)
(840.223 0.322425 0)
(804.277 0.385839 0)
(773.43 0.437009 0)
(746.547 0.496535 0)
(723.071 0.545202 0)
(702.276 0.600389 0)
(683.884 0.645779 0)
(667.386 0.696087 0)
(652.657 0.737289 0)
(639.307 0.781924 0)
(627.307 0.817608 0)
(616.324 0.855104 0)
(606.408 0.882969 0)
(597.255 0.910448 0)
(588.941 0.925874 0)
(581.042 0.937234 0)
(574.906 0.927809 0)
(357.524 58.7246 -3.86043e-15)
(388.168 83.6484 -2.25586e-17)
(446.654 96.1879 -3.17555e-15)
(490.063 103.804 -3.05825e-15)
(523.589 108.515 -2.96442e-15)
(549.857 111.439 -2.89619e-15)
(570.927 113.245 2.81986e-15)
(588.415 114.355 0)
(603.378 115.036 -2.46947e-17)
(616.624 115.456 -2.7367e-15)
(628.648 115.72 2.7112e-15)
(639.837 115.889 -2.5699e-17)
(650.451 116.003 -2.67006e-15)
(660.635 116.085 -2.62712e-17)
(670.531 116.146 -2.6401e-15)
(680.271 116.198 0)
(689.913 116.256 5.21091e-15)
(699.548 116.323 2.58381e-15)
(709.283 116.382 2.60577e-15)
(719.259 116.414 0)
(729.665 116.396 5.18002e-15)
(740.858 116.258 0)
(753.707 115.777 0)
(770.924 114.145 5.23769e-15)
(775.301 107.997 2.65682e-15)
(387.71 96.4029 3.53671e-15)
(363.02 140.863 3.68452e-15)
(363.713 172.021 0)
(367.174 194.259 3.68981e-15)
(374.402 209.759 3.64083e-15)
(383.927 220.411 3.587e-15)
(394.571 227.687 0)
(405.596 232.661 0)
(416.581 236.088 3.44628e-15)
(427.339 238.476 3.40868e-15)
(437.806 240.167 -3.37531e-15)
(448.014 241.386 -5.31379e-17)
(457.966 242.284 -5.37742e-17)
(467.72 242.956 -5.43739e-17)
(477.333 243.469 -5.49414e-17)
(486.879 243.864 0)
(496.477 244.123 -6.5485e-15)
(506.235 244.203 -3.28879e-15)
(516.219 244.091 -6.4957e-15)
(526.513 243.816 -3.26726e-15)
(537.267 243.327 -3.20503e-15)
(548.703 242.47 0)
(561.119 240.779 -3.26485e-15)
(574.514 236.85 -6.49211e-15)
(581.314 226.114 -6.51996e-15)
(426.351 89.9916 -3.4379e-15)
(404.338 119.481 0)
(404.046 141.097 0)
(404.948 157.801 -3.62081e-15)
(408.708 170.624 0)
(414.581 180.425 -3.59218e-15)
(421.835 187.903 0)
(429.924 193.616 0)
(438.479 198 -3.50887e-15)
(447.272 201.385 -3.48209e-15)
(456.188 204.018 0)
(465.141 206.086 -4.1809e-17)
(474.141 207.722 -4.23743e-17)
(483.117 209.029 -4.29192e-17)
(492.122 210.075 3.33663e-15)
(501.175 210.916 0)
(510.333 211.586 -4.43488e-17)
(519.639 212.087 -4.47226e-17)
(529.237 212.285 -4.4935e-17)
(539.163 212.205 3.27651e-15)
(549.485 211.804 -3.31371e-15)
(560.251 210.972 0)
(571.415 209.447 -4.38437e-17)
(582.512 206.767 3.26848e-15)
(588.242 202.748 -3.94563e-17)
(451.639 86.514 3.34548e-15)
(430.529 111.236 0)
(429.43 129.392 0)
(428.662 143.962 3.50854e-15)
(430.194 155.72 -3.55667e-15)
(433.68 165.203 7.07497e-15)
(438.637 172.844 0)
(444.644 179.003 0)
(451.387 183.977 3.47793e-15)
(458.645 188.005 6.95954e-15)
(466.26 191.279 -3.48216e-15)
(474.18 193.95 3.42493e-15)
(482.278 196.138 6.859e-15)
(490.541 197.937 3.39458e-15)
(498.944 199.42 3.42371e-15)
(507.513 200.641 0)
(516.253 201.634 6.76753e-15)
(525.19 202.427 3.35633e-15)
(534.459 202.86 6.73036e-15)
(544.091 202.901 0)
(554.072 202.563 6.68209e-15)
(564.37 201.8 0)
(574.85 200.523 3.30878e-15)
(585.141 198.673 3.34788e-15)
(591.4 196.604 6.65279e-15)
(470.659 82.4969 0)
(450.461 103.98 0)
(449.217 119.52 0)
(447.715 132.222 0)
(448.011 142.831 3.48375e-15)
(450.018 151.731 -3.49444e-15)
(453.443 159.193 0)
(457.981 165.441 0)
(463.379 170.669 0)
(469.433 175.046 -3.47661e-15)
(476.019 178.71 3.46564e-15)
(483.012 181.78 0)
(490.339 184.356 -3.44326e-15)
(497.947 186.518 0)
(505.81 188.334 -3.42355e-15)
(513.91 189.855 0)
(522.24 191.117 -3.40949e-15)
(530.83 192.145 0)
(539.748 192.831 -3.39629e-15)
(549.07 193.049 0)
(558.723 192.864 -3.36783e-15)
(568.641 192.285 0)
(578.696 191.337 0)
(588.702 190.1 -3.34568e-15)
(595.457 188.874 -3.34154e-15)
(485.85 78.2583 0)
(466.457 97.3624 1.68785e-15)
(465.284 110.95 0)
(463.467 122.126 0)
(463.053 131.669 1.7469e-15)
(464.111 139.907 0)
(466.481 147.024 0)
(469.952 153.158 1.76477e-15)
(474.329 158.433 0)
(479.445 162.959 0)
(485.165 166.836 1.76183e-15)
(491.393 170.154 0)
(498.054 172.988 0)
(505.085 175.407 0)
(512.433 177.47 0)
(520.108 179.22 0)
(528.061 180.695 0)
(536.31 181.917 0)
(544.894 182.835 0)
(553.92 183.232 0)
(563.285 183.22 0)
(572.919 182.843 0)
(582.718 182.182 0)
(592.547 181.344 0)
(599.826 180.527 0)
(498.449 73.9122 0)
(479.759 91.1293 -3.3492e-15)
(478.735 103.199 0)
(476.806 113.128 0)
(475.979 121.723 -3.46531e-15)
(476.414 129.296 0)
(478.045 135.99 0)
(480.732 141.892 -3.51546e-15)
(484.326 147.078 0)
(488.688 151.618 0)
(493.713 155.581 -3.52516e-15)
(499.303 159.028 0)
(505.384 162.019 0)
(511.881 164.607 0)
(518.827 166.838 0)
(526.078 168.757 0)
(533.683 170.391 0)
(541.611 171.769 0)
(549.891 172.884 0)
(558.642 173.45 0)
(567.763 173.605 0)
(577.171 173.414 0)
(586.784 172.982 0)
(596.574 172.411 0)
(604.191 171.826 0)
(509.16 69.517 0)
(491.087 85.1533 1.66667e-15)
(490.237 95.9925 0)
(488.296 104.888 0)
(487.228 112.651 1.7235e-15)
(487.25 119.592 0)
(488.354 125.836 0)
(490.453 131.441 1.75323e-15)
(493.441 136.453 0)
(497.21 140.913 0)
(501.659 144.866 1.76408e-15)
(506.712 148.353 0)
(512.29 151.418 0)
(518.394 154.101 0)
(524.877 156.439 0)
(531.795 158.469 1.78203e-15)
(539.075 160.218 0)
(546.722 161.712 0)
(554.73 162.964 0)
(563.234 163.684 0)
(572.138 163.988 0)
(581.362 163.963 1.75684e-15)
(590.845 163.714 0)
(600.524 163.331 0)
(608.526 162.903 0)
(518.416 65.1058 0)
(500.887 79.3649 0)
(500.216 89.1711 0)
(498.313 97.1913 0)
(497.109 104.225 0)
(496.851 110.581 0)
(497.574 116.374 0)
(499.234 121.65 0)
(501.75 126.435 0)
(505.036 130.752 0)
(509.019 134.625 0)
(513.622 138.084 0)
(518.799 141.157 0)
(524.463 143.874 0)
(530.644 146.265 0)
(537.23 148.359 -1.78143e-15)
(544.217 150.181 0)
(551.618 151.751 0)
(559.39 153.087 0)
(567.672 153.936 0)
(576.381 154.37 0)
(585.442 154.485 -1.75826e-15)
(594.799 154.381 0)
(604.463 154.141 0)
(612.683 153.825 0)
(526.502 60.6987 0)
(509.454 73.7234 -1.68287e-15)
(508.956 82.6352 0)
(507.119 89.8996 0)
(505.84 96.2886 0)
(505.393 102.105 0)
(505.841 107.462 0)
(507.163 112.396 0)
(509.309 116.923 0)
(512.215 121.054 0)
(515.808 124.8 0)
(520.037 128.178 0)
(524.842 131.208 0)
(530.215 133.91 0)
(536.043 136.309 0)
(542.355 138.424 1.81196e-15)
(549.102 140.281 0)
(556.27 141.891 0)
(563.841 143.277 0)
(571.918 144.222 0)
(580.453 144.758 0)
(589.377 144.986 1.79007e-15)
(598.64 144.998 0)
(608.188 144.865 0)
(616.71 144.647 0)
(533.615 56.3094 0)
(516.992 68.2039 1.67824e-15)
(516.66 76.3213 0)
(514.898 82.9197 0)
(513.585 88.7328 0)
(513.009 94.0545 0)
(513.253 98.9937 0)
(514.322 103.585 0)
(516.176 107.837 0)
(518.767 111.753 0)
(522.046 115.336 0)
(525.96 118.596 0)
(530.474 121.543 0)
(535.512 124.189 0)
(541.121 126.556 0)
(547.17 128.659 -3.63706e-15)
(553.704 130.513 0)
(560.665 132.133 0)
(568.058 133.536 0)
(575.952 134.544 0)
(584.338 135.157 0)
(593.133 135.474 -3.59652e-15)
(602.289 135.576 0)
(611.824 135.536 0)
(620.497 135.39 0)
(539.894 51.9481 0)
(523.646 62.7906 1.69472e-15)
(523.469 70.1875 0)
(521.788 76.188 0)
(520.465 81.4805 1.75248e-15)
(519.801 86.3455 0)
(519.897 90.8881 0)
(520.766 95.141 1.79278e-15)
(522.39 99.1101 0)
(524.732 102.794 0)
(527.746 106.191 1.81819e-15)
(531.396 109.303 0)
(535.635 112.135 0)
(540.481 114.699 0)
(545.805 116.997 0)
(551.672 119.054 1.82527e-15)
(558.002 120.875 0)
(564.793 122.476 0)
(572.017 123.869 0)
(579.756 124.909 0)
(588.005 125.574 0)
(596.691 125.957 1.80637e-15)
(605.77 126.132 0)
(615.186 126.158 0)
(624.107 126.086 0)
(545.44 47.6228 0)
(529.524 57.4737 8.41597e-18)
(529.489 64.2055 0)
(527.89 69.6608 0)
(526.573 74.4768 9.70561e-18)
(525.85 78.9176 0)
(525.833 83.0836 0)
(526.551 87.0064 1.07538e-17)
(527.992 90.6903 0)
(530.127 94.1315 0)
(532.929 97.3254 -1.81665e-15)
(536.358 100.27 0)
(540.401 102.965 0)
(544.989 105.409 0)
(550.161 107.622 0)
(555.831 109.602 -1.85055e-15)
(561.987 111.362 0)
(568.626 112.917 0)
(575.702 114.28 0)
(583.311 115.323 0)
(591.442 116.018 0)
(600.025 116.446 -1.83211e-15)
(609.012 116.676 0)
(618.418 116.766 0)
(627.449 116.743 0)
(550.332 43.3405 0)
(534.705 52.2475 -1.70377e-15)
(534.801 58.3563 0)
(533.28 63.3069 0)
(531.979 67.6818 -1.75989e-15)
(531.217 71.7257 0)
(531.118 75.5335 0)
(531.715 79.1351 -1.80055e-15)
(533.011 82.5345 0)
(534.985 85.7267 0)
(537.609 88.705 0)
(540.863 91.4643 0)
(544.709 93.9987 0)
(549.158 96.3143 0)
(554.13 98.4064 0)
(559.637 100.285 1.85101e-15)
(565.649 101.966 0)
(572.145 103.456 0)
(579.106 104.769 0)
(586.601 105.792 0)
(594.63 106.494 0)
(603.129 106.951 1.83325e-15)
(612.053 107.222 0)
(621.347 107.351 0)
(630.586 107.382 0)
(554.628 39.1077 0)
(539.251 47.109 0)
(539.466 52.6271 0)
(538.017 57.1047 0)
(536.737 61.0666 0)
(535.95 64.7362 0)
(535.788 68.2014 0)
(536.296 71.4904 0)
(537.477 74.6069 0)
(539.319 77.5454 0)
(541.806 80.2983 0)
(544.91 82.858 0)
(548.62 85.2211 0)
(552.885 87.3801 0)
(557.722 89.3424 0)
(563.076 91.1066 0)
(568.976 92.6898 0)
(575.348 94.0963 0)
(582.215 95.34 0)
(589.618 96.3188 0)
(597.564 97.0107 0)
(605.982 97.4781 0)
(614.829 97.7733 0)
(624.117 97.9444 0)
(633.442 98.0067 0)
(558.374 34.9306 0)
(543.209 42.0574 -8.65939e-16)
(543.529 47.01 0)
(542.148 51.0391 0)
(540.89 54.6104 -8.94314e-16)
(540.088 57.9238 0)
(539.88 61.0593 0)
(540.316 64.0429 -9.15249e-16)
(541.407 66.8781 0)
(543.148 69.5595 0)
(545.519 72.0791 0)
(548.504 74.4302 0)
(552.079 76.6058 0)
(556.231 78.6056 0)
(560.923 80.4198 0)
(566.188 82.0628 0)
(571.949 83.5285 0)
(578.247 84.8394 0)
(585.026 85.9954 0)
(592.355 86.9111 0)
(600.226 87.5741 0)
(608.58 88.0379 0)
(617.38 88.3493 0)
(626.573 88.5351 0)
(636.07 88.6323 0)
(561.607 30.8157 0)
(546.618 37.094 8.68809e-16)
(547.029 41.5004 -8.81926e-16)
(545.706 45.1002 0)
(544.47 48.2981 8.9665e-16)
(543.659 51.2696 0)
(543.416 54.0855 0)
(543.797 56.7695 9.17132e-16)
(544.819 59.3246 0)
(546.477 61.746 0)
(548.759 64.0265 0)
(551.649 66.1598 0)
(555.126 68.1408 0)
(559.17 69.9631 0)
(563.782 71.6277 0)
(568.922 73.1255 0)
(574.626 74.473 0)
(580.83 75.6686 0)
(587.533 76.7247 0)
(594.802 77.5637 0)
(602.612 78.1857 0)
(610.909 78.6327 0)
(619.647 78.9422 0)
(628.842 79.1486 0)
(638.412 79.259 0)
(564.357 26.7697 0)
(549.507 32.222 0)
(549.994 36.0974 8.85349e-16)
(548.719 39.2823 0)
(547.502 42.1199 0)
(546.685 44.76 0)
(546.414 47.2638 0)
(546.752 49.652 0)
(547.719 51.9275 0)
(549.314 54.0862 0)
(551.526 56.1222 0)
(554.342 58.0294 0)
(557.744 59.8036 0)
(561.717 61.4406 0)
(566.243 62.9341 0)
(571.335 64.2867 -9.51896e-16)
(576.939 65.4942 0)
(583.078 66.5692 0)
(589.729 67.5201 0)
(596.951 68.274 0)
(604.712 68.8447 0)
(612.964 69.2648 -9.41284e-16)
(621.672 69.5675 0)
(630.796 69.7691 0)
(640.507 69.8962 0)
(566.649 22.8005 0)
(551.901 27.4467 0)
(552.445 30.8028 0)
(551.207 33.5835 0)
(550.003 36.0698 0)
(549.179 38.3855 0)
(548.886 40.5817 0)
(549.19 42.6761 0)
(550.115 44.6713 0)
(551.661 46.5644 0)
(553.821 48.3503 0)
(556.582 50.0243 0)
(559.929 51.5823 0)
(563.845 53.0207 0)
(568.326 54.3368 0)
(573.336 55.5248 9.53411e-16)
(578.907 56.5923 0)
(584.992 57.5405 0)
(591.605 58.378 0)
(598.795 59.0407 0)
(606.522 59.5517 0)
(614.737 59.9351 9.42084e-16)
(623.405 60.2168 0)
(632.538 60.4177 0)
(642.315 60.5432 0)
(568.506 18.9175 -4.39963e-16)
(553.819 22.7762 -4.45438e-16)
(554.4 25.6221 -4.50526e-16)
(553.182 28.0056 -4.55132e-16)
(551.983 30.1459 -4.59289e-16)
(551.149 32.1405 -4.63018e-16)
(550.837 34.0304 -4.66334e-16)
(551.114 35.8303 -4.69252e-16)
(552.007 37.5428 -4.71785e-16)
(553.519 39.1663 -4.73954e-16)
(555.643 40.6969 -4.75779e-16)
(558.366 42.1311 -4.7728e-16)
(561.675 43.4655 0)
(565.555 44.6978 -4.79398e-16)
(569.99 45.8245 -4.80046e-16)
(574.987 46.8473 0)
(580.503 47.7617 -4.80647e-16)
(586.571 48.5768 -4.80664e-16)
(593.163 49.2926 -4.80493e-16)
(600.336 49.8598 -4.78445e-16)
(608.037 50.3031 -4.76334e-16)
(616.227 50.6423 4.74287e-16)
(624.881 50.898 -4.7233e-16)
(633.97 51.0801 -4.70464e-16)
(643.863 51.2046 -4.68784e-16)
(569.948 15.1331 4.42887e-16)
(555.278 18.2228 8.97391e-16)
(555.868 20.5654 4.53377e-16)
(554.651 22.5547 4.57914e-16)
(553.444 24.3499 9.24775e-16)
(552.596 26.0221 4.65602e-16)
(552.265 27.6032 4.68795e-16)
(552.522 29.1045 4.71578e-16)
(553.394 30.53 9.48874e-16)
(554.884 31.8782 4.75987e-16)
(556.987 33.1478 4.77656e-16)
(559.69 34.3358 9.59e-16)
(562.979 35.4404 0)
(566.841 36.4596 4.80778e-16)
(571.267 37.3931 9.63589e-16)
(576.232 38.2373 0)
(581.753 38.9968 4.81519e-16)
(587.807 39.6703 9.63761e-16)
(594.401 40.2556 4.8083e-16)
(601.566 40.7243 4.78808e-16)
(609.253 41.0948 4.76804e-16)
(617.426 41.3831 1.03508e-18)
(626.059 41.6034 4.7295e-16)
(635.167 41.7674 4.71164e-16)
(645.126 41.8789 9.40017e-16)
(570.994 11.4635 0)
(556.288 13.8045 -4.52369e-16)
(556.853 15.6483 0)
(555.611 17.2418 0)
(554.381 18.6871 -9.32432e-16)
(553.512 20.0299 4.70085e-16)
(553.163 21.2948 0)
(553.406 22.4899 -4.75872e-16)
(554.266 23.6208 -4.77421e-16)
(555.749 24.6866 4.80033e-16)
(557.847 25.6884 -4.8156e-16)
(560.548 26.6232 -4.81968e-16)
(563.838 27.4921 4.83618e-16)
(567.704 28.2922 0)
(572.129 29.0248 -4.83684e-16)
(577.112 29.6887 0)
(582.632 30.2841 4.84368e-16)
(588.7 30.8104 -4.83172e-16)
(595.312 31.2635 0)
(602.481 31.6298 0)
(610.163 31.9232 4.79243e-16)
(618.33 32.1546 -4.76542e-16)
(626.97 32.3353 0)
(636.066 32.4696 4.73721e-16)
(646.12 32.5656 -4.71329e-16)
(571.667 7.93053 0)
(556.857 9.55129 0)
(557.348 10.8941 0)
(556.051 12.0858 0)
(554.777 13.1645 4.70086e-16)
(553.883 14.1663 -4.73488e-16)
(553.515 15.0983 0)
(553.754 15.9776 4.78922e-16)
(554.615 16.8008 0)
(556.107 17.5774 -4.82678e-16)
(558.218 18.3009 4.83989e-16)
(560.937 18.9781 0)
(564.248 19.6027 -4.85602e-16)
(568.135 20.1803 0)
(572.591 20.7063 0)
(577.591 21.1845 0)
(583.15 21.6112 -4.8543e-16)
(589.24 21.9888 0)
(595.885 22.3086 0)
(603.065 22.5714 0)
(610.755 22.7832 -4.7995e-16)
(618.93 22.9534 0)
(627.573 23.0874 0)
(636.708 23.1902 -4.7462e-16)
(646.823 23.2633 0)
(572.019 4.57601 -1.14021e-16)
(556.986 5.50387 0)
(557.351 6.34687 -1.1667e-16)
(555.934 7.10597 0)
(554.612 7.79707 -1.18704e-16)
(553.673 8.42609 0)
(553.306 9.0097 -1.20207e-16)
(553.543 9.5506 -1.20783e-16)
(554.427 10.0575 0)
(555.944 10.5295 -1.21617e-16)
(558.088 10.9705 0)
(560.847 11.3792 -1.22072e-16)
(564.197 11.7575 0)
(568.134 12.1055 -1.22199e-16)
(572.629 12.4234 -1.22152e-16)
(577.689 12.7122 0)
(583.282 12.9699 -1.21875e-16)
(589.424 13.1972 0)
(596.105 13.3879 -1.21295e-16)
(603.313 13.5464 0)
(611.025 13.675 -1.20431e-16)
(619.217 13.7797 0)
(627.897 13.8633 0)
(637.048 13.9275 -1.19127e-16)
(647.245 13.9755 0)
(572.078 1.48138 1.15294e-16)
(556.685 1.77748 0)
(556.764 2.07767 1.17915e-16)
(555.211 2.34413 0)
(553.794 2.59192 1.19846e-16)
(552.844 2.80766 0)
(552.472 3.01173 1.21225e-16)
(552.744 3.19315 1.21734e-16)
(553.666 3.36738 0)
(555.235 3.52359 1.22429e-16)
(557.44 3.67351 0)
(560.257 3.80768 1.2274e-16)
(563.679 3.93537 0)
(567.681 4.04926 1.2272e-16)
(572.257 4.1562 1.22602e-16)
(577.385 4.25037 0)
(583.066 4.33773 1.22179e-16)
(589.282 4.41156 0)
(596.027 4.47692 1.21516e-16)
(603.282 4.53058 0)
(611.027 4.57546 1.20695e-16)
(619.258 4.61209 0)
(627.969 4.64143 0)
(637.173 4.66536 1.19423e-16)
(647.444 4.68335 0)
)
;

boundaryField
{
    inlet
    {
        type            fixedValue;
        value           uniform (664 0 0);
    }
    sym
    {
        type            slip;
    }
    wedge
    {
        type            slip;
    }
    top
    {
        type            slip;
    }
    back
    {
        type            empty;
    }
    front
    {
        type            empty;
    }
    outlet
    {
        type            inletOutlet;
        inletValue      uniform (664 0 0);
        value           nonuniform List<vector> 
25
(
(775.301 107.997 2.65682e-15)
(581.314 226.114 -6.51996e-15)
(588.242 202.748 -3.94563e-17)
(591.4 196.604 6.65279e-15)
(595.457 188.874 -3.34154e-15)
(599.826 180.527 0)
(604.191 171.826 0)
(608.526 162.903 0)
(612.683 153.825 0)
(616.71 144.647 0)
(620.497 135.39 0)
(624.107 126.086 0)
(627.449 116.743 0)
(630.586 107.382 0)
(633.442 98.0067 0)
(636.07 88.6323 0)
(638.412 79.259 0)
(640.507 69.8962 0)
(642.315 60.5432 0)
(643.863 51.2046 -4.68784e-16)
(645.126 41.8789 9.40017e-16)
(646.12 32.5656 -4.71329e-16)
(646.823 23.2633 0)
(647.245 13.9755 0)
(647.444 4.68335 0)
)
;
    }
}


// ************************************************************************* //
