/*--------------------------------*- C++ -*----------------------------------*\
| =========                 |                                                 |
| \\      /  F ield         | OpenFOAM: The Open Source CFD Toolbox           |
|  \\    /   O peration     | Version:  2412                                  |
|   \\  /    A nd           | Website:  www.openfoam.com                      |
|    \\/     M anipulation  |                                                 |
\*---------------------------------------------------------------------------*/
FoamFile
{
    version     2.0;
    format      ascii;
    arch        "LSB;label=32;scalar=64";
    class       surfaceScalarField;
    location    "0.0999";
    object      phi;
}
// * * * * * * * * * * * * * * * * * * * * * * * * * * * * * * * * * * * * * //

dimensions      [1 0 -1 0 0 0 0];

oriented        oriented;

internalField   nonuniform List<scalar> 
29750
(
13.8651
5.9952e-15
13.8651
1.9984e-14
13.8651
4.67404e-14
13.8651
9.55902e-14
13.8651
1.85962e-13
13.8651
3.51275e-13
13.8651
6.52034e-13
13.8651
1.19771e-12
13.8651
2.18814e-12
13.8651
3.98614e-12
13.8651
7.25608e-12
13.8651
1.32064e-11
13.8651
2.40425e-11
13.8651
4.37954e-11
13.8651
7.98313e-11
13.8651
1.45648e-10
13.8651
2.65981e-10
13.8651
4.86249e-10
13.8651
8.89884e-10
13.8651
1.63054e-09
13.8651
2.99127e-09
13.8651
5.49494e-09
13.8651
1.0108e-08
13.8651
1.86215e-08
13.8651
3.43581e-08
13.8651
6.34996e-08
13.8651
1.17559e-07
13.8651
2.18051e-07
13.8651
4.05223e-07
13.8651
7.54638e-07
13.8651
1.40837e-06
13.8651
2.6346e-06
13.8651
4.9405e-06
13.8651
9.28866e-06
13.8651
1.75108e-05
13.865
3.31038e-05
13.865
6.27763e-05
13.8649
0.000119425
13.8646
0.000228026
13.8642
0.000436724
13.8634
0.000839765
13.8617
0.00162056
13.8586
0.00314868
13.8524
0.00614469
13.8403
0.0121016
13.8164
0.023929
13.768
0.0482781
13.669
0.0988826
13.4542
0.214515
0.460548
12.9933
13.8651
1.05471e-14
13.8651
3.53051e-14
13.8651
8.4488e-14
13.8651
1.75748e-13
13.8651
3.42837e-13
13.8651
6.46372e-13
13.8651
1.19571e-12
13.8651
2.19214e-12
13.8651
3.99747e-12
13.8651
7.26963e-12
13.8651
1.32011e-11
13.8651
2.39585e-11
13.8651
4.34792e-11
13.8651
7.89343e-11
13.8651
1.43369e-10
13.8651
2.60565e-10
13.8651
4.73869e-10
13.8651
8.6244e-10
13.8651
1.57081e-09
13.8651
2.86338e-09
13.8651
5.22382e-09
13.8651
9.53864e-09
13.8651
1.74326e-08
13.8651
3.189e-08
13.8651
5.83913e-08
13.8651
1.07024e-07
13.8651
1.96355e-07
13.8651
3.60632e-07
13.8651
6.63039e-07
13.8651
1.22038e-06
13.8651
2.24864e-06
13.8651
4.14805e-06
13.8651
7.66051e-06
13.8651
1.41638e-05
13.8651
2.62181e-05
13.8651
4.85871e-05
13.8651
9.01453e-05
13.865
0.000167446
13.8649
0.00031143
13.8648
0.000579852
13.8645
0.00108089
13.8641
0.00201707
13.8635
0.00377147
13.8626
0.00706669
13.8614
0.0132858
13.8603
0.0250339
13.8612
0.0474454
13.8694
0.0907278
13.9066
0.176923
0.347235
14.0202
13.8651
1.4988e-14
13.8651
4.81837e-14
13.8651
1.12577e-13
13.8651
2.31259e-13
13.8651
4.49529e-13
13.8651
8.46212e-13
13.8651
1.56364e-12
13.8651
2.85882e-12
13.8651
5.19695e-12
13.8651
9.4178e-12
13.8651
1.70348e-11
13.8651
3.079e-11
13.8651
5.56355e-11
13.8651
1.00534e-10
13.8651
1.817e-10
13.8651
3.28513e-10
13.8651
5.9416e-10
13.8651
1.0751e-09
13.8651
1.94611e-09
13.8651
3.52448e-09
13.8651
6.38564e-09
13.8651
1.15751e-08
13.8651
2.09908e-08
13.8651
3.8084e-08
13.8651
6.9125e-08
13.8651
1.25525e-07
13.8651
2.28031e-07
13.8651
4.14425e-07
13.8651
7.53445e-07
13.8651
1.37033e-06
13.8651
2.49302e-06
13.8651
4.53693e-06
13.8651
8.25823e-06
13.8651
1.50351e-05
13.8651
2.73754e-05
13.8651
4.98475e-05
13.8651
9.07581e-05
13.8651
0.000165225
13.8651
0.000300707
13.8652
0.0005471
13.8652
0.000994835
13.8655
0.00180781
13.8659
0.00328263
13.8671
0.00595723
13.8695
0.0108078
13.875
0.0196032
13.8869
0.0355678
13.9131
0.0645856
13.9723
0.117718
0.215123
14.1044
13.8651
1.63203e-14
13.8651
5.29576e-14
13.8651
1.24678e-13
13.8651
2.58016e-13
13.8651
5.01155e-13
13.8651
9.41802e-13
13.8651
1.73495e-12
13.8651
3.16169e-12
13.8651
5.72542e-12
13.8651
1.03294e-11
13.8651
1.8598e-11
13.8651
3.345e-11
13.8651
6.01269e-11
13.8651
1.08057e-10
13.8651
1.94176e-10
13.8651
3.48952e-10
13.8651
6.27132e-10
13.8651
1.12723e-09
13.8651
2.02629e-09
13.8651
3.64291e-09
13.8651
6.54969e-09
13.8651
1.17771e-08
13.8651
2.1177e-08
13.8651
3.80814e-08
13.8651
6.84768e-08
13.8651
1.23131e-07
13.8651
2.21382e-07
13.8651
3.97991e-07
13.8651
7.15333e-07
13.8651
1.28544e-06
13.8651
2.30912e-06
13.8651
4.14654e-06
13.8651
7.44228e-06
13.8651
1.33504e-05
13.8651
2.39316e-05
13.8651
4.28667e-05
13.8651
7.6709e-05
13.8652
0.000137124
13.8652
0.000244804
13.8653
0.000436435
13.8656
0.000776787
13.866
0.00138006
13.8668
0.00244667
13.8685
0.00432786
13.8716
0.00763732
13.8778
0.0134466
13.8898
0.0236214
13.913
0.0413809
13.9585
0.0722842
0.125788
14.0478
13.8651
1.60982e-14
13.8651
5.22915e-14
13.8651
1.24345e-13
13.8651
2.58571e-13
13.8651
5.02376e-13
13.8651
9.41469e-13
13.8651
1.73084e-12
13.8651
3.1436e-12
13.8651
5.66702e-12
13.8651
1.01751e-11
13.8651
1.82258e-11
13.8651
3.26038e-11
13.8651
5.82746e-11
13.8651
1.04106e-10
13.8651
1.85917e-10
13.8651
3.31951e-10
13.8651
5.92561e-10
13.8651
1.05762e-09
13.8651
1.88726e-09
13.8651
3.36713e-09
13.8651
6.00587e-09
13.8651
1.07101e-08
13.8651
1.90927e-08
13.8651
3.40256e-08
13.8651
6.06123e-08
13.8651
1.07929e-07
13.8651
1.9208e-07
13.8651
3.41659e-07
13.8651
6.07312e-07
13.8651
1.07878e-06
13.8651
1.91463e-06
13.8651
3.39516e-06
13.8651
6.01421e-06
13.8651
1.06419e-05
13.8651
1.88059e-05
13.8651
3.31873e-05
13.8652
5.84722e-05
13.8652
0.000102844
13.8653
0.000180527
13.8654
0.000316213
13.8656
0.000552531
13.866
0.000962936
13.8668
0.00167317
13.8682
0.00289781
13.8709
0.00500068
13.8757
0.00859751
13.8846
0.0147227
13.9009
0.0250997
13.9306
0.0425556
0.0716981
13.9847
13.8651
1.53211e-14
13.8651
5.08482e-14
13.8651
1.19349e-13
13.8651
2.44027e-13
13.8651
4.69402e-13
13.8651
8.75078e-13
13.8651
1.60005e-12
13.8651
2.89135e-12
13.8651
5.18796e-12
13.8651
9.26892e-12
13.8651
1.65149e-11
13.8651
2.93767e-11
13.8651
5.21978e-11
13.8651
9.26793e-11
13.8651
1.64454e-10
13.8651
2.91684e-10
13.8651
5.17098e-10
13.8651
9.16351e-10
13.8651
1.6231e-09
13.8651
2.87368e-09
13.8651
5.0851e-09
13.8651
8.9937e-09
13.8651
1.58966e-08
13.8651
2.80805e-08
13.8651
4.95657e-08
13.8651
8.74254e-08
13.8651
1.54068e-07
13.8651
2.7127e-07
13.8651
4.77133e-07
13.8651
8.38329e-07
13.8651
1.47114e-06
13.8651
2.57833e-06
13.8651
4.51218e-06
13.8651
7.88443e-06
13.8651
1.3753e-05
13.8651
2.39458e-05
13.8652
4.16065e-05
13.8652
7.21336e-05
13.8652
0.000124749
13.8653
0.000215174
13.8655
0.000370049
13.8659
0.00063439
13.8664
0.00108373
13.8675
0.00184429
13.8694
0.00312525
13.8727
0.00527221
13.8786
0.00885041
13.8889
0.0147788
13.9069
0.0245193
0.0403969
13.9382
13.8651
1.36557e-14
13.8651
4.37428e-14
13.8651
1.02918e-13
13.8651
2.11831e-13
13.8651
4.09783e-13
13.8651
7.62612e-13
13.8651
1.38967e-12
13.8651
2.50155e-12
13.8651
4.4682e-12
13.8651
7.94365e-12
13.8651
1.40793e-11
13.8651
2.49033e-11
13.8651
4.39853e-11
13.8651
7.76141e-11
13.8651
1.36839e-10
13.8651
2.41094e-10
13.8651
4.24488e-10
13.8651
7.46924e-10
13.8651
1.31336e-09
13.8651
2.30783e-09
13.8651
4.05218e-09
13.8651
7.10963e-09
13.8651
1.24631e-08
13.8651
2.18287e-08
13.8651
3.81939e-08
13.8651
6.67611e-08
13.8651
1.16561e-07
13.8651
2.03269e-07
13.8651
3.54009e-07
13.8651
6.15696e-07
13.8651
1.06918e-06
13.8651
1.85373e-06
13.8651
3.20826e-06
13.8651
5.54228e-06
13.8651
9.55457e-06
13.8651
1.64359e-05
13.8651
2.82056e-05
13.8652
4.82809e-05
13.8652
8.24131e-05
13.8653
0.000140257
13.8654
0.000237919
13.8657
0.000402176
13.8661
0.000677222
13.8668
0.00113568
13.868
0.0018958
13.8701
0.00314946
13.8738
0.00520439
13.88
0.00855208
13.8906
0.0139589
0.0226273
13.9083
13.8651
1.11022e-14
13.8651
3.61933e-14
13.8651
8.58202e-14
13.8651
1.77525e-13
13.8651
3.41283e-13
13.8651
6.32938e-13
13.8651
1.15008e-12
13.8651
2.06191e-12
13.8651
3.66585e-12
13.8651
6.48459e-12
13.8651
1.14304e-11
13.8651
2.01033e-11
13.8651
3.52984e-11
13.8651
6.19049e-11
13.8651
1.08455e-10
13.8651
1.89845e-10
13.8651
3.32018e-10
13.8651
5.80193e-10
13.8651
1.01297e-09
13.8651
1.76704e-09
13.8651
3.07947e-09
13.8651
5.36155e-09
13.8651
9.32477e-09
13.8651
1.62001e-08
13.8651
2.81106e-08
13.8651
4.8718e-08
13.8651
8.43168e-08
13.8651
1.45724e-07
13.8651
2.51463e-07
13.8651
4.33236e-07
13.8651
7.45089e-07
13.8651
1.27908e-06
13.8651
2.19138e-06
13.8651
3.74652e-06
13.8651
6.3906e-06
13.8651
1.08746e-05
13.8651
1.84563e-05
13.8652
3.12376e-05
13.8652
5.27107e-05
13.8652
8.86621e-05
13.8653
0.000148616
13.8655
0.000248199
13.8657
0.000412849
13.8662
0.000683805
13.867
0.0011273
13.8683
0.00184933
13.8705
0.0030175
13.8741
0.00489606
13.8802
0.00789146
0.0126357
13.8902
13.8651
8.32667e-15
13.8651
2.86438e-14
13.8651
6.87228e-14
13.8651
1.41998e-13
13.8651
2.73004e-13
13.8651
5.05374e-13
13.8651
9.14602e-13
13.8651
1.63236e-12
13.8651
2.88836e-12
13.8651
5.08205e-12
13.8651
8.90998e-12
13.8651
1.55839e-11
13.8651
2.72071e-11
13.8651
4.74329e-11
13.8651
8.2591e-11
13.8651
1.43658e-10
13.8651
2.49615e-10
13.8651
4.33295e-10
13.8651
7.51348e-10
13.8651
1.30152e-09
13.8651
2.25202e-09
13.8651
3.89229e-09
13.8651
6.71888e-09
13.8651
1.15837e-08
13.8651
1.99432e-08
13.8651
3.42874e-08
13.8651
5.88578e-08
13.8651
1.00876e-07
13.8651
1.72593e-07
13.8651
2.94774e-07
13.8651
5.02472e-07
13.8651
8.54802e-07
13.8651
1.45102e-06
13.8651
2.45752e-06
13.8651
4.15198e-06
13.8651
6.99682e-06
13.8651
1.17582e-05
13.8651
1.97024e-05
13.8652
3.29103e-05
13.8652
5.4791e-05
13.8653
9.0894e-05
13.8654
0.000150221
13.8655
0.000247262
13.8658
0.000405249
13.8663
0.000661086
13.867
0.0010732
13.8683
0.001733
13.8704
0.00278323
13.8739
0.00444128
0.00704306
13.8795
13.8651
7.32747e-15
13.8651
2.33147e-14
13.8651
5.37348e-14
13.8651
1.0969e-13
13.8651
2.11053e-13
13.8651
3.89688e-13
13.8651
7.01883e-13
13.8651
1.24734e-12
13.8651
2.19735e-12
13.8651
3.84837e-12
13.8651
6.71363e-12
13.8651
1.1681e-11
13.8651
2.02793e-11
13.8651
3.5151e-11
13.8651
6.08447e-11
13.8651
1.05191e-10
13.8651
1.81638e-10
13.8651
3.1329e-10
13.8651
5.3972e-10
13.8651
9.28717e-10
13.8651
1.59606e-09
13.8651
2.73946e-09
13.8651
4.69549e-09
13.8651
8.03701e-09
13.8651
1.37356e-08
13.8651
2.34386e-08
13.8651
3.99289e-08
13.8651
6.79045e-08
13.8651
1.15266e-07
13.8651
1.95288e-07
13.8651
3.3018e-07
13.8651
5.5706e-07
13.8651
9.37677e-07
13.8651
1.5746e-06
13.8651
2.63738e-06
13.8651
4.40573e-06
13.8651
7.33866e-06
13.8651
1.21876e-05
13.8651
2.01754e-05
13.8652
3.32865e-05
13.8652
5.47203e-05
13.8653
8.9617e-05
13.8654
0.000146175
13.8655
0.000237414
13.8658
0.000383836
13.8663
0.000617619
13.867
0.000988686
13.8682
0.00157442
13.8702
0.00249183
0.00392079
13.8733
13.8651
5.55112e-15
13.8651
1.76525e-14
13.8651
4.00791e-14
13.8651
8.17124e-14
13.8651
1.56652e-13
13.8651
2.89657e-13
13.8651
5.21805e-13
13.8651
9.23928e-13
13.8651
1.62126e-12
13.8651
2.8284e-12
13.8651
4.91185e-12
13.8651
8.50287e-12
13.8651
1.46858e-11
13.8651
2.53187e-11
13.8651
4.35778e-11
13.8651
7.49022e-11
13.8651
1.2857e-10
13.8651
2.20415e-10
13.8651
3.77372e-10
13.8651
6.45266e-10
13.8651
1.10181e-09
13.8651
1.87879e-09
13.8651
3.19889e-09
13.8651
5.43838e-09
13.8651
9.23066e-09
13.8651
1.56415e-08
13.8651
2.64577e-08
13.8651
4.46718e-08
13.8651
7.52772e-08
13.8651
1.26596e-07
13.8651
2.12442e-07
13.8651
3.5571e-07
13.8651
5.94175e-07
13.8651
9.90068e-07
13.8651
1.64539e-06
13.8651
2.72703e-06
13.8651
4.50653e-06
13.8651
7.4247e-06
13.8651
1.21929e-05
13.8652
1.99561e-05
13.8652
3.25446e-05
13.8652
5.28758e-05
13.8653
8.55652e-05
13.8654
0.000137888
13.8655
0.000221211
13.8658
0.000353253
13.8662
0.000561313
13.8669
0.000887461
13.868
0.00139493
0.00218057
13.8697
13.8651
3.21965e-15
13.8651
1.15463e-14
13.8651
2.85327e-14
13.8651
5.91749e-14
13.8651
1.13909e-13
13.8651
2.09388e-13
13.8651
3.75922e-13
13.8651
6.65468e-13
13.8651
1.1654e-12
13.8651
2.02638e-12
13.8651
3.50509e-12
13.8651
6.04028e-12
13.8651
1.03799e-11
13.8651
1.7801e-11
13.8651
3.04741e-11
13.8651
5.2091e-11
13.8651
8.89107e-11
13.8651
1.51546e-10
13.8651
2.57939e-10
13.8651
4.38414e-10
13.8651
7.44065e-10
13.8651
1.26095e-09
13.8651
2.13353e-09
13.8651
3.6042e-09
13.8651
6.0782e-09
13.8651
1.02327e-08
13.8651
1.71946e-08
13.8651
2.88383e-08
13.8651
4.82686e-08
13.8651
8.06226e-08
13.8651
1.34363e-07
13.8651
2.23416e-07
13.8651
3.70585e-07
13.8651
6.13156e-07
13.8651
1.01179e-06
13.8651
1.665e-06
13.8651
2.73187e-06
13.8651
4.46874e-06
13.8651
7.28628e-06
13.8651
1.18405e-05
13.8652
1.9173e-05
13.8652
3.09318e-05
13.8652
4.97069e-05
13.8653
7.95534e-05
13.8654
0.000126768
13.8655
0.000201106
13.8658
0.000317513
13.8661
0.000498906
13.8668
0.000779567
0.00121182
13.8677
13.8651
2.33147e-15
13.8651
8.32667e-15
13.8651
2.02061e-14
13.8651
4.19664e-14
13.8651
8.07132e-14
13.8651
1.4877e-13
13.8651
2.6712e-13
13.8651
4.70957e-13
13.8651
8.21343e-13
13.8651
1.42164e-12
13.8651
2.44771e-12
13.8651
4.19886e-12
13.8651
7.18181e-12
13.8651
1.2256e-11
13.8651
2.0874e-11
13.8651
3.54939e-11
13.8651
6.02574e-11
13.8651
1.02147e-10
13.8651
1.72892e-10
13.8651
2.92204e-10
13.8651
4.93086e-10
13.8651
8.30782e-10
13.8651
1.39744e-09
13.8651
2.3467e-09
13.8651
3.93378e-09
13.8651
6.58234e-09
13.8651
1.0993e-08
13.8651
1.83232e-08
13.8651
3.04775e-08
13.8651
5.05864e-08
13.8651
8.37725e-08
13.8651
1.38408e-07
13.8651
2.28111e-07
13.8651
3.75e-07
13.8651
6.14818e-07
13.8651
1.00521e-06
13.8651
1.63868e-06
13.8651
2.66327e-06
13.8651
4.31462e-06
13.8651
6.96674e-06
13.8651
1.12097e-05
13.8652
1.79716e-05
13.8652
2.8702e-05
13.8652
4.56578e-05
13.8653
7.23244e-05
13.8653
0.000114074
13.8655
0.000179096
13.8657
0.000279895
13.8661
0.000435099
0.000673056
13.8666
13.8651
2.88658e-15
13.8651
7.10543e-15
13.8651
1.57652e-14
13.8651
3.09752e-14
13.8651
5.78426e-14
13.8651
1.05027e-13
13.8651
1.8674e-13
13.8651
3.27516e-13
13.8651
5.68656e-13
13.8651
9.79772e-13
13.8651
1.67921e-12
13.8651
2.86693e-12
13.8651
4.88021e-12
13.8651
8.28781e-12
13.8651
1.40464e-11
13.8651
2.37638e-11
13.8651
4.01372e-11
13.8651
6.76871e-11
13.8651
1.13965e-10
13.8651
1.91587e-10
13.8651
3.21556e-10
13.8651
5.38824e-10
13.8651
9.01352e-10
13.8651
1.5052e-09
13.8651
2.50901e-09
13.8651
4.17453e-09
13.8651
6.93199e-09
13.8651
1.14879e-08
13.8651
1.89977e-08
13.8651
3.13489e-08
13.8651
5.16115e-08
13.8651
8.4772e-08
13.8651
1.38893e-07
13.8651
2.26986e-07
13.8651
3.69957e-07
13.8651
6.01315e-07
13.8651
9.74508e-07
13.8651
1.57458e-06
13.8651
2.5361e-06
13.8651
4.07145e-06
13.8651
6.51386e-06
13.8651
1.03845e-05
13.8652
1.64934e-05
13.8652
2.60952e-05
13.8652
4.1118e-05
13.8653
6.45206e-05
13.8653
0.000100795
13.8655
0.000156772
13.8656
0.000242594
0.00037365
13.8659
13.8651
2.22045e-16
13.8651
3.21965e-15
13.8651
9.65894e-15
13.8651
2.08722e-14
13.8651
3.9968e-14
13.8651
7.21645e-14
13.8651
1.27787e-13
13.8651
2.22822e-13
13.8651
3.85691e-13
13.8651
6.6247e-13
13.8651
1.13121e-12
13.8651
1.92368e-12
13.8651
3.26139e-12
13.8651
5.51403e-12
13.8651
9.30256e-12
13.8651
1.56654e-11
13.8651
2.63315e-11
13.8651
4.41873e-11
13.8651
7.403e-11
13.8651
1.23829e-10
13.8651
2.06778e-10
13.8651
3.44717e-10
13.8651
5.73665e-10
13.8651
9.52994e-10
13.8651
1.5802e-09
13.8651
2.61525e-09
13.8651
4.31965e-09
13.8651
7.1204e-09
13.8651
1.17119e-08
13.8651
1.92222e-08
13.8651
3.14758e-08
13.8651
5.14195e-08
13.8651
8.37914e-08
13.8651
1.36197e-07
13.8651
2.20785e-07
13.8651
3.56928e-07
13.8651
5.75355e-07
13.8651
9.24701e-07
13.8651
1.48153e-06
13.8651
2.36607e-06
13.8651
3.76599e-06
13.8651
5.97344e-06
13.8651
9.44034e-06
13.8651
1.48635e-05
13.8652
2.33096e-05
13.8652
3.64084e-05
13.8652
5.66253e-05
13.8653
8.76971e-05
13.8654
0.000135152
0.000207362
13.8656
13.8651
1.55431e-15
13.8651
3.77476e-15
13.8651
7.10543e-15
13.8651
1.36557e-14
13.8651
2.56462e-14
13.8651
4.66294e-14
13.8651
8.43769e-14
13.8651
1.49214e-13
13.8651
2.57905e-13
13.8651
4.41425e-13
13.8651
7.51621e-13
13.8651
1.27309e-12
13.8651
2.14817e-12
13.8651
3.617e-12
13.8651
6.07625e-12
13.8651
1.01871e-11
13.8651
1.70465e-11
13.8651
2.84749e-11
13.8651
4.7483e-11
13.8651
7.90488e-11
13.8651
1.31371e-10
13.8651
2.17951e-10
13.8651
3.60944e-10
13.8651
5.96679e-10
13.8651
9.8451e-10
13.8651
1.62132e-09
13.8651
2.66467e-09
13.8651
4.37048e-09
13.8651
7.15285e-09
13.8651
1.16809e-08
13.8651
1.90315e-08
13.8651
3.09346e-08
13.8651
5.01582e-08
13.8651
8.11222e-08
13.8651
1.30853e-07
13.8651
2.10497e-07
13.8651
3.37651e-07
13.8651
5.4003e-07
13.8651
8.61066e-07
13.8651
1.36863e-06
13.8651
2.16822e-06
13.8651
3.42334e-06
13.8651
5.38585e-06
13.8651
8.44258e-06
13.8651
1.31834e-05
13.8652
2.05063e-05
13.8652
3.17653e-05
13.8652
4.90063e-05
13.8653
7.52475e-05
0.000115049
13.8654
13.8651
8.88178e-16
13.8651
2.22045e-15
13.8651
4.44089e-15
13.8651
8.43769e-15
13.8651
1.64313e-14
13.8651
3.11973e-14
13.8651
5.62883e-14
13.8651
9.90319e-14
13.8651
1.70863e-13
13.8651
2.90545e-13
13.8651
4.92384e-13
13.8651
8.31335e-13
13.8651
1.39833e-12
13.8651
2.34368e-12
13.8651
3.92142e-12
13.8651
6.54643e-12
13.8651
1.09076e-11
13.8651
1.81406e-11
13.8651
3.01166e-11
13.8651
4.99126e-11
13.8651
8.25753e-11
13.8651
1.36374e-10
13.8651
2.24816e-10
13.8651
3.69939e-10
13.8651
6.07578e-10
13.8651
9.95948e-10
13.8651
1.62926e-09
13.8651
2.65983e-09
13.8651
4.3329e-09
13.8651
7.04289e-09
13.8651
1.14215e-08
13.8651
1.84789e-08
13.8651
2.98237e-08
13.8651
4.80128e-08
13.8651
7.7092e-08
13.8651
1.23451e-07
13.8651
1.97131e-07
13.8651
3.13882e-07
13.8651
4.98274e-07
13.8651
7.8855e-07
13.8651
1.24391e-06
13.8651
1.95574e-06
13.8651
3.06431e-06
13.8651
4.78424e-06
13.8651
7.4417e-06
13.8651
1.15317e-05
13.8652
1.77983e-05
13.8652
2.73626e-05
13.8652
4.18743e-05
6.38204e-05
13.8653
13.8651
-1.54559e-31
13.8651
5.55112e-16
13.8651
2.66454e-15
13.8651
6.77236e-15
13.8651
1.29896e-14
13.8651
2.22045e-14
13.8651
3.75255e-14
13.8651
6.37268e-14
13.8651
1.09024e-13
13.8651
1.87739e-13
13.8651
3.18301e-13
13.8651
5.35572e-13
13.8651
8.98059e-13
13.8651
1.50202e-12
13.8651
2.503e-12
13.8651
4.16212e-12
13.8651
6.90759e-12
13.8651
1.14413e-11
13.8651
1.89153e-11
13.8651
3.12156e-11
13.8651
5.14222e-11
13.8651
8.45617e-11
13.8651
1.38802e-10
13.8651
2.27415e-10
13.8651
3.71883e-10
13.8651
6.06949e-10
13.8651
9.88588e-10
13.8651
1.60689e-09
13.8651
2.60627e-09
13.8651
4.21798e-09
13.8651
6.81073e-09
13.8651
1.09716e-08
13.8651
1.76315e-08
13.8651
2.82635e-08
13.8651
4.51892e-08
13.8651
7.20595e-08
13.8651
1.14589e-07
13.8651
1.81705e-07
13.8651
2.8728e-07
13.8651
4.52824e-07
13.8651
7.11514e-07
13.8651
1.11438e-06
13.8651
1.73949e-06
13.8651
2.70588e-06
13.8651
4.19393e-06
13.8651
6.47655e-06
13.8651
9.96284e-06
13.8652
1.52677e-05
13.8652
2.32937e-05
3.5399e-05
13.8652
13.8651
4.44089e-16
13.8651
1.11022e-15
13.8651
2.44249e-15
13.8651
4.55191e-15
13.8651
8.10463e-15
13.8651
1.43219e-14
13.8651
2.42029e-14
13.8651
4.13003e-14
13.8651
7.11653e-14
13.8651
1.20792e-13
13.8651
2.02949e-13
13.8651
3.41838e-13
13.8651
5.72653e-13
13.8651
9.53126e-13
13.8651
1.58262e-12
13.8651
2.62257e-12
13.8651
4.3342e-12
13.8651
7.14995e-12
13.8651
1.17737e-11
13.8651
1.93536e-11
13.8651
3.17557e-11
13.8651
5.20105e-11
13.8651
8.50262e-11
13.8651
1.38743e-10
13.8651
2.25959e-10
13.8651
3.67285e-10
13.8651
5.9579e-10
13.8651
9.64479e-10
13.8651
1.55797e-09
13.8651
2.5112e-09
13.8651
4.03844e-09
13.8651
6.47952e-09
13.8651
1.0371e-08
13.8651
1.65591e-08
13.8651
2.63715e-08
13.8651
4.18888e-08
13.8651
6.63554e-08
13.8651
1.04821e-07
13.8651
1.65104e-07
13.8651
2.59287e-07
13.8651
4.05941e-07
13.8651
6.33543e-07
13.8651
9.8551e-07
13.8651
1.52787e-06
13.8651
2.36036e-06
13.8651
3.63351e-06
13.8651
5.57238e-06
13.8651
8.51447e-06
13.8651
1.29541e-05
1.96337e-05
13.8652
13.8651
5.55112e-16
13.8651
1.11022e-15
13.8651
2.22045e-15
13.8651
3.21965e-15
13.8651
5.44009e-15
13.8651
9.32587e-15
13.8651
1.63203e-14
13.8651
2.80886e-14
13.8651
4.61853e-14
13.8651
7.66054e-14
13.8651
1.29674e-13
13.8651
2.16605e-13
13.8651
3.60045e-13
13.8651
5.98077e-13
13.8651
9.91096e-13
13.8651
1.63669e-12
13.8651
2.69629e-12
13.8651
4.43257e-12
13.8651
7.27252e-12
13.8651
1.19101e-11
13.8651
1.94681e-11
13.8651
3.17639e-11
13.8651
5.17284e-11
13.8651
8.40847e-11
13.8651
1.36417e-10
13.8651
2.2089e-10
13.8651
3.56945e-10
13.8651
5.75624e-10
13.8651
9.26292e-10
13.8651
1.48737e-09
13.8651
2.38292e-09
13.8651
3.80896e-09
13.8651
6.07387e-09
13.8651
9.66209e-09
13.8651
1.53313e-08
13.8651
2.42642e-08
13.8651
3.82993e-08
13.8651
6.02875e-08
13.8651
9.46301e-08
13.8651
1.48105e-07
13.8651
2.311e-07
13.8651
3.59492e-07
13.8651
5.57425e-07
13.8651
8.61511e-07
13.8651
1.32691e-06
13.8651
2.03668e-06
13.8651
3.11469e-06
13.8651
4.74632e-06
13.8651
7.20254e-06
1.08897e-05
13.8651
13.8651
-4.44089e-16
13.8651
3.43465e-32
13.8651
1.11022e-16
13.8651
9.99201e-16
13.8651
2.55351e-15
13.8651
4.996e-15
13.8651
8.99281e-15
13.8651
1.60982e-14
13.8651
2.84217e-14
13.8651
4.86278e-14
13.8651
8.11573e-14
13.8651
1.35225e-13
13.8651
2.25153e-13
13.8651
3.73146e-13
13.8651
6.15841e-13
13.8651
1.01386e-12
13.8651
1.66522e-12
13.8651
2.72837e-12
13.8651
4.46043e-12
13.8651
7.27807e-12
13.8651
1.18544e-11
13.8651
1.92734e-11
13.8651
3.12753e-11
13.8651
5.06555e-11
13.8651
8.18854e-11
13.8651
1.32112e-10
13.8651
2.12719e-10
13.8651
3.41808e-10
13.8651
5.4807e-10
13.8651
8.76918e-10
13.8651
1.39995e-09
13.8651
2.22988e-09
13.8651
3.54344e-09
13.8651
5.61733e-09
13.8651
8.88285e-09
13.8651
1.40111e-08
13.8651
2.2042e-08
13.8651
3.45829e-08
13.8651
5.4108e-08
13.8651
8.44162e-08
13.8651
1.31313e-07
13.8651
2.03648e-07
13.8651
3.14841e-07
13.8651
4.85194e-07
13.8651
7.45221e-07
13.8651
1.14076e-06
13.8651
1.74003e-06
13.8651
2.64493e-06
13.8651
4.00412e-06
6.04021e-06
13.8651
13.8651
8.88178e-16
13.8651
1.33227e-15
13.8651
9.99201e-16
13.8651
8.88178e-16
13.8651
1.44329e-15
13.8651
3.33067e-15
13.8651
6.21725e-15
13.8651
1.08802e-14
13.8651
1.86517e-14
13.8651
3.13083e-14
13.8651
5.21805e-14
13.8651
8.57092e-14
13.8651
1.40998e-13
13.8651
2.3237e-13
13.8651
3.80806e-13
13.8651
6.23945e-13
13.8651
1.02107e-12
13.8651
1.66755e-12
13.8651
2.71783e-12
13.8651
4.42058e-12
13.8651
7.17615e-12
13.8651
1.16275e-11
13.8651
1.88043e-11
13.8651
3.03546e-11
13.8651
4.89022e-11
13.8651
7.86303e-11
13.8651
1.26176e-10
13.8651
2.02062e-10
13.8651
3.22908e-10
13.8651
5.14931e-10
13.8651
8.19329e-10
13.8651
1.30075e-09
13.8651
2.06025e-09
13.8651
3.25551e-09
13.8651
5.1316e-09
13.8651
8.06868e-09
13.8651
1.2654e-08
13.8651
1.97928e-08
13.8651
3.08745e-08
13.8651
4.80267e-08
13.8651
7.44918e-08
13.8651
1.15201e-07
13.8651
1.77612e-07
13.8651
2.72982e-07
13.8651
4.18193e-07
13.8651
6.38552e-07
13.8651
9.7165e-07
13.8651
1.47354e-06
13.8651
2.22584e-06
3.35062e-06
13.8651
13.8651
-1.11022e-16
13.8651
-3.33067e-16
13.8651
-1.71733e-31
13.8651
-1.11022e-16
13.8651
4.44089e-16
13.8651
1.77636e-15
13.8651
3.33067e-15
13.8651
6.10623e-15
13.8651
1.07692e-14
13.8651
1.86517e-14
13.8651
3.07532e-14
13.8651
5.12923e-14
13.8651
8.61533e-14
13.8651
1.4222e-13
13.8651
2.32925e-13
13.8651
3.80806e-13
13.8651
6.21947e-13
13.8651
1.01275e-12
13.8651
1.64591e-12
13.8651
2.66931e-12
13.8651
4.32065e-12
13.8651
6.97853e-12
13.8651
1.12494e-11
13.8651
1.81009e-11
13.8651
2.90687e-11
13.8651
4.65908e-11
13.8651
7.45253e-11
13.8651
1.18969e-10
13.8651
1.8952e-10
13.8651
3.01271e-10
13.8651
4.7787e-10
13.8651
7.56312e-10
13.8651
1.19425e-09
13.8651
1.88138e-09
13.8651
2.95671e-09
13.8651
4.63527e-09
13.8651
7.24829e-09
13.8651
1.1305e-08
13.8651
1.7585e-08
13.8651
2.7279e-08
13.8651
4.21972e-08
13.8651
6.50859e-08
13.8651
1.0009e-07
13.8651
1.53451e-07
13.8651
2.34513e-07
13.8651
3.57251e-07
13.8651
5.42392e-07
13.8651
8.20782e-07
13.8651
1.23728e-06
1.85888e-06
13.8651
13.8651
-3.33067e-16
13.8651
-3.33067e-16
13.8651
1.11022e-16
13.8651
6.66134e-16
13.8651
7.77156e-16
13.8651
1.33227e-15
13.8651
2.22045e-15
13.8651
4.21885e-15
13.8651
7.32747e-15
13.8651
1.18794e-14
13.8651
1.95399e-14
13.8651
3.30846e-14
13.8651
5.38458e-14
13.8651
8.78186e-14
13.8651
1.43663e-13
13.8651
2.33813e-13
13.8651
3.79141e-13
13.8651
6.14508e-13
13.8651
9.94205e-13
13.8651
1.60705e-12
13.8651
2.59115e-12
13.8651
4.171e-12
13.8651
6.70253e-12
13.8651
1.07502e-11
13.8651
1.72107e-11
13.8651
2.75018e-11
13.8651
4.38573e-11
13.8651
6.97988e-11
13.8651
1.10858e-10
13.8651
1.75703e-10
13.8651
2.77877e-10
13.8651
4.38506e-10
13.8651
6.90423e-10
13.8651
1.08457e-09
13.8651
1.69968e-09
13.8651
2.65722e-09
13.8651
4.14383e-09
13.8651
6.44573e-09
13.8651
9.99999e-09
13.8651
1.54726e-08
13.8651
2.38739e-08
13.8651
3.67331e-08
13.8651
5.63534e-08
13.8651
8.61965e-08
13.8651
1.31434e-07
13.8651
1.99787e-07
13.8651
3.0269e-07
13.8651
4.57131e-07
13.8651
6.87782e-07
1.03144e-06
13.8651
13.8651
-3.43465e-32
13.8651
-2.22045e-16
13.8651
2.22045e-16
13.8651
5.55112e-16
13.8651
8.88178e-16
13.8651
9.99201e-16
13.8651
1.66533e-15
13.8651
3.10862e-15
13.8651
5.10703e-15
13.8651
8.54872e-15
13.8651
1.37668e-14
13.8651
2.12053e-14
13.8651
3.39728e-14
13.8651
5.4845e-14
13.8651
8.80407e-14
13.8651
1.41775e-13
13.8651
2.28484e-13
13.8651
3.69593e-13
13.8651
5.96745e-13
13.8651
9.61564e-13
13.8651
1.54632e-12
13.8651
2.48246e-12
13.8651
3.97826e-12
13.8651
6.36202e-12
13.8651
1.01537e-11
13.8651
1.61763e-11
13.8651
2.57216e-11
13.8651
4.08197e-11
13.8651
6.46474e-11
13.8651
1.02174e-10
13.8651
1.6114e-10
13.8651
2.53589e-10
13.8651
3.98186e-10
13.8651
6.23823e-10
13.8651
9.75034e-10
13.8651
1.52036e-09
13.8651
2.36487e-09
13.8651
3.66929e-09
13.8651
5.67853e-09
13.8651
8.76495e-09
13.8651
1.34922e-08
13.8651
2.07117e-08
13.8651
3.17033e-08
13.8651
4.8387e-08
13.8651
7.36261e-08
13.8651
1.11689e-07
13.8651
1.68886e-07
13.8651
2.54578e-07
13.8651
3.82346e-07
5.72417e-07
13.8651
13.8651
-3.33067e-16
13.8651
-3.33067e-16
13.8651
-3.33067e-16
13.8651
4.44089e-16
13.8651
9.99201e-16
13.8651
1.55431e-15
13.8651
2.77556e-15
13.8651
2.9976e-15
13.8651
3.21965e-15
13.8651
4.996e-15
13.8651
8.54872e-15
13.8651
1.39888e-14
13.8651
2.12053e-14
13.8651
3.26406e-14
13.8651
5.32907e-14
13.8651
8.62643e-14
13.8651
1.39e-13
13.8651
2.23266e-13
13.8651
3.58269e-13
13.8651
5.74096e-13
13.8651
9.20042e-13
13.8651
1.47238e-12
13.8651
2.35179e-12
13.8651
3.75056e-12
13.8651
5.971e-12
13.8651
9.48652e-12
13.8651
1.50419e-11
13.8651
2.38046e-11
13.8651
3.75978e-11
13.8651
5.92635e-11
13.8651
9.32179e-11
13.8651
1.46317e-10
13.8651
2.29158e-10
13.8651
3.58103e-10
13.8651
5.58317e-10
13.8651
8.6844e-10
13.8651
1.34756e-09
13.8651
2.0859e-09
13.8651
3.22061e-09
13.8651
4.95979e-09
13.8651
7.61784e-09
13.8651
1.16688e-08
13.8651
1.78238e-08
13.8651
2.7148e-08
13.8651
4.12271e-08
13.8651
6.24215e-08
13.8651
9.42154e-08
13.8651
1.41771e-07
13.8651
2.12569e-07
3.17738e-07
13.8651
13.8651
8.88178e-16
13.8651
7.77156e-16
13.8651
4.44089e-16
13.8651
-1.11022e-16
13.8651
-6.66134e-16
13.8651
-6.66134e-16
13.8651
-2.22045e-16
13.8651
7.77156e-16
13.8651
2.33147e-15
13.8651
3.77476e-15
13.8651
5.10703e-15
13.8651
7.32747e-15
13.8651
1.18794e-14
13.8651
1.96509e-14
13.8651
3.21965e-14
13.8651
5.19584e-14
13.8651
8.30447e-14
13.8651
1.33338e-13
13.8651
2.13829e-13
13.8651
3.41394e-13
13.8651
5.44675e-13
13.8651
8.69527e-13
13.8651
1.38567e-12
13.8651
2.20335e-12
13.8651
3.49765e-12
13.8651
5.54312e-12
13.8651
8.76887e-12
13.8651
1.38433e-11
13.8651
2.18086e-11
13.8651
3.42893e-11
13.8651
5.38034e-11
13.8651
8.42458e-11
13.8651
1.31623e-10
13.8651
2.05196e-10
13.8651
3.19167e-10
13.8651
4.95301e-10
13.8651
7.6681e-10
13.8651
1.1843e-09
13.8651
1.82454e-09
13.8651
2.80382e-09
13.8651
4.29745e-09
13.8651
6.56931e-09
13.8651
1.00147e-08
13.8651
1.52245e-08
13.8651
2.30772e-08
13.8651
3.48788e-08
13.8651
5.2554e-08
13.8651
7.89514e-08
13.8651
1.18194e-07
1.7641e-07
13.8651
13.8651
-5.55112e-16
13.8651
-6.66134e-16
13.8651
-3.33067e-16
13.8651
-1.11022e-16
13.8651
1.11022e-16
13.8651
-2.22045e-16
13.8651
-6.66134e-16
13.8651
-4.44089e-16
13.8651
1.11022e-16
13.8651
7.77156e-16
13.8651
1.33227e-15
13.8651
3.33067e-15
13.8651
6.77236e-15
13.8651
1.14353e-14
13.8651
1.86517e-14
13.8651
2.9754e-14
13.8651
4.82947e-14
13.8651
7.78266e-14
13.8651
1.25344e-13
13.8651
2.0195e-13
13.8651
3.2252e-13
13.8651
5.12812e-13
13.8651
8.14238e-13
13.8651
1.29141e-12
13.8651
2.04448e-12
13.8651
3.23119e-12
13.8651
5.09759e-12
13.8651
8.02869e-12
13.8651
1.26209e-11
13.8651
1.97991e-11
13.8651
3.09937e-11
13.8651
4.84163e-11
13.8651
7.54723e-11
13.8651
1.17391e-10
13.8651
1.82186e-10
13.8651
2.82106e-10
13.8651
4.35811e-10
13.8651
6.71671e-10
13.8651
1.03265e-09
13.8651
1.58369e-09
13.8651
2.42256e-09
13.8651
3.69616e-09
13.8651
5.62419e-09
13.8651
8.53459e-09
13.8651
1.29142e-08
13.8651
1.94858e-08
13.8651
2.93132e-08
13.8651
4.39694e-08
13.8651
6.57284e-08
9.79673e-08
13.8651
13.8651
2.22045e-16
13.8651
3.33067e-16
13.8651
2.22045e-16
13.8651
-5.55112e-16
13.8651
-6.66134e-16
13.8651
-6.66134e-16
13.8651
-1.11022e-16
13.8651
-1.11022e-16
13.8651
-4.44089e-16
13.8651
-4.44089e-16
13.8651
2.22045e-16
13.8651
1.33227e-15
13.8651
2.88658e-15
13.8651
5.88418e-15
13.8651
9.65894e-15
13.8651
1.59872e-14
13.8651
2.67564e-14
13.8651
4.42979e-14
13.8651
7.29417e-14
13.8651
1.17573e-13
13.8651
1.87628e-13
13.8651
2.98428e-13
13.8651
4.74509e-13
13.8651
7.53064e-13
13.8651
1.19005e-12
13.8651
1.87705e-12
13.8651
2.95641e-12
13.8651
4.64684e-12
13.8651
7.28795e-12
13.8651
1.1408e-11
13.8651
1.78195e-11
13.8651
2.77769e-11
13.8651
4.3205e-11
13.8651
6.70595e-11
13.8651
1.03855e-10
13.8651
1.60482e-10
13.8651
2.47416e-10
13.8651
3.80555e-10
13.8651
5.83935e-10
13.8651
8.93829e-10
13.8651
1.36475e-09
13.8651
2.07848e-09
13.8651
3.15713e-09
13.8651
4.78276e-09
13.8651
7.22526e-09
13.8651
1.08848e-08
13.8651
1.63497e-08
13.8651
2.44891e-08
13.8651
3.65581e-08
5.44191e-08
13.8651
13.8651
-2.22045e-16
13.8651
-3.33067e-16
13.8651
1.11022e-16
13.8651
8.88178e-16
13.8651
9.99201e-16
13.8651
7.77156e-16
13.8651
4.44089e-16
13.8651
3.33067e-16
13.8651
5.55112e-16
13.8651
6.66134e-16
13.8651
6.66134e-16
13.8651
6.66134e-16
13.8651
1.33227e-15
13.8651
2.66454e-15
13.8651
4.88498e-15
13.8651
8.88178e-15