/*--------------------------------*- C++ -*----------------------------------*\
| =========                 |                                                 |
| \\      /  F ield         | OpenFOAM: The Open Source CFD Toolbox           |
|  \\    /   O peration     | Version:  2412                                  |
|   \\  /    A nd           | Website:  www.openfoam.com                      |
|    \\/     M anipulation  |                                                 |
\*---------------------------------------------------------------------------*/
FoamFile
{
    version     2.0;
    format      ascii;
    arch        "LSB;label=32;scalar=64";
    class       volVectorField;
    location    "0.0999";
    object      U;
}
// * * * * * * * * * * * * * * * * * * * * * * * * * * * * * * * * * * * * * //

dimensions      [0 1 -1 0 0 0 0];

internalField   nonuniform List<vector> 
15000
(
(694.73 2.58666e-13 0)
(694.73 8.63691e-13 0)
(694.73 2.04075e-12 0)
(694.73 4.16705e-12 0)
(694.73 8.09106e-12 0)
(694.73 1.52907e-11 0)
(694.73 2.84135e-11 0)
(694.73 5.22128e-11 0)
(694.73 9.54842e-11 0)
(694.73 1.74021e-10 0)
(694.73 3.16955e-10 0)
(694.73 5.77252e-10 0)
(694.73 1.0517e-09 0)
(694.73 1.91737e-09 0)
(694.73 3.49821e-09 0)
(694.73 6.38847e-09 0)
(694.73 1.16787e-08 0)
(694.73 2.1374e-08 0)
(694.73 3.91638e-08 0)
(694.73 7.18522e-08 0)
(694.73 1.31999e-07 0)
(694.73 2.42843e-07 0)
(694.73 4.47434e-07 0)
(694.73 8.25721e-07 0)
(694.73 1.5264e-06 0)
(694.73 2.82677e-06 0)
(694.73 5.2449e-06 0)
(694.73 9.75147e-06 0)
(694.73 1.8169e-05 0)
(694.729 3.39303e-05 0)
(694.729 6.35164e-05 0)
(694.728 0.000119207 0)
(694.726 0.000224335 0)
(694.722 0.000423382 0)
(694.716 0.000801444 0)
(694.705 0.00152179 0)
(694.684 0.00289944 0)
(694.648 0.00554342 0)
(694.582 0.0106401 0)
(694.462 0.0204902 0)
(694.245 0.0396165 0)
(693.85 0.0768616 0)
(693.13 0.150011 0)
(691.814 0.293783 0)
(689.416 0.578752 0)
(685.019 1.14019 0)
(676.974 2.2665 0)
(661.928 4.51823 0)
(635.089 9.22636 0)
(586.065 18.5181 0)
(694.73 7.08018e-13 0)
(694.73 2.37644e-12 0)
(694.73 5.66323e-12 0)
(694.73 1.17562e-11 0)
(694.73 2.29574e-11 0)
(694.73 4.33571e-11 0)
(694.73 8.03781e-11 0)
(694.73 1.47557e-10 0)
(694.73 2.69397e-10 0)
(694.73 4.90438e-10 0)
(694.73 8.91843e-10 0)
(694.73 1.62115e-09 0)
(694.73 2.94713e-09 0)
(694.73 5.3603e-09 0)
(694.73 9.75522e-09 0)
(694.73 1.77672e-08 0)
(694.73 3.23851e-08 0)
(694.73 5.90841e-08 0)
(694.73 1.07893e-07 0)
(694.73 1.97223e-07 0)
(694.73 3.6088e-07 0)
(694.73 6.61081e-07 0)
(694.73 1.21236e-06 0)
(694.73 2.22609e-06 0)
(694.73 4.09247e-06 0)
(694.73 7.53375e-06 0)
(694.73 1.38874e-05 0)
(694.73 2.56371e-05 0)
(694.73 4.73978e-05 0)
(694.729 8.77691e-05 0)
(694.729 0.00016279 0)
(694.728 0.000302462 0)
(694.726 0.000562976 0)
(694.723 0.00104986 0)
(694.718 0.0019616 0)
(694.708 0.00367248 0)
(694.691 0.00689025 0)
(694.661 0.0129559 0)
(694.607 0.024421 0)
(694.511 0.0461292 0)
(694.341 0.0873442 0)
(694.037 0.165733 0)
(693.498 0.315589 0)
(692.542 0.602284 0)
(690.854 1.15353 0)
(687.883 2.20751 0)
(682.693 4.2407 0)
(673.655 8.14133 0)
(658.405 15.8033 0)
(633.617 29.9677 0)
(694.73 1.10131e-12 0)
(694.73 3.59596e-12 0)
(694.73 8.52948e-12 0)
(694.73 1.76073e-11 0)
(694.73 3.4308e-11 0)
(694.73 6.47156e-11 0)
(694.73 1.19686e-10 0)
(694.73 2.1918e-10 0)
(694.73 3.99127e-10 0)
(694.73 7.24784e-10 0)
(694.73 1.31383e-09 0)
(694.73 2.38003e-09 0)
(694.73 4.31059e-09 0)
(694.73 7.8087e-09 0)
(694.73 1.41501e-08 0)
(694.73 2.56539e-08 0)
(694.73 4.65335e-08 0)
(694.73 8.44574e-08 0)
(694.73 1.53377e-07 0)
(694.73 2.78719e-07 0)
(694.73 5.06803e-07 0)
(694.73 9.22174e-07 0)
(694.73 1.67906e-06 0)
(694.73 3.05935e-06 0)
(694.73 5.57803e-06 0)
(694.73 1.01777e-05 0)
(694.73 1.8583e-05 0)
(694.73 3.39549e-05 0)
(694.73 6.20847e-05 0)
(694.729 0.000113602 0)
(694.729 0.000208007 0)
(694.728 0.000381134 0)
(694.727 0.0006988 0)
(694.725 0.00128209 0)
(694.72 0.00235358 0)
(694.713 0.00432298 0)
(694.7 0.00794395 0)
(694.678 0.0146043 0)
(694.638 0.0268582 0)
(694.569 0.0494033 0)
(694.448 0.0908741 0)
(694.238 0.167116 0)
(693.872 0.307267 0)
(693.239 0.564647 0)
(692.15 1.03704 0)
(690.285 1.89966 0)
(687.129 3.47046 0)
(681.862 6.31131 0)
(673.295 11.4479 0)
(659.763 20.463 0)
(694.73 1.33469e-12 0)
(694.73 4.34311e-12 0)
(694.73 1.02458e-11 0)
(694.73 2.1165e-11 0)
(694.73 4.11172e-11 0)
(694.73 7.73355e-11 0)
(694.73 1.42716e-10 0)
(694.73 2.60502e-10 0)
(694.73 4.72717e-10 0)
(694.73 8.54835e-10 0)
(694.73 1.54281e-09 0)
(694.73 2.782e-09 0)
(694.73 5.01427e-09 0)
(694.73 9.03697e-09 0)
(694.73 1.62876e-08 0)
(694.73 2.9362e-08 0)
(694.73 5.2942e-08 0)
(694.73 9.54869e-08 0)
(694.73 1.72263e-07 0)
(694.73 3.10865e-07 0)
(694.73 5.61118e-07 0)
(694.73 1.01313e-06 0)
(694.73 1.82966e-06 0)
(694.73 3.30516e-06 0)
(694.73 5.9716e-06 0)
(694.73 1.07916e-05 0)
(694.73 1.95047e-05 0)
(694.73 3.52584e-05 0)
(694.73 6.374e-05 0)
(694.73 0.000115238 0)
(694.729 0.000208336 0)
(694.729 0.000376634 0)
(694.728 0.000680775 0)
(694.726 0.0012303 0)
(694.723 0.00222267 0)
(694.718 0.00401397 0)
(694.709 0.00724484 0)
(694.693 0.0130679 0)
(694.666 0.0235509 0)
(694.62 0.0424016 0)
(694.541 0.0762432 0)
(694.405 0.136884 0)
(694.174 0.245284 0)
(693.783 0.438528 0)
(693.124 0.781914 0)
(692.022 1.38913 0)
(690.198 2.45656 0)
(687.224 4.31338 0)
(682.48 7.50558 0)
(675.091 12.8633 0)
(694.73 1.38493e-12 0)
(694.73 4.50332e-12 0)
(694.73 1.06805e-11 0)
(694.73 2.21873e-11 0)
(694.73 4.31688e-11 0)
(694.73 8.10984e-11 0)
(694.73 1.49329e-10 0)
(694.73 2.71796e-10 0)
(694.73 4.91186e-10 0)
(694.73 8.8413e-10 0)
(694.73 1.58791e-09 0)
(694.73 2.84852e-09 0)
(694.73 5.10611e-09 0)
(694.73 9.14972e-09 0)
(694.73 1.63918e-08 0)
(694.73 2.9364e-08 0)
(694.73 5.25975e-08 0)
(694.73 9.42135e-08 0)
(694.73 1.68745e-07 0)
(694.73 3.0223e-07 0)
(694.73 5.41252e-07 0)
(694.73 9.69245e-07 0)
(694.73 1.73539e-06 0)
(694.73 3.10671e-06 0)
(694.73 5.56034e-06 0)
(694.73 9.94963e-06 0)
(694.73 1.77977e-05 0)
(694.73 3.1826e-05 0)
(694.73 5.6885e-05 0)
(694.73 0.000101628 0)
(694.729 0.000181453 0)
(694.729 0.000323773 0)
(694.728 0.000577257 0)
(694.727 0.00102833 0)
(694.725 0.00182997 0)
(694.722 0.00325294 0)
(694.716 0.00577469 0)
(694.705 0.0102365 0)
(694.688 0.0181145 0)
(694.659 0.0319955 0)
(694.609 0.056389 0)
(694.525 0.0991374 0)
(694.385 0.173787 0)
(694.152 0.303639 0)
(693.766 0.528464 0)
(693.132 0.915667 0)
(692.102 1.57812 0)
(690.45 2.70017 0)
(687.844 4.57552 0)
(683.819 7.64833 0)
(694.73 1.3438e-12 0)
(694.73 4.41664e-12 0)
(694.73 1.04616e-11 0)
(694.73 2.15712e-11 0)
(694.73 4.17205e-11 0)
(694.73 7.79844e-11 0)
(694.73 1.43055e-10 0)
(694.73 2.59225e-10 0)
(694.73 4.6627e-10 0)
(694.73 8.35158e-10 0)
(694.73 1.49202e-09 0)
(694.73 2.6616e-09 0)
(694.73 4.74334e-09 0)
(694.73 8.44815e-09 0)
(694.73 1.50392e-08 0)
(694.73 2.67636e-08 0)
(694.73 4.76114e-08 0)
(694.73 8.46756e-08 0)
(694.73 1.5054e-07 0)
(694.73 2.67556e-07 0)
(694.73 4.75337e-07 0)
(694.73 8.4416e-07 0)
(694.73 1.49843e-06 0)
(694.73 2.65855e-06 0)
(694.73 4.71406e-06 0)
(694.73 8.35395e-06 0)
(694.73 1.47937e-05 0)
(694.73 2.61787e-05 0)
(694.73 4.6285e-05 0)
(694.73 8.17607e-05 0)
(694.73 0.000144275 0)
(694.729 0.000254309 0)
(694.729 0.00044769 0)
(694.728 0.000787065 0)
(694.727 0.00138156 0)
(694.724 0.00242112 0)
(694.721 0.00423494 0)
(694.714 0.00739268 0)
(694.703 0.0128753 0)
(694.685 0.0223686 0)
(694.655 0.0387523 0)
(694.605 0.0669313 0)
(694.522 0.115197 0)
(694.386 0.197496 0)
(694.165 0.337071 0)
(693.807 0.572428 0)
(693.232 0.966507 0)
(692.321 1.62046 0)
(690.897 2.69211 0)
(688.708 4.42084 0)
(694.73 1.22238e-12 0)
(694.73 4.04209e-12 0)
(694.73 9.51298e-12 0)
(694.73 1.95587e-11 0)
(694.73 3.76829e-11 0)
(694.73 7.01687e-11 0)
(694.73 1.28022e-10 0)
(694.73 2.30826e-10 0)
(694.73 4.13216e-10 0)
(694.73 7.36424e-10 0)
(694.73 1.3087e-09 0)
(694.73 2.32136e-09 0)
(694.73 4.1124e-09 0)
(694.73 7.27912e-09 0)
(694.73 1.28748e-08 0)
(694.73 2.27593e-08 0)
(694.73 4.02087e-08 0)
(694.73 7.10001e-08 0)
(694.73 1.25297e-07 0)
(694.73 2.20994e-07 0)
(694.73 3.89524e-07 0)
(694.73 6.86136e-07 0)
(694.73 1.20769e-06 0)
(694.73 2.1241e-06 0)
(694.73 3.7326e-06 0)
(694.73 6.55335e-06 0)
(694.73 1.14939e-05 0)
(694.73 2.01382e-05 0)
(694.73 3.52412e-05 0)
(694.73 6.15951e-05 0)
(694.73 0.000107506 0)
(694.73 0.000187364 0)
(694.729 0.000326006 0)
(694.729 0.000566264 0)
(694.728 0.000981687 0)
(694.726 0.00169841 0)
(694.724 0.00293174 0)
(694.72 0.00504845 0)
(694.713 0.00866998 0)
(694.703 0.0148466 0)
(694.684 0.025342 0)
(694.655 0.043108 0)
(694.607 0.0730463 0)
(694.529 0.123256 0)
(694.403 0.20699 0)
(694.203 0.34581 0)
(693.884 0.574331 0)
(693.384 0.94752 0)
(692.607 1.55015 0)
(691.418 2.51151 0)
(694.73 1.07014e-12 0)
(694.73 3.41361e-12 0)
(694.73 8.04838e-12 0)
(694.73 1.6583e-11 0)
(694.73 3.20083e-11 0)
(694.73 5.94977e-11 0)
(694.73 1.08281e-10 0)
(694.73 1.94547e-10 0)
(694.73 3.46729e-10 0)
(694.73 6.14954e-10 0)
(694.73 1.087e-09 0)
(694.73 1.91726e-09 0)
(694.73 3.37632e-09 0)
(694.73 5.93921e-09 0)
(694.73 1.04378e-08 0)
(694.73 1.83296e-08 0)
(694.73 3.21626e-08 0)
(694.73 5.63945e-08 0)
(694.73 9.8804e-08 0)
(694.73 1.72973e-07 0)
(694.73 3.02552e-07 0)
(694.73 5.28748e-07 0)
(694.73 9.23143e-07 0)
(694.73 1.61013e-06 0)
(694.73 2.80523e-06 0)
(694.73 4.88185e-06 0)
(694.73 8.4849e-06 0)
(694.73 1.4728e-05 0)
(694.73 2.55276e-05 0)
(694.73 4.41798e-05 0)
(694.73 7.63332e-05 0)
(694.73 0.00013166 0)
(694.73 0.000226652 0)
(694.729 0.000389402 0)
(694.729 0.000667541 0)
(694.728 0.0011417 0)
(694.726 0.00194769 0)
(694.724 0.00331374 0)
(694.72 0.00562123 0)
(694.713 0.00950564 0)
(694.703 0.0160189 0)
(694.686 0.0268961 0)
(694.658 0.0449766 0)
(694.614 0.0748848 0)
(694.543 0.124078 0)
(694.431 0.204524 0)
(694.255 0.335172 0)
(693.981 0.545826 0)
(693.557 0.882056 0)
(692.911 1.41364 0)
(694.73 8.25206e-13 0)
(694.73 2.74659e-12 0)
(694.73 6.55824e-12 0)
(694.73 1.35688e-11 0)
(694.73 2.6108e-11 0)
(694.73 4.83778e-11 0)
(694.73 8.77705e-11 0)
(694.73 1.57043e-10 0)
(694.73 2.78538e-10 0)
(694.73 4.9135e-10 0)
(694.73 8.63733e-10 0)
(694.73 1.51472e-09 0)
(694.73 2.65189e-09 0)
(694.73 4.63675e-09 0)
(694.73 8.09795e-09 0)
(694.73 1.41291e-08 0)
(694.73 2.46282e-08 0)
(694.73 4.28903e-08 0)
(694.73 7.46207e-08 0)
(694.73 1.29702e-07 0)
(694.73 2.25203e-07 0)
(694.73 3.90614e-07 0)
(694.73 6.76723e-07 0)
(694.73 1.17102e-06 0)
(694.73 2.02371e-06 0)
(694.73 3.49266e-06 0)
(694.73 6.01901e-06 0)
(694.73 1.03572e-05 0)
(694.73 1.77925e-05 0)
(694.73 3.05138e-05 0)
(694.73 5.22324e-05 0)
(694.73 8.9237e-05 0)
(694.73 0.000152135 0)
(694.73 0.000258797 0)
(694.729 0.000439181 0)
(694.729 0.000743427 0)
(694.728 0.001255 0)
(694.726 0.00211255 0)
(694.724 0.00354495 0)
(694.72 0.00592904 0)
(694.714 0.00988107 0)
(694.704 0.0164052 0)
(694.688 0.0271248 0)
(694.663 0.0446528 0)
(694.624 0.0731539 0)
(694.561 0.11924 0)
(694.464 0.193269 0)
(694.314 0.31141 0)
(694.082 0.498211 0)
(693.731 0.79131 0)
(694.73 6.76341e-13 0)
(694.73 2.20885e-12 0)
(694.73 5.20061e-12 0)
(694.73 1.0709e-11 0)
(694.73 2.05653e-11 0)
(694.73 3.80218e-11 0)
(694.73 6.85713e-11 0)
(694.73 1.22056e-10 0)
(694.73 2.15467e-10 0)
(694.73 3.78149e-10 0)
(694.73 6.61195e-10 0)
(694.73 1.1533e-09 0)
(694.73 2.00768e-09 0)
(694.73 3.48975e-09 0)
(694.73 6.05791e-09 0)
(694.73 1.05041e-08 0)
(694.73 1.81929e-08 0)
(694.73 3.14762e-08 0)
(694.73 5.43966e-08 0)
(694.73 9.39033e-08 0)
(694.73 1.61907e-07 0)
(694.73 2.78822e-07 0)
(694.73 4.7953e-07 0)
(694.73 8.23617e-07 0)
(694.73 1.41254e-06 0)
(694.73 2.41896e-06 0)
(694.73 4.13574e-06 0)
(694.73 7.05921e-06 0)
(694.73 1.20274e-05 0)
(694.73 2.04542e-05 0)
(694.73 3.47147e-05 0)
(694.73 5.87948e-05 0)
(694.73 9.93533e-05 0)
(694.73 0.000167497 0)
(694.729 0.000281664 0)
(694.729 0.000472397 0)
(694.729 0.000790033 0)
(694.728 0.00131731 0)
(694.726 0.00218946 0)
(694.724 0.00362679 0)
(694.721 0.00598589 0)
(694.715 0.00984189 0)
(694.706 0.0161153 0)
(694.692 0.0262732 0)
(694.67 0.0426318 0)
(694.635 0.0688358 0)
(694.582 0.110549 0)
(694.499 0.176553 0)
(694.373 0.280107 0)
(694.182 0.441525 0)
(694.73 5.50432e-13 0)
(694.73 1.74191e-12 0)
(694.73 4.00102e-12 0)
(694.73 8.09807e-12 0)
(694.73 1.55569e-11 0)
(694.73 2.87041e-11 0)
(694.73 5.16991e-11 0)
(694.73 9.17001e-11 0)
(694.73 1.61218e-10 0)
(694.73 2.81768e-10 0)
(694.73 4.90405e-10 0)
(694.73 8.51032e-10 0)
(694.73 1.47354e-09 0)
(694.73 2.54701e-09 0)
(694.73 4.3958e-09 0)
(694.73 7.5767e-09 0)
(694.73 1.30427e-08 0)
(694.73 2.2425e-08 0)
(694.73 3.85078e-08 0)
(694.73 6.60432e-08 0)
(694.73 1.13117e-07 0)
(694.73 1.93487e-07 0)
(694.73 3.30481e-07 0)
(694.73 5.63649e-07 0)
(694.73 9.59803e-07 0)
(694.73 1.63176e-06 0)
(694.73 2.76933e-06 0)
(694.73 4.69157e-06 0)
(694.73 7.93278e-06 0)
(694.73 1.33867e-05 0)
(694.73 2.25423e-05 0)
(694.73 3.78764e-05 0)
(694.73 6.34911e-05 0)
(694.73 0.000106169 0)
(694.73 0.000177068 0)
(694.73 0.000294512 0)
(694.729 0.000488424 0)
(694.729 0.000807555 0)
(694.728 0.00133086 0)
(694.727 0.00218584 0)
(694.725 0.00357706 0)
(694.721 0.00583154 0)
(694.716 0.00946832 0)
(694.708 0.0153077 0)
(694.696 0.0246349 0)
(694.677 0.039457 0)
(694.647 0.0628719 0)
(694.602 0.0996575 0)
(694.533 0.156991 0)
(694.429 0.245851 0)
(694.73 3.7706e-13 0)
(694.73 1.25367e-12 0)
(694.73 2.88183e-12 0)
(694.73 5.93728e-12 0)
(694.73 1.14155e-11 0)
(694.73 2.10246e-11 0)
(694.73 3.78441e-11 0)
(694.73 6.69623e-11 0)
(694.73 1.17315e-10 0)
(694.73 2.04288e-10 0)
(694.73 3.54023e-10 0)
(694.73 6.11382e-10 0)
(694.73 1.05318e-09 0)
(694.73 1.81073e-09 0)
(694.73 3.10784e-09 0)
(694.73 5.32641e-09 0)
(694.73 9.11582e-09 0)
(694.73 1.55805e-08 0)
(694.73 2.65929e-08 0)
(694.73 4.53279e-08 0)
(694.73 7.71509e-08 0)
(694.73 1.31127e-07 0)
(694.73 2.22522e-07 0)
(694.73 3.77031e-07 0)
(694.73 6.37752e-07 0)
(694.73 1.07692e-06 0)
(694.73 1.81519e-06 0)
(694.73 3.05382e-06 0)
(694.73 5.12735e-06 0)
(694.73 8.59106e-06 0)
(694.73 1.43629e-05 0)
(694.73 2.3958e-05 0)
(694.73 3.98661e-05 0)
(694.73 6.61713e-05 0)
(694.73 0.00010954 0)
(694.73 0.000180832 0)
(694.73 0.000297644 0)
(694.729 0.000488414 0)
(694.729 0.000798849 0)
(694.728 0.00130217 0)
(694.727 0.00211499 0)
(694.725 0.0034223 0)
(694.722 0.00551562 0)
(694.718 0.00885245 0)
(694.711 0.0141447 0)
(694.7 0.0224976 0)
(694.684 0.0356067 0)
(694.659 0.056075 0)
(694.621 0.0877951 0)
(694.565 0.136711 0)
(694.73 2.33891e-13 0)
(694.73 8.073e-13 0)
(694.73 2.03285e-12 0)
(694.73 4.21684e-12 0)
(694.73 8.14298e-12 0)
(694.73 1.50352e-11 0)
(694.73 2.69577e-11 0)
(694.73 4.76679e-11 0)
(694.73 8.33528e-11 0)
(694.73 1.44641e-10 0)
(694.73 2.49651e-10 0)
(694.73 4.29244e-10 0)
(694.73 7.35848e-10 0)
(694.73 1.25871e-09 0)
(694.73 2.14905e-09 0)
(694.73 3.66338e-09 0)
(694.73 6.23512e-09 0)
(694.73 1.0597e-08 0)
(694.73 1.79835e-08 0)
(694.73 3.04749e-08 0)
(694.73 5.15639e-08 0)
(694.73 8.71144e-08 0)
(694.73 1.46936e-07 0)
(694.73 2.47431e-07 0)
(694.73 4.15929e-07 0)
(694.73 6.97928e-07 0)
(694.73 1.16889e-06 0)
(694.73 1.95387e-06 0)
(694.73 3.25924e-06 0)
(694.73 5.4252e-06 0)
(694.73 9.01017e-06 0)
(694.73 1.49294e-05 0)
(694.73 2.46763e-05 0)
(694.73 4.0683e-05 0)
(694.73 6.68919e-05 0)
(694.73 0.000109679 0)
(694.73 0.000179304 0)
(694.73 0.000292234 0)
(694.729 0.000474747 0)
(694.729 0.000768664 0)
(694.728 0.00124013 0)
(694.727 0.00199342 0)
(694.726 0.00319179 0)
(694.723 0.00508993 0)
(694.719 0.0080819 0)
(694.713 0.0127761 0)
(694.704 0.0201014 0)
(694.691 0.0314778 0)
(694.67 0.0490199 0)
(694.639 0.0759504 0)
(694.73 2.20569e-13 0)
(694.73 6.69411e-13 0)
(694.73 1.54023e-12 0)
(694.73 3.09457e-12 0)
(694.73 5.81426e-12 0)
(694.73 1.06564e-11 0)
(694.73 1.90272e-11 0)
(694.73 3.34865e-11 0)
(694.73 5.82762e-11 0)
(694.73 1.00591e-10 0)
(694.73 1.72718e-10 0)
(694.73 2.9553e-10 0)
(694.73 5.04209e-10 0)
(694.73 8.5822e-10 0)
(694.73 1.4579e-09 0)
(694.73 2.47232e-09 0)
(694.73 4.18582e-09 0)
(694.73 7.07612e-09 0)
(694.73 1.19434e-08 0)
(694.73 2.01281e-08 0)
(694.73 3.38677e-08 0)
(694.73 5.68954e-08 0)
(694.73 9.5419e-08 0)
(694.73 1.59755e-07 0)
(694.73 2.66985e-07 0)
(694.73 4.45371e-07 0)
(694.73 7.41493e-07 0)
(694.73 1.23205e-06 0)
(694.73 2.04282e-06 0)
(694.73 3.37983e-06 0)
(694.73 5.57907e-06 0)
(694.73 9.18774e-06 0)
(694.73 1.50929e-05 0)
(694.73 2.47302e-05 0)
(694.73 4.04117e-05 0)
(694.73 6.58531e-05 0)
(694.73 0.000106996 0)
(694.73 0.000173317 0)
(694.73 0.000279847 0)
(694.729 0.000450364 0)
(694.729 0.000722256 0)
(694.728 0.00115412 0)
(694.728 0.00183722 0)
(694.726 0.00291313 0)
(694.724 0.00459986 0)
(694.721 0.0072324 0)
(694.716 0.0113199 0)
(694.708 0.0176379 0)
(694.697 0.0273371 0)
(694.68 0.0421673 0)
(694.73 1.31145e-13 0)
(694.73 4.30829e-13 0)
(694.73 1.05724e-12 0)
(694.73 2.19597e-12 0)
(694.73 4.13954e-12 0)
(694.73 7.46285e-12 0)
(694.73 1.32092e-11 0)
(694.73 2.30566e-11 0)
(694.73 3.99202e-11 0)
(694.73 6.86459e-11 0)
(694.73 1.17393e-10 0)
(694.73 1.99944e-10 0)
(694.73 3.39576e-10 0)
(694.73 5.75297e-10 0)
(694.73 9.72591e-10 0)
(694.73 1.64132e-09 0)
(694.73 2.76504e-09 0)
(694.73 4.65063e-09 0)
(694.73 7.80948e-09 0)
(694.73 1.30931e-08 0)
(694.73 2.19152e-08 0)
(694.73 3.66212e-08 0)
(694.73 6.10889e-08 0)
(694.73 1.01726e-07 0)
(694.73 1.69082e-07 0)
(694.73 2.80509e-07 0)
(694.73 4.64442e-07 0)
(694.73 7.67428e-07 0)
(694.73 1.26535e-06 0)
(694.73 2.08179e-06 0)
(694.73 3.4171e-06 0)
(694.73 5.59566e-06 0)
(694.73 9.14032e-06 0)
(694.73 1.48922e-05 0)
(694.73 2.41984e-05 0)
(694.73 3.92111e-05 0)
(694.73 6.33527e-05 0)
(694.73 0.000102051 0)
(694.73 0.000163869 0)
(694.73 0.000262278 0)
(694.729 0.000418352 0)
(694.729 0.000664954 0)
(694.729 0.00105301 0)
(694.728 0.00166116 0)
(694.727 0.00260996 0)
(694.725 0.0040839 0)
(694.722 0.0063623 0)
(694.718 0.00986909 0)
(694.712 0.0152314 0)
(694.702 0.0234005 0)
(694.73 7.65747e-14 0)
(694.73 2.78324e-13 0)
(694.73 6.8373e-13 0)
(694.73 1.42999e-12 0)
(694.73 2.73291e-12 0)
(694.73 4.95994e-12 0)
(694.73 8.85499e-12 0)
(694.73 1.5508e-11 0)
(694.73 2.68167e-11 0)
(694.73 4.59593e-11 0)
(694.73 7.83916e-11 0)
(694.73 1.33062e-10 0)
(694.73 2.2504e-10 0)
(694.73 3.79693e-10 0)
(694.73 6.39151e-10 0)
(694.73 1.07379e-09 0)
(694.73 1.80057e-09 0)
(694.73 3.01415e-09 0)
(694.73 5.0371e-09 0)
(694.73 8.40399e-09 0)
(694.73 1.39973e-08 0)
(694.73 2.32737e-08 0)
(694.73 3.86288e-08 0)
(694.73 6.40002e-08 0)
(694.73 1.05835e-07 0)
(694.73 1.74684e-07 0)
(694.73 2.87739e-07 0)
(694.73 4.72995e-07 0)
(694.73 7.75848e-07 0)
(694.73 1.26982e-06 0)
(694.73 2.07348e-06 0)
(694.73 3.37776e-06 0)
(694.73 5.4888e-06 0)
(694.73 8.89648e-06 0)
(694.73 1.43812e-05 0)
(694.73 2.31835e-05 0)
(694.73 3.72657e-05 0)
(694.73 5.97247e-05 0)
(694.73 9.54222e-05 0)
(694.73 0.00015197 0)
(694.73 0.000241219 0)
(694.729 0.000381568 0)
(694.729 0.0006014 0)
(694.729 0.000944373 0)
(694.728 0.00147714 0)
(694.727 0.00230132 0)
(694.726 0.00357024 0)
(694.723 0.00551589 0)
(694.72 0.00848041 0)
(694.715 0.0129818 0)
(694.73 1.02573e-13 0)
(694.73 2.76551e-13 0)
(694.73 5.05864e-13 0)
(694.73 9.33263e-13 0)
(694.73 1.7517e-12 0)
(694.73 3.22025e-12 0)
(694.73 5.83765e-12 0)
(694.73 1.03363e-11 0)
(694.73 1.78808e-11 0)
(694.73 3.04996e-11 0)
(694.73 5.17751e-11 0)
(694.73 8.74977e-11 0)
(694.73 1.47362e-10 0)
(694.73 2.47475e-10 0)
(694.73 4.14771e-10 0)
(694.73 6.93762e-10 0)
(694.73 1.15817e-09 0)
(694.73 1.93006e-09 0)
(694.73 3.21074e-09 0)
(694.73 5.33216e-09 0)
(694.73 8.83978e-09 0)
(694.73 1.46293e-08 0)
(694.73 2.41667e-08 0)
(694.73 3.98495e-08 0)
(694.73 6.5584e-08 0)
(694.73 1.0773e-07 0)
(694.73 1.766e-07 0)
(694.73 2.88904e-07 0)
(694.73 4.71602e-07 0)
(694.73 7.6814e-07 0)
(694.73 1.24824e-06 0)
(694.73 2.02364e-06 0)
(694.73 3.27258e-06 0)
(694.73 5.27897e-06 0)
(694.73 8.49287e-06 0)
(694.73 1.36264e-05 0)
(694.73 2.18007e-05 0)
(694.73 3.47771e-05 0)
(694.73 5.53084e-05 0)
(694.73 8.76859e-05 0)
(694.73 0.000138563 0)
(694.73 0.000218224 0)
(694.73 0.000342479 0)
(694.729 0.000535548 0)
(694.729 0.000834279 0)
(694.728 0.00129466 0)
(694.728 0.00200092 0)
(694.726 0.00308011 0)
(694.724 0.00471913 0)
(694.722 0.00720035 0)
(694.73 3.364e-14 0)
(694.73 1.07735e-13 0)
(694.73 2.89086e-13 0)
(694.73 6.21437e-13 0)
(694.73 1.19203e-12 0)
(694.73 2.17846e-12 0)
(694.73 3.8861e-12 0)
(694.73 6.74508e-12 0)
(694.73 1.159e-11 0)
(694.73 1.98389e-11 0)
(694.73 3.36086e-11 0)
(694.73 5.66911e-11 0)
(694.73 9.51764e-11 0)
(694.73 1.59337e-10 0)
(694.73 2.66035e-10 0)
(694.73 4.43167e-10 0)
(694.73 7.36833e-10 0)
(694.73 1.2227e-09 0)
(694.73 2.0253e-09 0)
(694.73 3.34875e-09 0)
(694.73 5.52716e-09 0)
(694.73 9.10671e-09 0)
(694.73 1.49771e-08 0)
(694.73 2.45862e-08 0)
(694.73 4.02829e-08 0)
(694.73 6.5873e-08 0)
(694.73 1.075e-07 0)
(694.73 1.75071e-07 0)
(694.73 2.84499e-07 0)
(694.73 4.61308e-07 0)
(694.73 7.46277e-07 0)
(694.73 1.20445e-06 0)
(694.73 1.93915e-06 0)
(694.73 3.11417e-06 0)
(694.73 4.9881e-06 0)
(694.73 7.96825e-06 0)
(694.73 1.26933e-05 0)
(694.73 2.01623e-05 0)
(694.73 3.19305e-05 0)
(694.73 5.04125e-05 0)
(694.73 7.9338e-05 0)
(694.73 0.000124452 0)
(694.73 0.00019455 0)
(694.73 0.000303068 0)
(694.729 0.000470376 0)
(694.729 0.000727335 0)
(694.729 0.00112023 0)
(694.728 0.00171871 0)
(694.727 0.00262498 0)
(694.725 0.00399315 0)
(694.73 1.29408e-14 0)
(694.73 8.26856e-14 0)
(694.73 2.00172e-13 0)
(694.73 4.92708e-13 0)
(694.73 9.08933e-13 0)
(694.73 1.5652e-12 0)
(694.73 2.58193e-12 0)
(694.73 4.35725e-12 0)
(694.73 7.43719e-12 0)
(694.73 1.2741e-11 0)
(694.73 2.15738e-11 0)
(694.73 3.62894e-11 0)
(694.73 6.08145e-11 0)
(694.73 1.01518e-10 0)
(694.73 1.68883e-10 0)
(694.73 2.80317e-10 0)
(694.73 4.64202e-10 0)
(694.73 7.67221e-10 0)
(694.73 1.26564e-09 0)
(694.73 2.08413e-09 0)
(694.73 3.4257e-09 0)
(694.73 5.6209e-09 0)
(694.73 9.20563e-09 0)
(694.73 1.50487e-08 0)
(694.73 2.45529e-08 0)
(694.73 3.99815e-08 0)
(694.73 6.49726e-08 0)
(694.73 1.05367e-07 0)
(694.73 1.70508e-07 0)
(694.73 2.75316e-07 0)
(694.73 4.4353e-07 0)
(694.73 7.12858e-07 0)
(694.73 1.14294e-06 0)
(694.73 1.82797e-06 0)
(694.73 2.91602e-06 0)
(694.73 4.6394e-06 0)
(694.73 7.36099e-06 0)
(694.73 1.16463e-05 0)
(694.73 1.83723e-05 0)
(694.73 2.88957e-05 0)
(694.73 4.53049e-05 0)
(694.73 7.08055e-05 0)
(694.73 0.000110291 0)
(694.73 0.00017121 0)
(694.73 0.000264824 0)
(694.73 0.00040815 0)
(694.729 0.000626639 0)
(694.729 0.000958504 0)
(694.728 0.00145968 0)
(694.727 0.00221438 0)
(694.73 5.22837e-14 0)
(694.73 8.54249e-14 0)
(694.73 2.04018e-13 0)
(694.73 3.29727e-13 0)
(694.73 5.74566e-13 0)
(694.73 9.88187e-13 0)
(694.73 1.71094e-12 0)
(694.73 2.94012e-12 0)
(694.73 4.95126e-12 0)
(694.73 8.25968e-12 0)
(694.73 1.38314e-11 0)
(694.73 2.31719e-11 0)
(694.73 3.86434e-11 0)
(694.73 6.41583e-11 0)
(694.73 1.06317e-10 0)
(694.73 1.75788e-10 0)
(694.73 2.89939e-10 0)
(694.73 4.77319e-10 0)
(694.73 7.84356e-10 0)
(694.73 1.28664e-09 0)
(694.73 2.10674e-09 0)
(694.73 3.44317e-09 0)
(694.73 5.61686e-09 0)
(694.73 9.14574e-09 0)
(694.73 1.4863e-08 0)
(694.73 2.41071e-08 0)
(694.73 3.9021e-08 0)
(694.73 6.30318e-08 0)
(694.73 1.01599e-07 0)
(694.73 1.63407e-07 0)
(694.73 2.6222e-07 0)
(694.73 4.19816e-07 0)
(694.73 6.70511e-07 0)
(694.73 1.06829e-06 0)
(694.73 1.6977e-06 0)
(694.73 2.69095e-06 0)
(694.73 4.25373e-06 0)
(694.73 6.70555e-06 0)
(694.73 1.05402e-05 0)
(694.73 1.6519e-05 0)
(694.73 2.58101e-05 0)
(694.73 4.02012e-05 0)
(694.73 6.24128e-05 0)
(694.73 9.65749e-05 0)
(694.73 0.000148915 0)
(694.73 0.000228817 0)
(694.73 0.000350285 0)
(694.729 0.000534299 0)
(694.729 0.000811504 0)
(694.729 0.00122796 0)
(694.73 2.04918e-16 0)
(694.73 4.63102e-14 0)
(694.73 9.31847e-14 0)
(694.73 1.7832e-13 0)
(694.73 3.34603e-13 0)
(694.73 6.09212e-13 0)
(694.73 1.05422e-12 0)
(694.73 1.81176e-12 0)
(694.73 3.06365e-12 0)
(694.73 5.13405e-12 0)
(694.73 8.63753e-12 0)
(694.73 1.44503e-11 0)
(694.73 2.40654e-11 0)
(694.73 3.99864e-11 0)
(694.73 6.61886e-11 0)
(694.73 1.09126e-10 0)
(694.73 1.79518e-10 0)
(694.73 2.94617e-10 0)
(694.73 4.82484e-10 0)
(694.73 7.88627e-10 0)
(694.73 1.28656e-09 0)
(694.73 2.09503e-09 0)
(694.73 3.405e-09 0)
(694.73 5.52371e-09 0)
(694.73 8.94331e-09 0)
(694.73 1.44518e-08 0)
(694.73 2.33057e-08 0)
(694.73 3.75071e-08 0)
(694.73 6.02334e-08 0)
(694.73 9.65213e-08 0)
(694.73 1.54323e-07 0)
(694.73 2.46177e-07 0)
(694.73 3.91769e-07 0)
(694.73 6.2196e-07 0)
(694.73 9.84921e-07 0)
(694.73 1.55571e-06 0)
(694.73 2.45074e-06 0)
(694.73 3.85022e-06 0)
(694.73 6.03183e-06 0)
(694.73 9.42238e-06 0)
(694.73 1.46748e-05 0)
(694.73 2.27855e-05 0)
(694.73 3.52665e-05 0)
(694.73 5.44076e-05 0)
(694.73 8.36526e-05 0)
(694.73 0.000128179 0)
(694.73 0.000195696 0)
(694.73 0.00029773 0)
(694.729 0.000451087 0)
(694.729 0.000680985 0)
(694.73 1.30607e-14 0)
(694.73 4.7881e-14 0)
(694.73 3.47841e-14 0)
(694.73 5.70687e-14 0)
(694.73 1.21328e-13 0)
(694.73 2.90261e-13 0)
(694.73 5.91794e-13 0)
(694.73 1.06482e-12 0)
(694.73 1.88826e-12 0)
(694.73 3.25638e-12 0)
(694.73 5.4926e-12 0)
(694.73 9.11233e-12 0)
(694.73 1.50985e-11 0)
(694.73 2.49493e-11 0)
(694.73 4.10426e-11 0)
(694.73 6.74273e-11 0)
(694.73 1.10511e-10 0)
(694.73 1.80728e-10 0)
(694.73 2.9493e-10 0)
(694.73 4.80299e-10 0)
(694.73 7.80796e-10 0)
(694.73 1.26701e-09 0)
(694.73 2.05207e-09 0)
(694.73 3.31735e-09 0)
(694.73 5.35228e-09 0)
(694.73 8.61862e-09 0)
(694.73 1.38504e-08 0)
(694.73 2.22126e-08 0)
(694.73 3.55482e-08 0)
(694.73 5.67683e-08 0)
(694.73 9.04536e-08 0)
(694.73 1.43802e-07 0)
(694.73 2.28078e-07 0)
(694.73 3.60883e-07 0)
(694.73 5.69604e-07 0)
(694.73 8.96777e-07 0)
(694.73 1.40818e-06 0)
(694.73 2.20534e-06 0)
(694.73 3.4442e-06 0)
(694.73 5.36385e-06 0)
(694.73 8.329e-06 0)
(694.73 1.28947e-05 0)
(694.73 1.99014e-05 0)
(694.73 3.06184e-05 0)
(694.73 4.69505e-05 0)
(694.73 7.17553e-05 0)
(694.73 0.00010928 0)
(694.73 0.00016586 0)
(694.73 0.00025072 0)
(694.73 0.000377681 0)
(694.73 2.89828e-14 0)
(694.73 5.9443e-14 0)
(694.73 6.59255e-14 0)
(694.73 6.17167e-14 0)
(694.73 1.0248e-13 0)
(694.73 2.55066e-13 0)
(694.73 4.46503e-13 0)
(694.73 7.76702e-13 0)
(694.73 1.30358e-12 0)
(694.73 2.14171e-12 0)
(694.73 3.50146e-12 0)
(694.73 5.72092e-12 0)
(694.73 9.43009e-12 0)
(694.73 1.54813e-11 0)
(694.73 2.53026e-11 0)
(694.73 4.13265e-11 0)
(694.73 6.74948e-11 0)
(694.73 1.10017e-10 0)
(694.73 1.79008e-10 0)
(694.73 2.90692e-10 0)
(694.73 4.71137e-10 0)
(694.73 7.62034e-10 0)
(694.73 1.23018e-09 0)
(694.73 1.9822e-09 0)
(694.73 3.18765e-09 0)
(694.73 5.11617e-09 0)
(694.73 8.19488e-09 0)
(694.73 1.30997e-08 0)
(694.73 2.08961e-08 0)
(694.73 3.32619e-08 0)
(694.73 5.28287e-08 0)
(694.73 8.3719e-08 0)
(694.73 1.32364e-07 0)
(694.73 2.08783e-07 0)
(694.73 3.28519e-07 0)
(694.73 5.15642e-07 0)
(694.73 8.07269e-07 0)
(694.73 1.26053e-06 0)
(694.73 1.96294e-06 0)
(694.73 3.04831e-06 0)
(694.73 4.72028e-06 0)
(694.73 7.28798e-06 0)
(694.73 1.12184e-05 0)
(694.73 1.72152e-05 0)
(694.73 2.63323e-05 0)
(694.73 4.01475e-05 0)
(694.73 6.10011e-05 0)
(694.73 9.23795e-05 0)
(694.73 0.000139349 0)
(694.73 0.000209491 0)
(694.73 -2.72245e-14 0)
(694.73 -4.5607e-14 0)
(694.73 -2.09227e-14 0)
(694.73 3.84531e-15 0)
(694.73 3.53523e-14 0)
(694.73 1.00516e-13 0)
(694.73 2.02479e-13 0)
(694.73 3.81429e-13 0)
(694.73 6.9523e-13 0)
(694.73 1.20853e-12 0)
(694.73 1.99086e-12 0)
(694.73 3.38365e-12 0)
(694.73 5.6763e-12 0)
(694.73 9.38024e-12 0)
(694.73 1.5384e-11 0)
(694.73 2.51494e-11 0)
(694.73 4.10082e-11 0)
(694.73 6.6687e-11 0)
(694.73 1.0818e-10 0)
(694.73 1.75173e-10 0)
(694.73 2.82982e-10 0)
(694.73 4.56225e-10 0)
(694.73 7.34122e-10 0)
(694.73 1.17914e-09 0)
(694.73 1.89029e-09 0)
(694.73 3.02453e-09 0)
(694.73 4.82956e-09 0)
(694.73 7.69627e-09 0)
(694.73 1.22391e-08 0)
(694.73 1.94225e-08 0)
(694.73 3.07548e-08 0)
(694.73 4.85919e-08 0)
(694.73 7.65986e-08 0)
(694.73 1.20468e-07 0)
(694.73 1.89007e-07 0)
(694.73 2.95818e-07 0)
(694.73 4.61821e-07 0)
(694.73 7.19129e-07 0)
(694.73 1.11682e-06 0)
(694.73 1.72975e-06 0)
(694.73 2.67155e-06 0)
(694.73 4.11436e-06 0)
(694.73 6.31762e-06 0)
(694.73 9.67153e-06 0)
(694.73 1.47593e-05 0)
(694.73 2.24524e-05 0)
(694.73 3.40413e-05 0)
(694.73 5.14454e-05 0)
(694.73 7.74498e-05 0)
(694.73 0.000116217 0)
(694.73 -6.4252e-15 0)
(694.73 -1.67025e-14 0)
(694.73 2.27019e-14 0)
(694.73 4.99978e-14 0)
(694.73 8.36057e-14 0)
(694.73 8.87462e-14 0)
(694.73 1.32314e-13 0)
(694.73 2.71508e-13 0)
(694.73 4.79326e-13 0)
(694.73 8.11065e-13 0)
(694.73 1.35592e-12 0)
(694.73 2.22794e-12 0)
(694.73 3.601e-12 0)
(694.73 5.85991e-12 0)
(694.73 9.54851e-12 0)
(694.73 1.54688e-11 0)
(694.73 2.49819e-11 0)
(694.73 4.03848e-11 0)
(694.73 6.51974e-11 0)
(694.73 1.05186e-10 0)
(694.73 1.69293e-10 0)
(694.73 2.72043e-10 0)
(694.73 4.36454e-10 0)
(694.73 6.98826e-10 0)
(694.73 1.11684e-09 0)
(694.73 1.78159e-09 0)
(694.73 2.83639e-09 0)
(694.73 4.50669e-09 0)
(694.73 7.14594e-09 0)
(694.73 1.13074e-08 0)
(694.73 1.78537e-08 0)
(694.73 2.81287e-08 0)
(694.73 4.42172e-08 0)
(694.73 6.93493e-08 0)
(694.73 1.08509e-07 0)
(694.73 1.69374e-07 0)
(694.73 2.63723e-07 0)
(694.73 4.09595e-07 0)
(694.73 6.34492e-07 0)
(694.73 9.80266e-07 0)
(694.73 1.51031e-06 0)
(694.73 2.32047e-06 0)
(694.73 3.55488e-06 0)
(694.73 5.42992e-06 0)
(694.73 8.2684e-06 0)
(694.73 1.25519e-05 0)
(694.73 1.89924e-05 0)
(694.73 2.86472e-05 0)
(694.73 4.30486e-05 0)
(694.73 6.44837e-05 0)
(694.73 -2.24266e-14 0)
(694.73 -2.84213e-14 0)
(694.73 -1.36138e-14 0)
(694.73 3.48435e-14 0)
(694.73 1.01551e-13 0)
(694.73 1.18858e-13 0)
(694.73 2.18354e-13 0)
(694.73 2.89719e-13 0)
(694.73 3.86639e-13 0)
(694.73 5.83836e-13 0)
(694.73 9.75394e-13 0)
(694.73 1.52497e-12 0)
(694.73 2.32738e-12 0)
(694.73 3.63032e-12 0)
(694.73 5.82539e-12 0)
(694.73 9.35593e-12 0)
(694.73 1.50465e-11 0)
(694.73 2.42451e-11 0)
(694.73 3.90637e-11 0)
(694.73 6.27853e-11 0)
(694.73 1.00796e-10 0)
(694.73 1.61568e-10 0)
(694.73 2.58473e-10 0)
(694.73 4.12703e-10 0)
(694.73 6.57677e-10 0)
(694.73 1.04611e-09 0)
(694.73 1.66066e-09 0)
(694.73 2.63113e-09 0)
(694.73 4.16038e-09 0)
(694.73 6.56507e-09 0)