/*--------------------------------*- C++ -*----------------------------------*\
| =========                 |                                                 |
| \\      /  F ield         | OpenFOAM: The Open Source CFD Toolbox           |
|  \\    /   O peration     | Version:  2412                                  |
|   \\  /    A nd           | Website:  www.openfoam.com                      |
|    \\/     M anipulation  |                                                 |
\*---------------------------------------------------------------------------*/
FoamFile
{
    version     2.0;
    format      ascii;
    arch        "LSB;label=32;scalar=64";
    class       volScalarField;
    location    "0.5";
    object      Ma;
}
// * * * * * * * * * * * * * * * * * * * * * * * * * * * * * * * * * * * * * //

dimensions      [0 0 0 0 0 0 0];

internalField   nonuniform List<scalar> 
5250
(
3.00001
3.00001
3
2.99999
2.99996
2.99991
2.9997
2.99942
2.99819
2.99639
2.98933
2.97687
2.93577
2.83602
2.59936
1.96395
1.03696
0.337248
0.158583
0.252359
0.239373
0.173414
0.123304
0.0668591
0.0281961
3.00001
3.00001
3
2.99999
2.99996
2.99991
2.99971
2.99942
2.99822
2.99645
2.98951
2.97726
2.93693
2.83884
2.60652
1.97751
1.05477
0.349247
0.163434
0.256939
0.244812
0.181334
0.134894
0.0855922
0.0561005
3.00001
3.00001
3
2.99999
2.99996
2.99991
2.99972
2.99944
2.99828
2.99656
2.98985
2.97804
2.9392
2.84476
2.62144
2.00964
1.09482
0.376436
0.176454
0.268329
0.259103
0.20072
0.160012
0.118774
0.0954355
3.00001
3.00001
3
2.99999
2.99996
2.99992
2.99973
2.99947
2.99835
2.99672
2.99032
2.97916
2.94236
2.85349
2.64309
2.06157
1.15776
0.417052
0.196415
0.285979
0.281508
0.229203
0.194302
0.158752
0.138448
3.00001
3.00001
3
2.99999
2.99996
2.99992
2.99974
2.9995
2.99844
2.99692
2.99088
2.98053
2.94627
2.86457
2.66969
2.13184
1.24395
0.469405
0.223103
0.309076
0.309965
0.263828
0.234483
0.203051
0.184933
3.00001
3.00001
3
2.99999
2.99997
2.99993
2.99976
2.99953
2.99855
2.99715
2.99145
2.98211
2.95068
2.87789
2.70153
2.21809
1.35224
0.534513
0.256637
0.337579
0.343538
0.303751
0.280999
0.253349
0.237502
3.00001
3.00001
3
3
2.99997
2.99994
2.99978
2.99957
2.99867
2.9974
2.99212
2.98389
2.9545
2.89391
2.73158
2.31628
1.48469
0.612652
0.297146
0.371997
0.381306
0.348879
0.333774
0.310591
0.299464
3.00001
3.00001
3
3
2.99998
2.99994
2.99981
2.99962
2.99882
2.99768
2.99292
2.98573
2.95845
2.90823
2.75562
2.40606
1.63287
0.700702
0.349923
0.41213
0.420564
0.398767
0.393095
0.377278
0.376759
3.00001
3.00001
3
3
2.99998
2.99995
2.99984
2.99968
2.99899
2.99802
2.9939
2.98772
2.96413
2.91986
2.78897
2.46935
1.7768
0.803628
0.421325
0.452861
0.459519
0.454733
0.46072
0.459363
0.482519
3.00001
3.00001
3
3
2.99999
2.99996
2.99987
2.99974
2.99917
2.99834
2.99495
2.98954
2.9703
2.93014
2.82229
2.53362
1.92857
0.947504
0.514099
0.49028
0.499431
0.51488
0.53694
0.567325
0.656486
3.00001
3.00001
3.00001
3
2.99999
2.99997
2.99993
2.99977
2.9995
2.99864
2.99671
2.99128
2.97766
2.94263
2.84574
2.63298
2.03342
1.15821
0.624142
0.53116
0.548533
0.58032
0.624068
0.698521
0.861288
3.00001
3.00001
3.00001
3
2.99999
2.99998
2.99993
2.99984
2.99952
2.99897
2.99713
2.99317
2.98178
2.9529
2.88195
2.67287
2.25414
1.36089
0.755121
0.584289
0.608247
0.649167
0.706053
0.804365
0.977076
3.00001
3.00001
3.00001
3
3
2.99998
2.99994
2.99987
2.99957
2.99915
2.9973
2.9947
2.98369
2.96622
2.90469
2.771
2.42413
1.6957
0.906628
0.653677
0.679682
0.716417
0.780486
0.879539
1.02927
3.00001
3.00001
3.00001
3
3
2.99999
2.99995
2.9999
2.99967
2.99935
2.998
2.996
2.98806
2.97451
2.92833
2.82235
2.5639
1.93557
1.08451
0.735458
0.743135
0.773735
0.835305
0.934695
1.06387
3.00001
3.00001
3.00001
3.00001
3
2.99999
2.99996
2.99992
2.99975
2.9995
2.99846
2.99694
2.99098
2.98055
2.94723
2.86538
2.67714
2.13995
1.34189
0.863267
0.795021
0.820711
0.874933
0.967929
1.08501
3.00001
3.00001
3.00001
3.00001
3
3
2.99998
2.99995
2.99982
2.99963
2.99885
2.99773
2.99306
2.9859
2.95942
2.90674
2.76126
2.3877
1.67192
1.01247
0.852975
0.872133
0.916661
0.994307
1.09891
3.00001
3.00001
3.00001
3.00001
3
3
2.99999
2.99996
2.99987
2.99975
2.9992
2.99843
2.99517
2.99029
2.97114
2.93683
2.82964
2.57615
2.00195
1.21622
0.93663
0.929121
0.964316
1.02462
1.11581
3.00001
3.00001
3.00001
3.00001
3.00001
3
2.99999
2.99998
2.99992
2.99983
2.99945
2.99892
2.99667
2.99331
2.98039
2.95636
2.88566
2.70132
2.30855
1.4749
1.08032
0.995929
1.01587
1.05999
1.13244
3.00001
3.00001
3.00001
3.00001
3.00001
3
3
2.99999
2.99995
2.99989
2.99966
2.99932
2.99791
2.99579
2.98747
2.97335
2.9253
2.81907
2.55002
1.95627
1.27861
1.08131
1.07887
1.10774
1.15987
3.00001
3.00001
3.00001
3.00001
3.00001
3.00001
3
2.99999
2.99998
2.99992
2.99983
2.99948
2.99894
2.99688
2.99326
2.9818
2.95469
2.88553
2.69837
2.29369
1.53981
1.20189
1.14015
1.15274
1.19118
3.00001
3.00001
3.00001
3.00001
3.00001
3.00001
3
3
2.99999
2.99995
2.9999
2.99968
2.99936
2.99799
2.99601
2.98781
2.9749
2.9283
2.83226
2.5737
2.02461
1.40099
1.22346
1.21271
1.23589
3.00001
3.00001
3.00001
3.00001
3.00001
3.00001
3.00001
3
3
2.99998
2.99993
2.99985
2.99954
2.99906
2.99719
2.99407
2.98324
2.96103
2.89893
2.7438
2.3691
1.71988
1.34479
1.27169
1.27993
3.00001
3.00001
3.00001
3.00001
3.00001
3.00001
3.00001
3
3
2.99999
2.99997
2.9999
2.99979
2.99934
2.99865
2.99593
2.99147
2.97529
2.9453
2.85033
2.65473
2.1206
1.58621
1.36911
1.33571
3.00001
3.00001
3.00001
3.00001
3.00001
3.00001
3.00001
3.00001
3
3
2.99998
2.99996
2.99986
2.99971
2.99912
2.99817
2.99468
2.98835
2.96888
2.92238
2.81256
2.51455
1.93624
1.50524
1.41007
3.00001
3.00001
3.00001
3.00001
3.00001
3.00001
3.00001
3.00001
3.00001
3
3
2.99998
2.99995
2.99982
2.99963
2.99888
2.99766
2.99333
2.98488
2.95978
2.89651
2.75592
2.36067
1.79203
1.51946
3.00001
3.00001
3.00001
3.00001
3.00001
3.00001
3.00001
3.00001
3.00001
3.00001
3
2.99999
2.99998
2.99991
2.99981
2.99939
2.99878
2.99621
2.9923
2.97705
2.95109
2.86347
2.69376
2.21388
1.76526
3.00001
3.00001
3.00001
3.00001
3.00001
3.00001
3.00001
3.00001
3.00001
3.00001
3
3
2.99999
2.99997
2.99989
2.99977
2.9993
2.99854
2.99569
2.99074
2.97438
2.94037
2.84838
2.62813
2.12578
3.00001
3.00001
3.00001
3.00001
3.00001
3.00001
3.00001
3.00001
3.00001
3.00001
3.00001
3
3
2.99999
2.99996
2.99988
2.99974
2.9992
2.99833
2.99516
2.98919
2.97173
2.9277
2.83059
2.55075
3.00001
3.00001
3.00001
3.00001
3.00001
3.00001
3.00001
3.00001
3.00001
3.00001
3.00001
3.00001
3
3
2.99998
2.99996
2.99986
2.99972
2.99913
2.99818
2.99482
2.98814
2.96912
2.91985
2.81266
3.00001
3.00001
3.00001
3.00001
3.00001
3.00001
3.00001
3.00001
3.00001
3.00001
3.00001
3.00001
3.00001
3
3
2.99999
2.99995
2.99989
2.99963
2.99925
2.99765
2.99518
2.98553
2.96884
2.91165
3.00001
3.00001
3.00001
3.00001
3.00001
3.00001
3.00001
3.00001
3.00001
3.00001
3.00001
3.00001
3.00001
3.00001
3
3
2.99999
2.99995
2.99989
2.99965
2.99926
2.99776
2.9952
2.98601
2.96866
3.00001
3.00001
3.00001
3.00001
3.00001
3.00001
3.00001
3.00001
3.00001
3.00001
3.00001
3.00001
3.00001
3.00001
3.00001
3
3
2.99999
2.99996
2.99987
2.99973
2.99914
2.99822
2.99467
2.98835
3.00001
3.00001
3.00001
3.00001
3.00001
3.00001
3.00001
3.00001
3.00001
3.00001
3.00001
3.00001
3.00001
3.00001
3.00001
3.00001
3
3
2.99999
2.99997
2.99989
2.99976
2.99928
2.99842
2.99554
3.00001
3.00001
3.00001
3.00001
3.00001
3.00001
3.00001
3.00001
3.00001
3.00001
3.00001
3.00001
3.00001
3.00001
3.00001
3.00001
3.00001
3.00001
3
2.99999
2.99998
2.99991
2.9998
2.99939
2.99866
3.00001
3.00001
3.00001
3.00001
3.00001
3.00001
3.00001
3.00001
3.00001
3.00001
3.00001
3.00001
3.00001
3.00001
3.00001
3.00001
3.00001
3.00001
3.00001
3
3
2.99998
2.99994
2.99981
2.9996
3.00001
3.00001
3.00001
3.00001
3.00001
3.00001
3.00001
3.00001
3.00001
3.00001
3.00001
3.00001
3.00001
3.00001
3.00001
3.00001
3.00001
3.00001
3.00001
3.00001
3
3
2.99999
2.99995
2.99989
3.00001
3.00001
3.00001
3.00001
3.00001
3.00001
3.00001
3.00001
3.00001
3.00001
3.00001
3.00001
3.00001
3.00001
3.00001
3.00001
3.00001
3.00001
3.00001
3.00001
3.00001
3.00001
3
3
2.99997
3.00001
3.00001
3.00001
3.00001
3.00001
3.00001
3.00001
3.00001
3.00001
3.00001
3.00001
3.00001
3.00001
3.00001
3.00001
3.00001
3.00001
3.00001
3.00001
3.00001
3.00001
3.00001
3.00001
3
3
3.00001
3.00001
3.00001
3.00001
3.00001
3.00001
3.00001
3.00001
3.00001
3.00001
3.00001
3.00001
3.00001
3.00001
3.00001
3.00001
3.00001
3.00001
3.00001
3.00001
3.00001
3.00001
3.00001
3.00001
3.00001
3.00001
3.00001
3.00001
3.00001
3.00001
3.00001
3.00001
3.00001
3.00001
3.00001
3.00001
3.00001
3.00001
3.00001
3.00001
3.00001
3.00001
3.00001
3.00001
3.00001
3.00001
3.00001
3.00001
3.00001
3.00001
3.00001
3.00001
3.00001
3.00001
3.00001
3.00001
3.00001
3.00001
3.00001
3.00001
3.00001
3.00001
3.00001
3.00001
3.00001
3.00001
3.00001
3.00001
3.00001
3.00001
3.00001
3.00001
3.00001
3.00001
3.00001
3.00001
3.00001
3.00001
3.00001
3.00001
3.00001
3.00001
3.00001
3.00001
3.00001
3.00001
3.00001
3.00001
3.00001
3.00001
3.00001
3.00001
3.00001
3.00001
3.00001
3.00001
3.00001
3.00001
3.00001
3.00001
3.00001
3.00001
3.00001
3.00001
3.00001
3.00001
3.00001
3.00001
3.00001
3.00001
3.00001
3.00001
3.00001
3.00001
3.00001
3.00001
3.00001
3.00001
3.00001
3.00001
3.00001
3.00001
3.00001
3.00001
3.00001
3.00001
3.00001
3.00001
3.00001
3.00001
3.00001
3.00001
3.00001
3.00001
3.00001
3.00001
3.00001
3.00001
3.00001
3.00001
3.00001
3.00001
3.00001
3.00001
3.00001
3.00001
3.00001
3.00001
3.00001
3.00001
3.00001
3.00001
3.00001
3.00001
3.00001
3.00001
3.00001
3.00001
3.00001
3.00001
3.00001
3.00001
3.00001
3.00001
3.00001
3.00001
3.00001
3.00001
3.00001
3.00001
3.00001
3.00001
3.00001
3.00001
3.00001
3.00001
3.00001
3.00001
3.00001
3.00001
3.00001
3.00001
3.00001
3.00001
3.00001
3.00001
3.00001
3.00001
3.00001
3.00001
3.00001
3.00001
3.00001
3.00001
3.00001
3.00001
3.00001
3.00001
3.00001
3.00001
3.00001
3.00001
3.00001
3.00001
3.00001
3.00001
3.00001
3.00001
3.00001
3.00001
3.00001
3.00001
3.00001
3.00001
3.00001
3.00001
3.00001
3.00001
3.00001
3.00001
3.00001
3.00001
3.00001
3.00001
3.00001
3.00001
3.00001
3.00001
3.00001
3.00001
3.00001
3.00001
3.00001
3.00001
3.00001
3.00001
3.00001
3.00001
3.00001
3.00001
3.00001
3.00001
3.00001
3.00001
3.00001
3.00001
3.00001
3.00001
3.00001
3.00001
3.00001
3.00001
3.00001
3.00001
3.00001
3.00001
3.00001
3.00001
3.00001
3.00001
3.00001
3.00001
3.00001
3.00001
3.00001
3.00001
3.00001
3.00001
3.00001
3.00001
3.00001
3.00001
3.00001
3.00001
3.00001
3.00001
3.00001
3.00001
3.00001
3.00001
3.00001
3.00001
3.00001
3.00001
3.00001
3.00001
3.00001
3.00001
3.00001
3.00001
3.00001
3.00001
3.00001
3.00001
3.00001
3.00001
3.00001
3.00001
3.00001
3.00001
1.10128
1.30266
1.38067
1.37699
1.32005
1.26795
1.21939
1.19476
1.19675
1.20961
1.22591
1.24902
1.2724
1.29017
1.30632
1.32251
1.33982
1.35878
1.37934
1.40097
1.42274
1.44375
1.46352
1.48196
1.49923
1.51568
1.53172
1.54753
1.56274
1.5768
1.58929
1.59979
1.60806
1.61494
1.62021
1.62253
1.622
1.62049
1.61931
1.61963
1.62182
1.62525
1.63084
1.64459
1.67309
1.71392
1.76423
1.82342
1.89019
1.96287
2.03956
2.11829
2.19721
2.27451
2.34865
2.41838
2.48288
2.54164
2.59445
2.64137
2.68265
2.71868
2.74992
2.77692
2.80037
2.82104
2.83968
2.8569
2.87314
2.88865
2.90354
2.91783
2.93145
2.94424
2.9559
2.96607
2.97452
2.98144
2.98729
2.9926
2.9976
3.00123
3.00483
3.00693
3.00753
3.00719
3.00633
3.00527
3.00423
3.0033
3.00242
3.00171
3.00118
3.0008
3.00054
3.00035
3.00022
3.00014
3.00008
3.00005
1.147
1.27431
1.35281
1.407
1.45758
1.50944
1.54802
1.56108
1.56262
1.56247
1.56381
1.56695
1.5734
1.5859
1.60265
1.6198
1.63585
1.65168
1.66801
1.6849
1.70216
1.71947
1.7363
1.75206
1.76649
1.77983
1.79257
1.80519
1.81784
1.83026
1.84202
1.85247
1.86085
1.86715
1.87239
1.87605
1.87709
1.87518
1.87209
1.86948
1.8687
1.87006
1.87287
1.87841
1.89193
1.9191
1.95656
2.00138
2.05268
2.10917
2.16934
2.23164
2.29458
2.35697
2.41786
2.47658
2.53258
2.58536
2.6345
2.6796
2.72041
2.75689
2.78921
2.81766
2.84259
2.86438
2.88344
2.90024
2.91526
2.92895
2.94161
2.95339
2.96423
2.97395
2.98231
2.98917
2.9945
2.99854
3.00172
3.00443
3.00675
3.00975
3.01186
3.01231
3.01164
3.01033
3.00874
3.00719
3.00571
3.00427
3.00312
3.00224
3.00157
3.00109
3.00074
3.00049
3.00032
3.00021
3.00014
3.00009
1.15622
1.26788
1.36828
1.46845
1.56143
1.64196
1.69951
1.72809
1.73325
1.73382
1.73388
1.73358
1.73831
1.74468
1.75232
1.76419
1.7785
1.79312
1.8083
1.82403
1.83989
1.85548
1.8704
1.88427
1.89679
1.90804
1.91844
1.92857
1.93872
1.9489
1.95892
1.96833
1.97629
1.98227
1.98682
1.99066
1.99362
1.99553
1.9968
1.99841
2.00073
2.00345
2.00807
2.0192
2.04111
2.07072
2.10637
2.14738
2.19294
2.24219
2.29417
2.34786
2.40228
2.45652
2.5098
2.56148
2.61106
2.6581
2.70211
2.74259
2.77915
2.81151
2.83972
2.86402
2.88482
2.90259
2.91779
2.93087
2.94226
2.95238
2.96167
2.97037
2.97844
2.98568
2.99181
2.99665
3.00022
3.00282
3.00486
3.00656
3.00844
3.01133
3.01281
3.01283
3.01188
3.0104
3.00873
3.00715
3.0056
3.00416
3.00302
3.00216
3.00151
3.00104
3.0007
3.00046
3.0003
3.00019
3.00012
3.00008
1.18195
1.2888
1.38762
1.48043
1.56539
1.64026
1.70248
1.75371
1.79498
1.82589
1.84623
1.85431
1.85773
1.85998
1.86082
1.86399
1.87122
1.8824
1.89853
1.91768
1.93575
1.95207
1.96619
1.97856
1.98918
1.99885
2.00778
2.01726
2.02687
2.03698
2.04638
2.05579
2.06431
2.07211
2.07822
2.08411
2.08971
2.09475
2.09887
2.1027
2.10665
2.11218
2.12206
2.13917
2.16209
2.19087
2.22524
2.26461
2.30811
2.35476
2.40346
2.45313
2.50279
2.55157
2.59873
2.64366
2.68593
2.72523
2.76142
2.79442
2.82421
2.85073
2.87395
2.894
2.91116
2.92584
2.93852
2.94963
2.95947
2.96832
2.97634
2.98374
2.99056
2.99672
3.00195
3.00597
3.00866
3.01033
3.01121
3.01202
3.01361
3.01564
3.01614
3.01539
3.01384
3.01191
3.00994
3.00805
3.00616
3.00458
3.00334
3.0024
3.00169
3.00117
3.0008
3.00053
3.00035
3.00023
3.00015
3.0001
1.19531
1.29539
1.38803
1.47601
1.55784
1.63415
1.70389
1.76788
1.82489
1.87197
1.90705
1.92818
1.93719
1.94156
1.94277
1.94607
1.95163
1.95905
1.97009
1.98438
1.99934
2.0141
2.02749
2.03904
2.04957
2.05956
2.06946
2.07969
2.09038
2.10097
2.11089
2.12003
2.12851
2.13568
2.14135
2.14684
2.15346
2.16034
2.16707
2.17402
2.18295
2.1955
2.21244
2.23449
2.26156
2.29314
2.32854
2.36699
2.40779
2.45027
2.49375
2.53749
2.58091
2.62342
2.66449
2.70366
2.74053
2.77481
2.8063
2.83494
2.86075
2.88373
2.90385
2.92117
2.93583
2.94815
2.9585
2.96741
2.97522
2.98231
2.98876
2.99468
2.99998
3.00463
3.00837
3.0111
3.01263
3.01328
3.01343
3.01397
3.01528
3.01676
3.01681
3.01572
3.01395
3.01188
3.00985
3.00787
3.00595
3.00441
3.00321
3.00229
3.0016
3.0011
3.00075
3.0005
3.00033
3.00021
3.00013
3.00009
1.20722
1.30622
1.39531
1.47755
1.55488
1.62796
1.69677
1.76039
1.81795
1.86837
1.9104
1.94359
1.96916
1.98712
1.99951
2.00876
2.01643
2.02354
2.03099
2.03954
2.04982
2.06124
2.07342
2.08562
2.09772
2.11005
2.12221
2.13412
2.1457
2.15687
2.16712
2.17645
2.18523
2.19311
2.19942
2.20563
2.21369
2.22349
2.23421
2.24573
2.25913
2.27591
2.29682
2.32247
2.35257
2.38619
2.42227
2.45994
2.49862
2.53788
2.57733
2.61652
2.65499
2.69234
2.72816
2.76209
2.79382
2.82306
2.84958
2.87337
2.89453
2.91321
2.92954
2.94357
2.95544
2.96536
2.97366
2.98076
2.98704
2.99281
2.99821
3.00325
3.00782
3.01179
3.01488
3.01684
3.01753
3.01761
3.01747
3.01755
3.01811
3.01919
3.0188
3.01726
3.0151
3.01276
3.01052
3.00824
3.00622
3.00461
3.00336
3.0024
3.00169
3.00117
3.0008
3.00054
3.00035
3.00023
3.00015
3.0001
1.21238
1.30576
1.39279
1.47366
1.54969
1.62087
1.68812
1.75048
1.80847
1.86042
1.90618
1.94558
1.98008
2.0105
2.03642
2.05745
2.07317
2.08427
2.09255
2.09944
2.10593
2.11295
2.12097
2.13041
2.14153
2.1536
2.16633
2.17939
2.1923
2.20441
2.21537
2.22496
2.23384
2.24223
2.24949
2.25679
2.26644
2.27909
2.29413
2.31078
2.3295
2.35131
2.37672
2.40599
2.43861
2.4734
2.50942
2.54557
2.58148
2.61681
2.65141
2.68518
2.71791
2.74928
2.77908
2.80743
2.83428
2.85937
2.88225
2.90253
2.92033
2.93593
2.94951
2.96118
2.9711
2.97942
2.98636
2.99221
2.99735
3.00209
3.00659
3.01086
3.01468
3.01778
3.01991
3.0207
3.02063
3.02028
3.01963
3.01921
3.01965
3.02027
3.01937
3.01748
3.0151
3.01267
3.01033
3.00798
3.006
3.00443
3.00321
3.00229
3.00161
3.00111
3.00075
3.0005
3.00033
3.00021
3.00014
3.00009
1.22076
1.30913
1.39343
1.47244
1.54663
1.61617
1.68134
1.74186
1.79698
1.84757
1.89381
1.93699
1.97759
2.01512
2.049
2.07813
2.10156
2.11992
2.13349
2.14325
2.15105
2.15796
2.16476
2.17225
2.18143
2.1922
2.20421
2.21744
2.23095
2.24416
2.25625
2.26697
2.27656
2.28618
2.29594
2.30606
2.31853
2.33466
2.35435
2.37629
2.39973
2.42529
2.45334
2.4842
2.51737
2.55189
2.58671
2.62102
2.65414
2.68588
2.71633
2.74553
2.77356
2.80035
2.82575
2.84962
2.87194
2.89268
2.91155
2.92817
2.94272
2.95615
2.96742
2.97666
2.98443
2.99098
2.99656
3.00132
3.00547
3.00928
3.01302
3.01675
3.02019
3.02284
3.02412
3.02414
3.02394
3.0231
3.02217
3.02158
3.02217
3.02201
3.02051
3.01822
3.0156
3.01303
3.01048
3.00803
3.00603
3.00446
3.00324
3.00231
3.00162
3.00112
3.00076
3.00051
3.00034
3.00022
3.00014
3.0001
1.23539
1.31468
1.39379
1.46948
1.54164
1.60986
1.67351
1.7327
1.78734
1.83758
1.88428
1.9286
1.97123
2.01166
2.04924
2.08245
2.11192
2.13665
2.15721
2.17419
2.18842
2.20068
2.21124
2.22045
2.22948
2.23906
2.24915
2.26002
2.2718
2.28363
2.29504
2.30596
2.31673
2.32821
2.34121
2.35592
2.37304
2.39371
2.41729
2.44317
2.47036
2.49892
2.52902
2.5602
2.59243
2.62528
2.65801
2.68984
2.72002
2.7483
2.77468
2.79946
2.823
2.84546
2.86679
2.88651
2.90506
2.92237
2.93803
2.95181
2.9636
2.97324
2.98161
2.98974
2.99618
3.0011
3.0055
3.00945
3.01298
3.01611
3.01906
3.02195
3.02466
3.02657
3.02708
3.02729
3.02649
3.0252
3.02386
3.02332
3.02374
3.02283
3.02087
3.01828
3.01551
3.01285
3.01016
3.00774
3.00579
3.00426
3.00308
3.00219
3.00153
3.00106
3.00072
3.00048
3.00031
3.0002
3.00013
3.00009
1.25234
1.3263
1.39937
1.47116
1.53927
1.60296
1.66316
1.72011
1.7737
1.82442
1.87312
1.91972
1.9637
2.00441
2.04222
2.07689
2.10836
2.13709
2.16352
2.18832
2.21081
2.23025
2.24701
2.26098
2.27243
2.28327
2.2942
2.3047
2.31533
2.32629
2.33737
2.34892
2.36145
2.37542
2.39168
2.4106
2.43216
2.45624
2.4824
2.51008
2.53918
2.56908
2.59951
2.62996
2.66033
2.69086
2.72114
2.75039
2.77789
2.80315
2.82608
2.84705
2.86658
2.88481
2.9024
2.91959
2.93539
2.94954
2.9621
2.97311
2.98261
2.99037
2.99654
3.00177
3.00707
3.01101
3.01405
3.01714
3.02015
3.02285
3.0252
3.0272
3.02873
3.02932
3.03014
3.03004
3.02891
3.02736
3.02582
3.02538
3.02525
3.02382
3.02143
3.01855
3.01562
3.0128
3.00997
3.00757
3.00566
3.00416
3.00301
3.00214
3.0015
3.00103
3.0007
3.00047
3.00031
3.0002
3.00013
3.00009
1.27698
1.33866
1.40757
1.47462
1.53879
1.60052
1.65758
1.71088
1.76217
1.8118
1.86008
1.9066
1.95143
1.9939
2.03345
2.07009
2.10437
2.13723
2.16885
2.19897
2.22647
2.25134
2.27278
2.29172
2.30908
2.3246
2.33944
2.35379
2.36686
2.37938
2.39214
2.40508
2.4191
2.4347
2.4523
2.47271
2.49617
2.52168
2.54803
2.57535
2.60429
2.63411
2.66385
2.69258
2.72053
2.74831
2.77581
2.80229
2.82696
2.8491
2.86879
2.88617
2.90166
2.91658
2.93152
2.94581
2.95909
2.971
2.98141
2.99028
2.99771
3.00385
3.00871
3.01248
3.01587
3.01918
3.02133
3.02373
3.02648
3.02909
3.03119
3.03259
3.0328
3.03286
3.03308
3.03226
3.03066
3.0288
3.02716
3.02646
3.02607
3.02423
3.02147
3.01836
3.01533
3.01237
3.00953
3.00721
3.00537
3.00393
3.00283
3.00201
3.0014
3.00096
3.00065
3.00044
3.00029
3.00019
3.00012
3.00008
1.3107
1.35814
1.41881
1.48116
1.54143
1.59887
1.65413
1.70666
1.75667
1.80429
1.85088
1.89636
1.94048
1.98277
2.02281
2.06183
2.09916
2.13663
2.17161
2.20535
2.23581
2.26303
2.28816
2.31137
2.33343
2.35551
2.37612
2.39553
2.41417
2.43066
2.44638
2.46263
2.47924
2.49664
2.51569
2.53689
2.56063
2.5862
2.61228
2.6389
2.66649
2.69485
2.72252
2.74907
2.77483
2.79983
2.82423
2.84782
2.8698
2.88916
2.90518
2.91826
2.93073
2.94313
2.95498
2.96617
2.9767
2.98637
2.99484
3.00198
3.00797
3.01279
3.01665
3.01975
3.02233
3.0249
3.02657
3.02843
3.03102
3.03379
3.0359
3.03658
3.03674
3.03682
3.03589
3.03414
3.032
3.02986
3.02822
3.02788
3.0269
3.02446
3.02132
3.01805
3.01495
3.01189
3.00911
3.00688
3.00511
3.00373
3.00269
3.0019
3.00133
3.00091
3.00062
3.00041
3.00027
3.00018
3.00012
3.00008
1.34882
1.38288
1.43643
1.49318
1.54944
1.60325
1.65461
1.70474
1.75326
1.80105
1.8475
1.89209
1.9348
1.97604
2.01613
2.05568
2.09477
2.13311
2.17029
2.20495
2.23692
2.26698
2.29469
2.32243
2.34973
2.37647
2.40341
2.42868
2.45241
2.47534
2.49613
2.51603
2.53687
2.55753
2.57862
2.60148
2.62583
2.65077
2.67678
2.70285
2.72868
2.75455
2.78012
2.80468
2.8281
2.8501
2.87087
2.89136
2.91086
2.92688
2.93854
2.94853
2.95813
2.96716
2.97588
2.98435
2.99227
2.99935
3.00567
3.01129
3.01586
3.01939
3.0221
3.0242
3.0262
3.02839
3.02984
3.03128
3.03355
3.03641
3.03852
3.03966
3.04044
3.03966
3.03776
3.03526
3.03266
3.0305
3.02962
3.02925
3.02719
3.02419
3.02081
3.01747
3.01432
3.01122
3.00857
3.00644
3.00477
3.00347
3.00249
3.00176
3.00122
3.00084
3.00057
3.00038
3.00025
3.00016
3.00011
3.00007
1.4019
1.42273
1.45943
1.51096
1.56332
1.61408
1.66347
1.71001
1.7562
1.80208
1.84725
1.8917
1.9346
1.97573
2.0156
2.05474
2.0934
2.13119
2.16768
2.20216
2.2353
2.2665
2.29841
2.32911
2.36089
2.39231
2.42244
2.45244
2.48078
2.50771
2.53493
2.56024
2.58488
2.61049
2.63523
2.65966
2.68522
2.71083
2.73555
2.76124
2.78678
2.81127
2.83565
2.85882
2.88072
2.90086
2.91887
2.93697
2.95477
2.96792
2.97637
2.98402
2.99045
2.99627
3.00174
3.0068
3.0115
3.01549
3.01892
3.02183
3.02419
3.02634
3.0281
3.02932
3.03023
3.0315
3.0328
3.03378
3.03532
3.0376
3.03975
3.04216
3.04283
3.04139
3.03878
3.03577
3.03308
3.0316
3.03141
3.02977
3.02704
3.0237
3.02015
3.01677
3.01357
3.01051
3.008
3.00599
3.00442
3.00321
3.0023
3.00162
3.00113
3.00077
3.00052
3.00035
3.00023
3.00015
3.0001
3.00007
1.46097
1.46851
1.49297
1.52995
1.57956
1.62964
1.67816
1.72587
1.77092
1.81367
1.85545
1.89657
1.93743
1.97798
2.01793
2.05681
2.09454
2.13088
2.16605
2.20025
2.23392
2.26769
2.30152
2.33598
2.37018
2.40405
2.43766
2.46966
2.50155
2.53253
2.5624
2.59314
2.62269
2.65128
2.68046
2.70825
2.73458
2.76179
2.78773
2.81165
2.83587
2.86064
2.88315
2.90541
2.92716
2.94676
2.96375
2.98009
2.99722
3.00953
3.01628
3.02219
3.02656
3.02999
3.03283
3.03508
3.03663
3.03748
3.03779
3.03773
3.03749
3.03711
3.03676
3.03653
3.03653
3.03671
3.03693
3.03746
3.03812
3.03924
3.04153
3.04424
3.0446
3.0427
3.03965
3.03633
3.03368
3.03273
3.03185
3.02966
3.02653
3.02292
3.01927
3.01589
3.01265
3.00972
3.00736
3.00549
3.00403
3.00292
3.00208
3.00146
3.00102
3.00069
3.00047
3.00031
3.00021
3.00014
3.00009
3.00006
1.55946
1.52342
1.5339
1.55902
1.59867
1.64617
1.69369
1.74056
1.78666
1.83098
1.87191
1.91024
1.94747
1.98461
2.02199
2.05941
2.09644
2.13264
2.16806
2.20283
2.23745
2.27223
2.30733
2.34275
2.37811
2.41341
2.44802
2.4826
2.51608
2.5497
2.58276
2.61508
2.64773
2.67981
2.7107
2.74185
2.77067
2.79783
2.82525
2.85143
2.87481
2.8993
2.92259
2.94386
2.96464
2.98447
3.0003
3.01415
3.02981
3.0425
3.04864
3.0538
3.05742
3.05987
3.0615
3.06223
3.0619
3.06059
3.05859
3.05623
3.0537
3.05118
3.04884
3.04681
3.04509
3.04401
3.04341
3.04297
3.04265
3.0429
3.04443
3.04634
3.04628
3.04409
3.04071
3.03709
3.03433
3.03324
3.03188
3.02921
3.02571
3.02189
3.0182
3.01483
3.01161
3.00888
3.00669
3.00497
3.00364
3.00262
3.00187
3.00131
3.00091
3.00062
3.00042
3.00028
3.00019
3.00012
3.00008
3.00006
1.72487
1.61134
1.58624
1.60034
1.625
1.66365
1.70993
1.75595
1.80025
1.8429
1.8841
1.92323
1.95981
1.99491
2.02987
2.06533
2.10145
2.13771
2.17381
2.20947
2.24485
2.28006
2.31535
2.35075
2.38621
2.42171
2.45704
2.49231
2.52736
2.56219
2.59686
2.6312
2.66464
2.69798
2.72993
2.76101
2.79178
2.82079
2.848
2.87569
2.90128
2.92474
2.94887
2.97125
2.98986
3.00903
3.02631
3.0394
3.05284
3.06673
3.07343
3.07754
3.08053
3.08224
3.08312
3.08304
3.08171
3.07919
3.07593
3.07235
3.06872
3.06502
3.0611
3.05766
3.05482
3.05262
3.05102
3.04978
3.04864
3.04801
3.04849
3.04917
3.04819
3.04545
3.04172
3.03787
3.0348
3.03356
3.03164
3.02842
3.02455
3.02058
3.01692
3.01358
3.0105
3.00799
3.00599
3.00443
3.00323
3.00232
3.00165
3.00115
3.0008
3.00054
3.00037
3.00025
3.00016
3.00011
3.00007
3.00005
2.06228
1.72832
1.66588
1.64904
1.6648
1.68882
1.72612
1.77024
1.8146
1.85674
1.89603
1.9333
1.96952
2.00516
2.04051
2.07581
2.11112
2.14679
2.18255
2.21818
2.25358
2.28876
2.32392
2.35906
2.39429
2.42961
2.465
2.50053
2.53606
2.57161
2.60688
2.64175
2.67594
2.70894
2.74138
2.77219
2.80206
2.83155
2.85988
2.88753
2.91425
2.93943
2.96199
2.98463
3.00482
3.02113
3.03797
3.05219
3.06302
3.07646
3.08729
3.09085
3.09395
3.09585
3.09686
3.09687
3.09541
3.09249
3.08882
3.08495
3.08067
3.07587
3.07132
3.06719
3.0636
3.06063
3.05825
3.05627
3.05445
3.05322
3.05289
3.0521
3.04996
3.04641
3.0422
3.03827
3.03513
3.03378
3.031
3.02716
3.02298
3.01897
3.01542
3.01218
3.00936
3.00708
3.00529
3.00389
3.00283
3.00203
3.00143
3.001
3.00069
3.00047
3.00032
3.00021
3.00014
3.00009
3.00006
3.00005
2.50381
2.04313
1.76777
1.71601
1.70995
1.72654
1.75036
1.78629
1.82764
1.86988
1.9102
1.94777
1.98327
2.01778
2.05198
2.08664
2.12192
2.15746
2.19298
2.22831
2.26348
2.29838
2.33312
2.36779
2.40252
2.43738
2.47247
2.50777
2.54326
2.57876
2.61401
2.64877
2.68262
2.71555
2.74726
2.77807
2.80781
2.83674
2.86507
2.89188
2.918
2.94317
2.96624
2.9871
3.00697
3.02446
3.03865
3.05317
3.06501
3.07424
3.08615
3.09383
3.09623
3.0986
3.1
3.10046
3.09946
3.09686
3.09357
3.08996
3.0857
3.08103
3.07659
3.07253
3.06891
3.06581
3.06316
3.06071
3.05864
3.05733
3.05591
3.05384
3.05058
3.04637
3.04187
3.03805
3.03564
3.03347
3.02964
3.02526
3.02096
3.01708
3.01373
3.01073
3.0082
3.00617
3.00459
3.00336
3.00243
3.00174
3.00122
3.00085
3.00059
3.0004
3.00027
3.00018
3.00012
3.00008
3.00005
3.00004
2.8007
2.46244
2.07574
1.82056
1.76951
1.76863
1.78548
1.80924
1.84377
1.88247
1.92281
1.96148
1.99752
2.03177
2.06549
2.09949
2.13415
2.16926
2.20453
2.23964
2.27433
2.30864
2.3427
2.37669
2.41075
2.44498
2.47951
2.51429
2.54931
2.5843
2.61906
2.65319
2.68649
2.7188
2.75012
2.78061
2.81012
2.83896
2.86648
2.89295
2.91784
2.94083
2.96241
2.98201
2.99994
3.01715
3.03202
3.04481
3.05722
3.06726
3.07529
3.08513
3.09012
3.0922
3.09428
3.09532
3.0951
3.09327
3.09061
3.08761
3.08402
3.08015
3.07632
3.07283
3.06968
3.06693
3.06436
3.06222
3.06041
3.05856
3.05627
3.05315
3.04909
3.04464
3.04066
3.03826
3.03592
3.03184
3.02729
3.02279
3.01864
3.01502
3.01195
3.00927
3.00704
3.00527
3.0039
3.00284
3.00205
3.00146
3.00103
3.00071
3.00049
3.00033
3.00023
3.00015
3.0001
3.00007
3.00005
3.00003
2.91332
2.80033
2.46884
2.11129
1.87463
1.8271
1.82631
1.84198
1.86449
1.89715
1.93422
1.9733
2.01121
2.04703
2.08137
2.1151
2.14882
2.18272
2.2167
2.25059
2.28436
2.31798
2.3515
2.38498
2.41853
2.45218
2.48607
2.52014
2.5544
2.58858
2.6225
2.65579
2.68837
2.72008
2.75104
2.78112
2.81033
2.83841
2.86506
2.89011
2.91321
2.93483
2.95453
2.97312
2.99004
3.00536
3.0197
3.03209
3.04295
3.05358
3.06147
3.06873
3.07637
3.07948
3.0818
3.08362
3.08396
3.08323
3.08138
3.07914
3.07658
3.0738
3.07112
3.06857
3.06613
3.0639
3.06214
3.06046
3.05867
3.05645
3.05348
3.04965
3.04579
3.04261
3.04125
3.03777
3.03341
3.02881
3.02428
3.02002
3.01617
3.01286
3.01012
3.0078
3.00588
3.00438
3.00322
3.00234
3.00168
3.00119
3.00084
3.00058
3.0004
3.00027
3.00018
3.00012
3.00008
3.00006
3.00004
3.00003
2.96791
2.92206
2.80748
2.53585
2.1505
1.92737
1.88132
1.88135
1.8961
1.91733
1.94822
1.98545
2.02461
2.06191
2.09692
2.13029
2.16281
2.19522
2.22792
2.26086
2.29384
2.3268
2.35974
2.39264
2.42556
2.45853
2.49163
2.52488
2.55823
2.59147
2.62445
2.65697
2.68895
2.7201
2.75042
2.77968
2.80779
2.83436
2.85938
2.88274
2.90462
2.92498
2.94391
2.96146
2.97747
2.99233
3.0055
3.01764
3.02817
3.0374
3.04581
3.05195
3.05813
3.06373
3.06577
3.06774
3.06901
3.06912
3.06836
3.0672
3.06562
3.06393
3.06226
3.06073
3.05935
3.05812
3.05688
3.05536
3.05346
3.05092
3.04801
3.0455
3.04489
3.04214
3.03837
3.03408
3.02957
3.02509
3.02086
3.01699
3.01357
3.01064
3.00826
3.00633
3.00475
3.00352
3.00258
3.00187
3.00134
3.00095
3.00066
3.00046
3.00032
3.00022
3.00015
3.0001
3.00007
3.00005
3.00003
3.00003
2.98938
2.97229
2.92871
2.82916
2.57966
2.21904
1.98839
1.93934
1.93632
1.95097
1.97093
2.00008
2.03856
2.07626
2.11034
2.1421
2.17332
2.2049
2.2371
2.26975
2.30249
2.33506
2.36747
2.39975
2.43197
2.46418
2.49642
2.52874
2.5611
2.59346
2.62567
2.65734
2.6882
2.71807
2.74692
2.77469
2.80131
2.82661
2.85049
2.87283
2.89371
2.9131
2.93117
2.94784
2.96322
2.97723
2.99003
3.00157
3.01166
3.02084
3.0285
3.035
3.04011
3.04531
3.04917
3.05073
3.0526
3.05329
3.05339
3.05308
3.05246
3.05196
3.05128
3.05084
3.05034
3.04965
3.04872
3.04746
3.0458
3.04515
3.04514
3.04346
3.04085
3.03746
3.03352
3.0293
3.02503
3.02091
3.01712
3.01375
3.01087
3.00845
3.00647
3.0049
3.00368
3.00271
3.00198
3.00143
3.00102
3.00072
3.00051
3.00035
3.00024
3.00017
3.00011
3.00008
3.00005
3.00004
3.00003
3.00002
2.99618
2.99097
2.97659
2.93954
2.85752
2.6404
2.31097
2.06321
1.99741
1.99214
2.00819
2.02755
2.05369
2.08741
2.11986
2.15073
2.18138
2.21278
2.24495
2.2776
2.31018
2.34233
2.37403
2.40558
2.43706
2.46854
2.5
2.53154
2.56319
2.59473
2.62575
2.65588
2.68504
2.71341
2.74095
2.76761
2.79313
2.81731
2.84001
2.86122
2.881
2.89948
2.91671
2.93268
2.94746
2.96096
2.97327
2.98434
2.99423
3.00285
3.01055
3.01694
3.02196
3.02663
3.03071
3.03321
3.03494
3.03648
3.03725
3.03773
3.03826
3.03863
3.03896
3.03927
3.03936
3.03918
3.03921
3.04049
3.04077
3.04049
3.03948
3.03758
3.03485
3.03148
3.02773
3.02384
3.02003
3.01646
3.01328
3.01053
3.00822
3.00633
3.00482
3.00363
3.00269
3.00198
3.00145
3.00104
3.00074
3.00053
3.00037
3.00026
3.00018
3.00012
3.00008
3.00006
3.00004
3.00003
3.00002
3.00002
2.99873
2.99735
2.99199
2.98258
2.95084
2.8873
2.70118
2.43544
2.16564
2.05694
2.04335
2.0596
2.07811
2.10176
2.13024
2.15946
2.18921
2.21995
2.2518
2.28407
2.31619
2.34783
2.37897
2.40993
2.4409
2.47183
2.50269
2.53347
2.56409
2.59424
2.62366
2.65237
2.6803
2.70749
2.73387
2.75929
2.78355
2.80643
2.82789
2.84792
2.8667
2.88433
2.90088
2.91629
2.93055
2.94361
2.95547
2.96617
2.97573
2.98416
2.99157
2.99795
3.00321
3.00765
3.01207
3.0151
3.0169
3.01874
3.02035