/*--------------------------------*- C++ -*----------------------------------*\
| =========                 |                                                 |
| \\      /  F ield         | OpenFOAM: The Open Source CFD Toolbox           |
|  \\    /   O peration     | Version:  2412                                  |
|   \\  /    A nd           | Website:  www.openfoam.com                      |
|    \\/     M anipulation  |                                                 |
\*---------------------------------------------------------------------------*/
FoamFile
{
    version     2.0;
    format      ascii;
    arch        "LSB;label=32;scalar=64";
    class       volScalarField;
    location    "0.5";
    object      p;
}
// * * * * * * * * * * * * * * * * * * * * * * * * * * * * * * * * * * * * * //

dimensions      [1 -1 -2 0 0 0 0];

internalField   nonuniform List<scalar> 
5250
(
1
1
1.00001
1.00002
1.00003
1.0001
1.00021
1.00061
1.00124
1.00373
1.00734
1.02414
1.04312
1.16953
1.30945
2.27234
4.20038
11.0221
12.65
11.8585
11.8004
12.0372
12.3568
12.4207
12.56
1
1
1.00001
1.00002
1.00003
1.0001
1.0002
1.0006
1.00122
1.00366
1.00722
1.02371
1.04233
1.1665
1.30296
2.25224
4.13894
10.8859
12.6612
11.8507
11.7912
12.0293
12.3526
12.4181
12.5574
1
1
1.00001
1.00002
1.00003
1.0001
1.0002
1.00058
1.00118
1.00354
1.00698
1.02286
1.04079
1.16017
1.28994
2.20473
4.00847
10.5709
12.6817
11.8288
11.7544
11.9896
12.3169
12.3831
12.5234
1
1
1.00001
1.00002
1.00003
1.00009
1.00019
1.00056
1.00113
1.00337
1.00665
1.02164
1.03868
1.15097
1.27152
2.12838
3.81517
10.0627
12.7145
11.8016
11.6907
11.9169
12.2462
12.3122
12.4535
1
1
1
1.00001
1.00003
1.00009
1.00018
1.00052
1.00107
1.00316
1.00626
1.02013
1.03616
1.13931
1.25013
2.02793
3.56458
9.3554
12.7541
11.779
11.6078
11.8168
12.1456
12.2086
12.3475
1
1
1
1.00001
1.00003
1.00008
1.00017
1.00049
1.001
1.00294
1.00587
1.01838
1.03369
1.12492
1.22812
1.9036
3.27246
8.43319
12.7646
11.7524
11.5087
11.6856
11.9972
12.0545
12.1896
1
1
1
1.00001
1.00003
1.00007
1.00015
1.00045
1.00092
1.00269
1.00543
1.01647
1.03196
1.10745
1.2092
1.76188
2.94612
7.29231
12.7111
11.7304
11.3939
11.5215
11.7878
11.8319
11.9546
1
1
1
1.00001
1.00002
1.00007
1.00014
1.0004
1.00082
1.0024
1.00489
1.01467
1.02924
1.09342
1.18742
1.64736
2.60787
6.03771
12.4859
11.6674
11.2559
11.3192
11.5005
11.5178
11.6016
1
1
1
1.00001
1.00002
1.00006
1.00012
1.00034
1.0007
1.00207
1.00422
1.01271
1.02521
1.08207
1.15723
1.56862
2.35826
5.28743
11.7926
11.4955
11.0546
11.0385
11.1066
11.0645
11.0384
1
1
1
1.00001
1.00002
1.00005
1.0001
1.00028
1.00058
1.00173
1.00351
1.01078
1.02062
1.07114
1.12973
1.48666
2.14602
4.63279
10.7174
11.1364
10.8856
10.6754
10.6115
10.4201
10.0649
1
1
1
1
1.00001
1.00003
1.00008
1.00016
1.00052
1.00094
1.00342
1.00573
1.02307
1.03785
1.15629
1.28421
2.14481
3.82185
9.42822
10.9079
10.6553
10.2604
9.98751
9.389
7.80772
1
1
1
1
1.00001
1.00003
1.00006
1.00017
1.00034
1.00107
1.00198
1.00713
1.01207
1.04873
1.08052
1.33609
1.71063
3.41802
7.78596
10.7326
10.4443
9.86383
9.37592
8.55952
6.9078
1
1
1
1
1.00001
1.00002
1.00005
1.00015
1.0003
1.0009
1.00185
1.00557
1.0113
1.03516
1.06946
1.23407
1.52382
2.71195
5.8614
10.4259
10.1794
9.56097
8.89692
8.01746
6.64357
1
1
1
1
1.00001
1.00002
1.00004
1.00011
1.00023
1.00068
1.0014
1.00419
1.00834
1.02689
1.04926
1.18444
1.34879
2.32749
4.27928
9.67135
9.68188
9.3198
8.56295
7.67713
6.55836
1
1
1
1
1
1.00001
1.00003
1.00009
1.00018
1.00052
1.00107
1.00317
1.00626
1.02021
1.03599
1.13851
1.24577
2.00383
3.38227
7.97324
9.27172
9.00964
8.35229
7.46731
6.50286
1
1
1
1
1
1.00001
1.00002
1.00006
1.00013
1.00039
1.0008
1.00237
1.00482
1.01466
1.02874
1.09618
1.18427
1.67893
2.64091
5.94975
8.93864
8.77413
8.25037
7.36038
6.48432
1
1
1
1
1
1.00001
1.00002
1.00005
1.00009
1.00027
1.00056
1.00166
1.00339
1.01023
1.02049
1.06597
1.12815
1.45013
2.04732
4.1015
8.20944
8.40161
8.09886
7.36619
6.49489
1
1
1
1
1
1.00001
1.00001
1.00003
1.00006
1.00019
1.00039
1.00114
1.00233
1.00703
1.01387
1.04554
1.08287
1.30956
1.66551
3.16586
6.6276
8.06755
7.88842
7.35682
6.53453
1
1
1
1
1
1
1.00001
1.00002
1.00004
1.00012
1.00025
1.00073
1.00149
1.00446
1.00894
1.02831
1.05344
1.18758
1.38538
2.27102
4.16499
7.51811
7.58006
7.31272
6.65602
1
1
1
1
1
1
1.00001
1.00001
1.00003
1.00006
1.00019
1.00038
1.00112
1.00224
1.00708
1.01272
1.0475
1.08095
1.31687
1.66868
3.114
6.22244
7.30593
7.18833
6.77236
1
1
1
1
1
1
1
1.00001
1.00002
1.00004
1.00011
1.00024
1.0007
1.00143
1.00429
1.00872
1.02685
1.05264
1.1749
1.36738
2.16728
3.83424
6.72534
6.94088
6.73377
1
1
1
1
1
1
1
1
1.00001
1.00003
1.00006
1.00016
1.00034
1.00101
1.00206
1.00631
1.01228
1.04094
1.07619
1.26926
1.59634
2.7685
5.33205
6.62107
6.57888
1
1
1
1
1
1
1
1
1.00001
1.00001
1.00004
1.00008
1.00024
1.00049
1.00146
1.003
1.0091
1.01854
1.0571
1.12048
1.36958
1.8643
3.26079
5.91492
6.35896
1
1
1
1
1
1
1
1
1
1.00001
1.00002
1.00005
1.00011
1.00032
1.00066
1.00196
1.00393
1.01236
1.02293
1.08119
1.15156
1.53284
2.21356
4.28609
5.8982
1
1
1
1
1
1
1
1
1
1
1.00001
1.00002
1.00007
1.00014
1.00041
1.00084
1.00253
1.00496
1.01631
1.02944
1.1087
1.20272
1.70641
2.57859
4.85577
1
1
1
1
1
1
1
1
1
1
1.00001
1.00001
1.00004
1.00007
1.00022
1.00045
1.00136
1.0028
1.00844
1.0174
1.05234
1.11238
1.33145
1.75827
2.88912
1
1
1
1
1
1
1
1
1
1
1
1.00001
1.00001
1.00004
1.00009
1.00026
1.00054
1.00162
1.0033
1.01
1.02022
1.06275
1.12962
1.40056
1.91468
1
1
1
1
1
1
1
1
1
1
1
1
1.00001
1.00002
1.00005
1.0001
1.0003
1.00062
1.00186
1.00373
1.01182
1.02168
1.07736
1.14365
1.49233
1
1
1
1
1
1
1
1
1
1
1
1
1
1.00001
1.00002
1.00005
1.00011
1.00033
1.00068
1.00204
1.00402
1.01311
1.02373
1.08636
1.16177
1
1
1
1
1
1
1
1
1
1
1
1
1
1
1.00001
1.00002
1.00005
1.00014
1.00029
1.00088
1.00181
1.00553
1.0114
1.03499
1.07498
1
1
1
1
1
1
1
1
1
1
1
1
1
1
1
1.00001
1.00002
1.00004
1.00014
1.00028
1.00087
1.00179
1.00551
1.01146
1.03506
1
1
1
1
1
1
1
1
1
1
1
1
1
1
1
1
1.00001
1.00002
1.00005
1.00011
1.00033
1.00069
1.0021
1.00426
1.01354
1
1
1
1
1
1
1
1
1
1
1
1
1
1
1
1
1
1.00001
1.00001
1.00005
1.00009
1.00029
1.0006
1.00187
1.00364
1
1
1
1
1
1
1
1
1
1
1
1
1
1
1
1
1
1
1.00001
1.00001
1.00004
1.00008
1.00025
1.00052
1.00161
1
1
1
1
1
1
1
1
1
1
1
1
1
1
1
1
1
1
1
1
1.00001
1.00003
1.00008
1.00016
1.00051
1
1
1
1
1
1
1
1
1
1
1
1
1
1
1
1
1
1
1
1
1
1.00001
1.00002
1.00005
1.00015
1
1
1
1
1
1
1
1
1
1
1
1
1
1
1
1
1
1
1
1
1
1
1
1.00002
1.00003
1
1
1
1
1
1
1
1
1
1
1
1
1
1
1
1
1
1
1
1
1
1
1
1
1.00001
1
1
1
1
1
1
1
1
1
1
1
1
1
1
1
1
1
1
1
1
1
1
1
1
1
1
1
1
1
1
1
1
1
1
1
1
1
1
1
1
1
1
1
1
1
1
1
1
1
1
1
1
1
1
1
1
1
1
1
1
1
1
1
1
1
1
1
1
1
1
1
1
1
1
1
1
1
1
1
1
1
1
1
1
1
1
1
1
1
1
1
1
1
1
1
1
1
1
1
1
1
1
1
1
1
1
1
1
1
1
1
1
1
1
1
1
1
1
1
1
1
1
1
1
1
1
1
1
1
1
1
1
1
1
1
1
1
1
1
1
1
1
1
1
1
1
1
1
1
1
1
1
1
1
1
1
1
1
1
1
1
1
1
1
1
1
1
1
1
1
1
1
1
1
1
1
1
1
1
1
1
1
1
1
1
1
1
1
1
1
1
1
1
1
1
1
1
1
1
1
1
1
1
1
1
1
1
1
1
1
1
1
1
1
1
1
1
1
1
1
1
1
1
1
1
1
1
1
1
1
1
1
1
1
1
1
1
1
1
1
1
1
1
1
1
1
1
1
1
1
1
1
1
1
1
1
1
1
1
1
1
1
1
1
1
1
1
1
1
1
1
1
1
1
1
1
1
1
1
1
1
1
1
1
1
1
1
1
1
1
1
1
1
1
1
1
1
1
1
1
3.18896
1.59386
1.04877
0.878783
0.889308
0.93168
1.02493
1.121
1.15386
1.1506
1.13879
1.11238
1.08065
1.05981
1.04767
1.03768
1.02797
1.01706
1.00462
0.991033
0.976903
0.962835
0.94928
0.936484
0.924524
0.913428
0.903222
0.893843
0.88529
0.877773
0.871138
0.865113
0.860426
0.856953
0.853716
0.850984
0.849634
0.849303
0.849356
0.849578
0.850243
0.851688
0.853786
0.857698
0.862847
0.866716
0.871455
0.876997
0.883265
0.890162
0.897558
0.905295
0.913192
0.921022
0.92856
0.935615
0.942027
0.947742
0.952821
0.957439
0.961835
0.966267
0.970967
0.976117
0.981801
0.987989
0.994553
1.00128
1.00789
1.01402
1.01934
1.02357
1.02655
1.02829
1.029
1.02912
1.02909
1.02891
1.02837
1.02688
1.0236
1.01974
1.01544
1.01164
1.00858
1.00618
1.00434
1.00299
1.00199
1.00125
1.00081
1.00052
1.00032
1.00019
1.00011
1.00006
1.00003
1.00001
1.00001
0.999993
3.86761
2.37037
1.71229
1.41808
1.27412
1.1785
1.11334
1.08686
1.08783
1.09171
1.10002
1.10002
1.09705
1.08824
1.06948
1.04697
1.02762
1.01182
0.998504
0.986401
0.974633
0.962737
0.950591
0.93832
0.926178
0.914504
0.903612
0.893666
0.88474
0.876992
0.870407
0.864653
0.859889
0.856524
0.853766
0.851259
0.849516
0.849282
0.849351
0.849576
0.850215
0.851685
0.853457
0.856765
0.862392
0.866926
0.871187
0.876588
0.882782
0.889596
0.896895
0.904527
0.912309
0.920047
0.927531
0.93455
0.940979
0.946769
0.951967
0.956716
0.961234
0.965778
0.970571
0.975777
0.981491
0.987696
0.994275
1.00101
1.00763
1.01378
1.01913
1.02339
1.02637
1.02813
1.02889
1.02905
1.02903
1.02889
1.0284
1.02707
1.02414
1.01971
1.01529
1.01159
1.00859
1.00622
1.00439
1.00296
1.00191
1.00127
1.00082
1.00052
1.00032
1.00019
1.00011
1.00006
1.00003
1.00001
1.00001
0.999991
4.67193
3.29019
2.42213
1.87249
1.5162
1.28718
1.14392
1.06045
1.04061
1.04277
1.04942
1.06291
1.06854
1.0674
1.06312
1.0534
1.03448
1.0149
0.997828
0.983291
0.970429
0.958354
0.946616
0.935048
0.923639
0.912577
0.902099
0.892368
0.883523
0.875722
0.869031
0.863325
0.858579
0.854994
0.852352
0.850054
0.848568
0.848167
0.84825
0.8485
0.849209
0.850671
0.852765
0.856971
0.86144
0.865689
0.870612
0.876232
0.882498
0.889332
0.89663
0.904255
0.912042
0.919795
0.927306
0.93438
0.940877
0.94674
0.95201
0.956825
0.961392
0.965961
0.970778
0.976021
0.981771
0.988016
0.994626
1.00138
1.008
1.01414
1.01947
1.02369
1.02662
1.02832
1.02905
1.0292
1.02918
1.02905
1.02856
1.02725
1.02424
1.01946
1.01513
1.01149
1.00852
1.00616
1.00433
1.00289
1.00189
1.00126
1.00082
1.00052
1.00032
1.00019
1.00011
1.00006
1.00003
1.00001
1
0.999991
5.09244
3.8459
2.92982
2.29407
1.86229
1.56711
1.36766
1.23904
1.14907
1.09302
1.06209
1.04993
1.04791
1.04787
1.04743
1.04553
1.04085
1.03071
1.01379
0.994565
0.976772
0.961142
0.947466
0.935185
0.923912
0.913394
0.903419
0.893982
0.885192
0.877255
0.870265
0.864284
0.859326
0.85538
0.852438
0.850173
0.848568
0.848177
0.848219
0.84841
0.849177
0.850283
0.853338
0.856856
0.860909
0.865489
0.870597
0.876287
0.882574
0.889411
0.896703
0.904315
0.912078
0.919792
0.927251
0.934272
0.940729
0.946579
0.95187
0.956741
0.961393
0.966066
0.970996
0.976356
0.982232
0.988596
0.995329
1.00219
1.00889
1.01506
1.02038
1.02455
1.02743
1.02905
1.02968
1.02978
1.02975
1.02957
1.02902
1.0274
1.02422
1.0193
1.01501
1.01141
1.00847
1.00612
1.00424
1.0028
1.00189
1.00126
1.00082
1.00052
1.00032
1.00019
1.00011
1.00006
1.00003
1.00001
1.00001
0.99999
5.3352
4.2435
3.36201
2.69817
2.21152
1.85729
1.59692
1.40498
1.26337
1.16182
1.09268
1.04728
1.02576
1.0159
1.01378
1.0131
1.01158
1.00848
1.00286
0.991934
0.977832
0.962705
0.947977
0.93403
0.921384
0.910218
0.900043
0.890667
0.882153
0.874572
0.867907
0.862242
0.85749
0.853575
0.850683
0.848458
0.846829
0.846423
0.846479
0.846738
0.847443
0.848897
0.851793
0.85541
0.859634
0.864407
0.869735
0.875636
0.882099
0.889061
0.89642
0.904049
0.911792
0.919452
0.926831
0.93376
0.940129
0.945917
0.951191
0.956079
0.960776
0.965509
0.970516
0.975983
0.982
0.988525
0.995436
1.00246
1.00931
1.01558
1.02096
1.02512
1.02798
1.02957
1.03019
1.03026
1.03022
1.03003
1.02923
1.02758
1.02409
1.01907
1.01479
1.01122
1.00831
1.00598
1.00411
1.00273
1.00186
1.00124
1.0008
1.00051
1.00031
1.00018
1.0001
1.00006
1.00003
1.00001
1
0.999991
5.49761
4.53993
3.71616
3.05556
2.54245
2.14877
1.84771
1.61783
1.44197
1.30753
1.20514
1.13149
1.07631
1.03798
1.01521
1.0028
0.996297
0.99349
0.991808
0.98845
0.981675
0.97104
0.958048
0.944257
0.93026
0.916614
0.90427
0.893301
0.883888
0.87593
0.869157
0.863511
0.858811
0.854905
0.851987
0.849718
0.847995
0.847412
0.847431
0.847629
0.848221
0.849545
0.852241
0.85576
0.859876
0.864593
0.869917
0.875824
0.882287
0.889232
0.896545
0.904111
0.911787
0.919384
0.926703
0.93357
0.939873
0.945608
0.950879
0.955785
0.960528
0.965306
0.970358
0.975892
0.982011
0.988673
0.99572
1.00288
1.00983
1.01619
1.02161
1.02581
1.02867
1.03021
1.03075
1.03078
1.03064
1.03038
1.02975
1.02794
1.0243
1.01903
1.01465
1.01108
1.00819
1.00585
1.00397
1.0027
1.00185
1.00123
1.0008
1.0005
1.00031
1.00018
1.00011
1.00006
1.00003
1.00001
1.00001
0.999991
5.61636
4.77091
4.01394
3.3738
2.85179
2.43362
2.10184
1.83887
1.63047
1.46492
1.33328
1.22961
1.14803
1.08608
1.03998
1.00747
0.98667
0.974622
0.96797
0.963409
0.959743
0.955232
0.948769
0.940251
0.929658
0.917877
0.90604
0.894499
0.884166
0.87535
0.867773
0.861434
0.856318
0.852166
0.849166
0.846979
0.845363
0.84495
0.844993
0.845263
0.845988
0.847532
0.850375
0.853952
0.85823
0.863179
0.868775
0.874966
0.881695
0.888894
0.896429
0.90416
0.911959
0.919672
0.927105
0.93408
0.940472
0.946252
0.951557
0.956688
0.961643
0.966548
0.971688
0.977302
0.983458
0.990135
0.997182
1.00433
1.01123
1.01752
1.02281
1.02682
1.02943
1.03076
1.03114
1.03126
1.03136
1.03116
1.03038
1.0283
1.02399
1.01869
1.01437
1.01084
1.00797
1.00564
1.00382
1.00264
1.0018
1.00119
1.00077
1.00049
1.0003
1.00018
1.0001
1.00005
1.00003
1.00001
1
0.999991
5.71965
4.95667
4.26032
3.64953
3.13161
2.70152
2.34894
2.06162
1.82784
1.63785
1.48315
1.3577
1.25629
1.17476
1.10939
1.05888
1.0203
0.991778
0.971929
0.958972
0.950764
0.945241
0.940591
0.936012
0.92991
0.921945
0.912608
0.902868
0.892934
0.882878
0.873677
0.865847
0.859447
0.854326
0.850404
0.847732
0.84571
0.844867
0.84487
0.84508
0.845698
0.847049
0.849733
0.853259
0.857538
0.862526
0.868182
0.874449
0.881267
0.888545
0.896164
0.904004
0.911896
0.919712
0.927249
0.934341
0.940899
0.946858
0.952261
0.957515
0.962977
0.968012
0.973294
0.979119
0.985573
0.992576
0.999851
1.00709
1.01395
1.02008
1.0251
1.02874
1.03095
1.03197
1.03248
1.03288
1.0328
1.03245
1.03128
1.02859
1.02342
1.01837
1.01416
1.01066
1.00781
1.00547
1.00374
1.0026
1.00177
1.00118
1.00076
1.00048
1.0003
1.00018
1.0001
1.00006
1.00003
1.00001
1.00001
0.999991
5.85011
5.12803
4.47501
3.89307
3.38583
2.95217
2.58651
2.28116
2.0273
1.81678
1.64232
1.49778
1.37795
1.2786
1.19638
1.12883
1.07381
1.02968
0.995421
0.969612
0.950645
0.936863
0.927276
0.920122
0.914392
0.909035
0.903284
0.896921
0.889718
0.882377
0.875098
0.868045
0.861614
0.856032
0.851365
0.847819
0.845211
0.84337
0.843029
0.84312
0.843529
0.844543
0.846689
0.85026
0.854634
0.859696
0.865424
0.871775
0.878662
0.885986
0.893638
0.901478
0.909382
0.917116
0.924562
0.931844
0.938534
0.944511
0.950151
0.955604
0.961102
0.96712
0.973493
0.979486
0.986135
0.993674
1.00144
1.00903
1.01606
1.02216
1.02702
1.03045
1.03245
1.03349
1.03427
1.03429
1.0341
1.0334
1.03162
1.02784
1.02252
1.01777
1.0137
1.01029
1.00749
1.0052
1.0036
1.00251
1.0017
1.00113
1.00073
1.00046
1.00028
1.00017
1.0001
1.00005
1.00003
1.00001
1
0.999992
5.98877
5.28095
4.66414
4.10753
3.61361
3.18265
2.81137
2.49435
2.22556
1.99865
1.80751
1.6465
1.51082
1.39638
1.29995
1.21878
1.15067
1.09385
1.04673
1.00816
0.977421
0.953547
0.935201
0.921326
0.911076
0.903385
0.897298
0.89206
0.88713
0.882195
0.877091
0.871785
0.866459
0.861363
0.856694
0.852694
0.849485
0.847015
0.845698
0.845593
0.845719
0.846206
0.847462
0.850133
0.854175
0.858911
0.864375
0.870536
0.877258
0.884434
0.89191
0.899514
0.907122
0.914882
0.922481
0.929382
0.935814
0.941824
0.947492
0.953049
0.958774
0.964921
0.971638
0.978769
0.985717
0.993473
1.00186
1.00992
1.01724
1.02349
1.02838
1.0318
1.03395
1.03548
1.03582
1.03572
1.03536
1.03428
1.03195
1.02732
1.02202
1.01731
1.0133
1.00996
1.00719
1.00499
1.00351
1.00244
1.00166
1.0011
1.00071
1.00045
1.00028
1.00017
1.0001
1.00005
1.00003
1.00001
1.00001
0.999993
6.20948
5.47985
4.84768
4.3059
3.82409
3.39725
3.02305
2.69878
2.41866
2.17908
1.97465
1.80002
1.6508
1.52316
1.4139
1.32038
1.24029
1.1719
1.11349
1.064
1.02221
0.987403
0.95873
0.935652
0.917535
0.903195
0.892458
0.884355
0.87823
0.873368
0.869291
0.865752
0.862413
0.859218
0.856141
0.853266
0.850699
0.848627
0.847603
0.847511
0.847626
0.848087
0.849284
0.851831
0.855858
0.86066
0.866382
0.872897
0.879947
0.887363
0.894921
0.902631
0.910615
0.918356
0.925367
0.931865
0.937848
0.943414
0.948694
0.953904
0.959369
0.965356
0.971977
0.979203
0.986667
0.994205
1.00264
1.01086
1.01822
1.02438
1.02921
1.03267
1.03523
1.0365
1.03657
1.03646
1.03601
1.03493
1.03234
1.02733
1.02161
1.01681
1.01282
1.00954
1.00681
1.00476
1.00337
1.00233
1.00158
1.00105
1.00068
1.00043
1.00026
1.00016
1.00009
1.00005
1.00003
1.00001
1.00001
0.999993
6.30037
5.70883
5.05728
4.50011
4.02233
3.5993
3.22473
2.89507
2.60824
2.35882
2.1425
1.95552
1.79428
1.65506
1.53465
1.43055
1.34002
1.26168
1.1935
1.13455
1.08347
1.03956
1.00203
0.970137
0.94337
0.921478
0.903736
0.88936
0.878656
0.870577
0.864614
0.860192
0.856698
0.853909
0.851764
0.850018
0.848556
0.84782
0.847709
0.847798
0.848159
0.84919
0.851449
0.855066
0.859306
0.864434
0.870727
0.877928
0.885526
0.893312
0.901499
0.910235
0.918624
0.926327
0.933453
0.939942
0.945795
0.951147
0.95621
0.9612
0.966237
0.971679
0.977782
0.98458
0.991774
0.998982
1.00686
1.0147
1.02162
1.02729
1.03168
1.03519
1.03731
1.03786
1.03792
1.03785
1.03745
1.03621
1.03314
1.02711
1.02116
1.01637
1.01244
1.00919
1.00652
1.00459
1.00325
1.00225
1.00152
1.00101
1.00065
1.00041
1.00025
1.00015
1.00009
1.00005
1.00003
1.00001
1.00001
0.999994
6.24309
5.90668
5.28247
4.70851
4.21687
3.79134
3.41604
3.08356
2.79093
2.53394
2.30898
2.11253
1.94108
1.79155
1.66092
1.54684
1.44706
1.3597
1.28299
1.21558
1.15632
1.10433
1.05878
1.01912
0.984702
0.955155
0.929888
0.908932
0.89138
0.877155
0.866364
0.858106
0.851967
0.847432
0.844119
0.841722
0.839844
0.839353
0.839434
0.839796
0.840695
0.842594
0.845865
0.850331
0.855457
0.86151
0.869073
0.877483
0.885874
0.894655
0.904535
0.914219
0.923204
0.931635
0.939299
0.946182
0.952282
0.957781
0.96295
0.967995
0.973336
0.979149
0.985515
0.992529
0.99972
1.00668
1.01401
1.02128
1.02763
1.03264
1.03658
1.03928
1.04015
1.04041
1.04041
1.04028
1.03955
1.03727
1.03228
1.02571
1.02029
1.01572
1.0119
1.00872
1.00616
1.00438
1.00309
1.00213
1.00143
1.00095
1.00061
1.00039
1.00024
1.00014
1.00008
1.00005
1.00003
1.00001
1.00001
0.999995
6.0584
5.8966
5.51037
4.93289
4.42125
3.98481
3.60486
3.26949
2.97033
2.70595
2.47379
2.26892
2.08853
1.92995
1.79043
1.66765
1.55947
1.4639
1.37937
1.30434
1.23782
1.17867
1.12632
1.07988
1.03895
1.00301
0.971518
0.944283
0.92064
0.900635
0.883367
0.869118
0.857879
0.849002
0.842257
0.837233
0.833847
0.831805
0.830989
0.831034
0.831364
0.832297
0.834264
0.838175
0.843319
0.849097
0.856641
0.864948
0.872847
0.881879
0.892345
0.902224
0.911957
0.921404
0.930377
0.938799
0.946654
0.954092
0.961275
0.968282
0.975363
0.982615
0.990112
0.997891
1.00604
1.01395
1.02146
1.02863
1.0348
1.03957
1.04304
1.04428
1.04449
1.04447
1.04432
1.0436
1.0415
1.03689
1.03049
1.02467
1.01952
1.01508
1.01136
1.00826
1.00585
1.00419
1.00294
1.00203
1.00137
1.0009
1.00058
1.00037
1.00023
1.00014
1.00008
1.00005
1.00003
1.00001
1.00001
0.999996
5.76731
5.75648
5.57797
5.17891
4.64994
4.18784
3.79345
3.44984
3.14803
2.87884
2.63851
2.4259
2.23778
2.07119
1.92359
1.79273
1.67666
1.57344
1.48154
1.39949
1.32619
1.26065
1.20208
1.14979
1.10315
1.06164
1.02478
0.992102
0.963241
0.937857
0.915475
0.896056
0.878727
0.864268
0.852561
0.843253
0.835995
0.830669
0.827284
0.825357
0.825378
0.825688
0.82664
0.828718
0.832287
0.836157
0.841186
0.847673
0.8535
0.860755
0.870043
0.87898
0.888295
0.897894
0.907614
0.917375
0.927172
0.937045
0.94701
0.95705
0.967176
0.977374
0.987624
0.997853
1.00774
1.01709
1.02582
1.03352
1.04008
1.04512
1.04779
1.04819
1.04818
1.04801
1.04739
1.04569
1.04184
1.03595
1.02955
1.02373
1.01865
1.01433
1.01072
1.00774
1.00553
1.00395
1.00277
1.0019
1.00128
1.00084
1.00055
1.00035
1.00021
1.00013
1.00008
1.00004
1.00002
1.00001
1.00001
0.999997
5.04033
5.53248
5.49433
5.30212
4.90251
4.42733
4.00623
3.64383
3.32764
3.04943
2.8037
2.58474
2.38949
2.21541
2.06042
1.92208
1.79848
1.68788
1.58885
1.50005
1.42039
1.34889
1.2847
1.22711
1.17541
1.12906
1.08747
1.05024
1.01684
0.98697
0.96027
0.936399
0.915259
0.896457
0.879507
0.865165
0.853574
0.844177
0.837045
0.831662
0.828341
0.825941
0.825948
0.826278
0.827209
0.829378
0.832954
0.837954
0.842817
0.847745
0.855108
0.862266
0.869947
0.878335
0.887338
0.896954
0.907268
0.918308
0.929953
0.942114
0.95464
0.967389
0.980154
0.992727
1.00493
1.01623
1.02635
1.03518
1.04245
1.04771
1.05021
1.05052
1.05044
1.0501
1.04909
1.0467
1.04178
1.03529
1.02864
1.02277
1.01776
1.01356
1.01008
1.00725
1.00522
1.00373
1.0026
1.00178
1.0012
1.00079
1.00051
1.00033
1.0002
1.00012
1.00007
1.00004
1.00002
1.00001
1.00001
0.999998
3.34917
4.99338
5.30208
5.24492
5.05328
4.66577
4.23989
3.85727
3.52364
3.23165
2.97363
2.7455
2.54331
2.36317
2.2012
2.05566
1.92478
1.80711
1.70127
1.606
1.52026
1.44307
1.37357
1.31099
1.2546
1.20379
1.15795
1.1166
1.07923
1.04544
1.01495
0.987327
0.962595
0.940251
0.920625
0.902945
0.887239
0.873693
0.862611
0.853758
0.846997
0.841684
0.838323
0.835995
0.835358
0.835531
0.836198
0.837629
0.840584
0.843457
0.848564
0.854583
0.861149
0.868699
0.877107
0.886359
0.896569
0.907812
0.919946
0.932789
0.94609
0.959806
0.973934
0.987926
1.00137
1.01388
1.02505
1.03463
1.0425
1.04808
1.0507
1.05109
1.05102
1.05066
1.04959
1.04702
1.04163
1.03439
1.02751
1.02167
1.01678
1.01273
1.00938
1.00675
1.00488
1.00346
1.00241
1.00165
1.00111
1.00073
1.00047
1.0003
1.00019
1.00011
1.00007
1.00004
1.00002
1.00001
1.00001
0.999998
2.07247
3.69497
4.85754
5.08143
5.01558
4.82994
4.46355
4.08211
3.73326
3.42508
3.15418
2.91518
2.70287
2.51352
2.34419
2.19219
2.05523
1.93114
1.81891
1.71749
1.62595
1.54329
1.46866
1.40126
1.34036
1.28529
1.23543
1.19024
1.1492
1.11188
1.07795
1.04711
1.01917
0.993988
0.97138
0.951282
0.9335
0.917864
0.904045
0.891444
0.881486
0.873247
0.866738
0.861856
0.85827
0.855976
0.854684
0.854762
0.855146
0.85593
0.857777
0.861339
0.866007
0.871877
0.878854
0.886921
0.896246
0.906969
0.918771
0.931308
0.944634
0.958845
0.973328
0.987724
1.00158
1.01446
1.02589
1.03564
1.04346
1.04882
1.05115
1.05167
1.05162
1.05129
1.05024
1.04739
1.04152
1.03327
1.02628
1.02052
1.01578
1.01189
1.0087
1.00628
1.00452
1.0032
1.00222
1.00151
1.00102
1.00067
1.00043
1.00028
1.00017
1.00011
1.00006
1.00004
1.00002
1.00001
1.00001
0.999999
1.54047
2.16899
3.77815
4.7122
4.87567
4.80772
4.63413
4.29765
3.95351
3.63223
3.34539
3.09254
2.86926
2.67097
2.49367
2.33385
2.18938
2.05891
1.94093
1.83408
1.73716
1.64932
1.56977
1.49771
1.43242
1.37321
1.31945
1.27055
1.22598
1.18531
1.14817
1.11431
1.0835
1.05562
1.03044
1.00797
0.987942
0.970272
0.954619
0.941411
0.929256
0.918712
0.909282
0.901622
0.895562
0.890605
0.887232
0.884809
0.88343
0.883474
0.883734
0.884788
0.886952
0.89111
0.896615
0.903341
0.911437
0.921065
0.931767
0.943358
0.955938
0.969355
0.983066
0.996688
1.00977
1.02183
1.03244
1.04137
1.04812
1.05216
1.05395
1.05431
1.05424
1.05382
1.05239
1.04847
1.04036
1.03167
1.02484
1.01929
1.01475
1.01103
1.00803
1.0058
1.00415
1.00292
1.00202
1.00137
1.00092
1.00061
1.00039
1.00025
1.00016
1.0001
1.00006
1.00003
1.00002
1.00001
1.00001
0.999999
1.2224
1.5002
2.25856
3.75864
4.54285
4.68005
4.61634
4.45804
4.16175
3.85057
3.55217
3.28365
3.04625
2.83639
2.64958
2.48177
2.33011
2.19262
2.06791
1.95487
1.85257
1.75987
1.67576
1.59936
1.52994
1.46676
1.40922
1.35671
1.30872
1.2648
1.22461
1.18783
1.15428
1.12379
1.09623
1.07151
1.04942
1.02982
1.01253
0.997334
0.983922
0.972143
0.962122
0.953078
0.945246
0.938462
0.932446
0.928073
0.924828
0.922488
0.922193
0.922333
0.923047
0.924708
0.928354
0.933715
0.940475
0.948723
0.958169
0.968441
0.979751
0.991707
1.00399
1.01597
1.02737
1.03759
1.04645
1.05329
1.05787
1.06034
1.06123
1.06129
1.06109
1.06
1.05601
1.04713
1.03744
1.0298
1.02341
1.01809
1.01374
1.01021
1.00741
1.00533
1.00379
1.00266
1.00183
1.00124
1.00083
1.00055
1.00035
1.00023
1.00014
1.00009
1.00005
1.00003
1.00002
1.00001
1.00001
1
1.07636
1.22158
1.49949
2.22379
3.66989
4.35032
4.48854
4.43517
4.29897
4.05004
3.76819
3.48985
3.237
3.01277
2.81417
2.63683
2.47708
2.33246
2.20132
2.08238
1.97445
1.87646
1.78741
1.70642
1.63269
1.56549
1.50417
1.4481
1.39677
1.34967
1.30646
1.26685
1.23071
1.19782
1.16805
1.14124
1.11721
1.09574
1.07661
1.05961
1.04458
1.03139
1.01975
1.00955
1.0006
0.992911
0.98648
0.981017
0.976715
0.973252
0.970959
0.970561
0.970639
0.971175
0.972635
0.975932
0.981521
0.98836
0.996386
1.00529
1.01479
1.02479
1.03468
1.04427
1.05304
1.06066
1.06658
1.07082
1.07317
1.0741
1.07418
1.07385
1.07151
1.06485
1.05337
1.04395
1.03569
1.0284
1.02216
1.01697
1.01279
1.00947
1.00685
1.0049
1.00347
1.00242
1.00166
1.00113
1.00075
1.00049
1.00032
1.0002
1.00013
1.00008
1.00005
1.00003
1.00002
1.00001
1.00001
1
1.02607
1.08801
1.17332
1.5105
2.09374
3.47989
4.14344
4.30017
4.26373
4.15715
3.96197
3.70477
3.44371
3.20507
2.99247
2.80322
2.63359
2.48058
2.34214
2.21668
2.10287
1.99951
1.90551
1.81989
1.7418
1.67048
1.60524
1.54545
1.49057
1.44018
1.39399
1.35166
1.31292
1.27761
1.24557
1.21659
1.19048
1.16708
1.14617
1.12753
1.11088
1.09604
1.08284
1.07115
1.06087
1.0519
1.04421
1.03768
1.03242
1.02843
1.0253
1.02394
1.02395
1.02422
1.02503
1.0269
1.03079
1.03597
1.04221
1.04903
1.0565
1.06408
1.07155
1.07842
1.08427
1.08881
1.09187
1.09349
1.09395
1.09374
1.09187
1.08556
1.07328
1.06259
1.05249
1.04309
1.03461
1.02725
1.02106
1.01599
1.01194
1.00879
1.00635
1.00451
1.00318
1.00221
1.00151
1.00102
1.00068
1.00045
1.00029
1.00019
1.00012
1.00007
1.00004
1.00003
1.00002
1.00001
1.00001
1
1.01233
1.02262
1.08062
1.15411
1.46228
1.97754
3.2178
3.91495
4.11768
4.10228
4.02832
3.88471
3.64683
3.40609
3.18461
2.9846
2.8042
2.64111
2.49353
2.36005
2.23926
2.12976
2.03025
1.93962
1.85688
1.78121
1.71188
1.64832
1.59003
1.53652
1.48727
1.442
1.40053
1.36271
1.32837
1.2973
1.26925
1.24395
1.22113
1.20061
1.18216
1.16563
1.1508
1.13759
1.12585
1.11556
1.10659
1.09894
1.09262
1.08758
1.08382
1.08117
1.08037
1.08041
1.08074
1.08165
1.08374
1.08758
1.09223
1.0974
1.10276
1.10791
1.11274
1.11658
1.11938
1.1211
1.12173
1.12142
1.11896
1.11096
1.099
1.08731
1.07532
1.06354
1.05244
1.04237
1.03356
1.02611
1.01996
1.01502
1.01114
1.00813
1.00586
1.00415
1.0029
1.00201
1.00137
1.00093
1.00062
1.0004
1.00026
1.00017
1.00011
1.00007
1.00004
1.00002
1.00001
1.00001
1.00001
1
1.0032
1.01063
1.01978
1.06914
1.13232
1.39446
1.83029
2.87494
3.67705
3.94009
3.95458
3.90285
3.78474
3.58353
3.3756
3.17571
2.9884
2.81557
2.65793
2.51507
2.38596
2.26923
2.1634
2.06718
1.9794
1.89913
1.82561
1.75814
1.69607
1.63889
1.58625
1.538
1.49389
1.45362
1.4169
1.38353
1.35326
1.32584
1.30103
1.27859
1.25832
1.24002
1.22354
1.20876
1.19554
1.18386
1.17361
1.16481
1.15734
1.15133
1.14647
1.143
1.14083
1.13999
1.14003
1.14033
1.14113
1.14299
1.14603
1.1494
1.15228
1.15499
1.15685
1.15786
1.158
1.15689
1.15274
1.14312
1.13234
1.11969
1.10574
1.09131
1.07712
1.06379
1.0517
1.04109
1.03209
1.02465
1.01864
1.0139
1.01021
1.0074
1.0053
1.00374
1.00261
1.0018
1.00122
1.00082
1.00055
1.00036
1.00023
1.00015
1.00009
1.00006
1.00004
1.00002
1.00001
1.00001
1.00001
1
1.00106
1.00329
1.0068
1.02099
1.04506
1.13059
1.28693
1.69407
2.49448
3.44305
3.76145
3.81578
3.77534
3.67558
3.52189
3.35036
3.17331
2.9998
2.83575
2.68451
2.54687
2.42206
2.30885
2.20589
2.11204
2.02618
1.94751
1.87526
1.8088
1.74773
1.69182
1.64052
1.59345
1.55038
1.51107
1.47526
1.44268
1.41307
1.38616
1.36173
1.33956
1.31947
1.30128
1.28489
1.27018
1.2571
1.24554
1.2355
1.22689
1.21971
1.21381
1.20923
1.20593
1.20388
1.20221
1.2016
1.20179
1.2023
1.20323
1.20395
1.20433
1.20409
1.20288
1.19941
1.19336
1.18495
1.17375
1.15992
1.14408
1.12702
1.10959
1.0926
1.07666
1.06215
1.04942
1.03864
1.02974
1.02255
1.01687
1.01245
1.00908
1.00653
1.00465
1.00327
1.00227
1.00156
1.00106
1.00071
1.00047
1.00031
1.0002
1.00013
1.00008
1.00005
1.00003
1.00002
1.00001
1.00001
1
1
1.00031
1.00097
1.00201
1.00622
1.01308
1.03944
1.08611
1.23322
1.50816
2.13432
3.18855
3.53484
3.66476
3.64045
3.56744
3.45593
3.32244
3.17075
3.01453
2.86282
2.71984
2.58795
2.46711
2.35667
2.25569
2.16345
2.07886
2.00136
1.93046
1.86543
1.8056
1.75061
1.70019
1.65404
1.61188
1.57342
1.53836
1.5064
1.47728
1.45077
1.42663
1.40468
1.38472
1.36665
1.35036
1.33576
1.32278
1.31136
1.30144
1.29297
1.28583
1.27999
1.27537
1.27175
1.2686
1.26606
1.26471
1.26341
1.26163
1.25926
1.25593
1.25113
1.24433
1.23501
1.22283
1.20774
1.19009
1.17054
1.14994
1.12919
1.10901
1.09
1.07273
1.0577
1.04505
1.03467
1.02631
1.01971
1.01458
1.01066
1.00771
1.00551
1.0039
1.00273
1.00189
1.0013
1.00088
1.00059
1.00039
1.00026
1.00017
1.00011
1.00007
1.00004
1.00003
1.00002
1.00001
1.00001
1
1
1.0001
1.00021
1.00066
1.00138
1.00429
1.00905
1.02742
1.06019
1.16361
1.35586
1.80854
2.66614
3.26776
3.47582
3.49328
3.45837
3.37992
3.27976
3.15861
3.02546
2.8915
2.76105
2.63721
2.52151
2.41436
2.31555
2.22479
2.14138
2.06474
1.99439
1.92979
1.87053
1.81626
1.76662
1.72129
1.67988
1.64207
1.60753
1.57598
1.54717
1.52084
1.49679
1.47484
1.45486
1.43674
1.4204
1.40575
1.39272
1.38126
1.37126
1.3626
1.35516
1.34878
1.34312
1.33782
1.33302
1.32904
1.32453
1.31888
1.31204
1.30347
1.29261
1.27897
1.26236
1.2429
1.22105
1.19753
1.17317
1.14866
1.12464
1.10207
1.08194
1.06473
1.05039
1.03869
1.02933
1.02196
1.01626
1.01191
1.00864
1.0062
1.00441
1.0031
1.00216
1.00149
1.00102
1.00069
1.00046
1.00031
1.0002
1.00013
1.00008
1.00005
1.00003
1.00002
1.00001
1.00001
1
1
1
1.00003
1.00005
1.00017
1.00035
1.00109
1.00228
1.00701
1.01485
1.04381
1.09481
1.24272
1.51763
2.1183
2.94818
3.22451
3.35812
3.34124
3.28894
3.21315
3.12524
3.02178
2.91127
2.7988
2.68766
2.58042
2.47865
2.38323
2.29447
2.21236
2.1367
2.06714
2.00325
1.94468
1.89108
1.84205
1.79719
1.75611
1.71847
1.68397
1.65235
1.62336
1.59675
1.57237
1.55011
1.52984
1.51144
1.4948
1.47983
1.46642
1.45443
1.4437
1.43398
1.42501
1.41644
1.40801
1.40003
1.39193
1.38216
1.37075
1.35735
1.34145
1.32277
1.30127
1.27719
1.25104
1.2234
1.19461
1.16519
1.13661
1.11063
1.08816
1.06924
1.05363
1.04101
1.03099
1.02317
1.01715
1.01257
1.00913
1.00657
1.00469
1.00332
1.00233
1.00162
1.00111
1.00076
1.00051
1.00035
1.00023
1.00015
1.0001
1.00006
1.00004
1.00003
1.00002
1.00001
1.00001
1
1
1
1
1.00001
1.00003
1.0001
1.0002
1.00064
1.00132