/*--------------------------------*- C++ -*----------------------------------*\
| =========                 |                                                 |
| \\      /  F ield         | OpenFOAM: The Open Source CFD Toolbox           |
|  \\    /   O peration     | Version:  2412                                  |
|   \\  /    A nd           | Website:  www.openfoam.com                      |
|    \\/     M anipulation  |                                                 |
\*---------------------------------------------------------------------------*/
FoamFile
{
    version     2.0;
    format      ascii;
    arch        "LSB;label=32;scalar=64";
    class       surfaceScalarField;
    location    "0.5";
    object      phi;
}
// * * * * * * * * * * * * * * * * * * * * * * * * * * * * * * * * * * * * * //

dimensions      [1 0 -1 0 0 0 0];

oriented        oriented;

internalField   nonuniform List<scalar> 
10325
(
0.00840003
4.24069e-12
0.00840003
3.35747e-11
0.00840003
1.02754e-10
0.00840003
3.17433e-10
0.00840002
7.50325e-10
0.0084
2.08127e-09
0.00839998
4.70906e-09
0.00839984
1.30285e-08
0.00839968
2.93661e-08
0.00839881
8.3141e-08
0.00839765
1.8521e-07
0.00839176
5.60773e-07
0.0083849
1.22232e-06
0.0083489
4.27066e-06
0.00829746
1.06712e-05
0.00816246
4.50964e-05
0.00767339
0.000148806
0.00589965
0.000929941
0.0054028
0.000862149
0.0045301
0.000772753
0.00364597
0.000805208
0.00268837
0.000891076
0.00163029
0.000939897
0.000715172
0.000877416
0.000854661
0.00840003
8.54178e-12
0.00840003
6.70957e-11
0.00840003
2.05532e-10
0.00840003
6.29541e-10
0.00840002
1.4843e-09
0.0084
4.07929e-09
0.00839998
9.18217e-09
0.00839985
2.5323e-08
0.00839969
5.67118e-08
0.00839885
1.62115e-07
0.00839774
3.55144e-07
0.00839201
1.11157e-06
0.00838533
2.36022e-06
0.00834972
8.58576e-06
0.00829871
2.09592e-05
0.00816507
9.28713e-05
0.00767562
0.000295488
0.00590377
0.00183843
0.00539838
0.0017374
0.00455084
0.0015264
0.0036701
0.00161204
0.00272091
0.00177771
0.00167854
0.00186757
0.000757398
0.00175858
0.0017467
0.00840003
1.2879e-11
0.00840003
1.00287e-10
0.00840003
3.08297e-10
0.00840003
9.35141e-10
0.00840002
2.20422e-09
0.00840001
5.96358e-09
0.00839998
1.3349e-08
0.00839987
3.6328e-08
0.00839972
8.07399e-08
0.00839894
2.30791e-07
0.00839791
4.97788e-07
0.00839253
1.59299e-06
0.0083863
3.30375e-06
0.00835272
1.24096e-05
0.00830394
2.94877e-05
0.00817349
0.000137073
0.00770023
0.000425883
0.00598257
0.00265574
0.00546999
0.00263191
0.00463324
0.00228329
0.0037595
0.00242124
0.0028147
0.00266802
0.00176319
0.00281155
0.000808986
0.00266871
0.00268225
0.00840003
1.72688e-11
0.00840003
1.33218e-10
0.00840003
4.10884e-10
0.00840003
1.23684e-09
0.00840002
2.91929e-09
0.00840001
7.78282e-09
0.00839999
1.73552e-08
0.00839989
4.61687e-08
0.00839975
1.01614e-07
0.00839907
2.86538e-07
0.00839815
6.04217e-07
0.00839319
1.99074e-06
0.00838772
3.94483e-06
0.00835742
1.57104e-05
0.00831262
3.52923e-05
0.00818865
0.000172611
0.00774669
0.000524456
0.00615287
0.00329925
0.00563118
0.00354251
0.00479337
0.00305992
0.00392271
0.00324024
0.00297909
0.00357024
0.00189473
0.00379724
0.00088032
0.00362689
0.00367854
0.00840003
2.18758e-11
0.00840003
1.66538e-10
0.00840003
5.14681e-10
0.00840003
1.53461e-09
0.00840002
3.62668e-09
0.00840001
9.56628e-09
0.00839999
2.13857e-08
0.0083999
5.58319e-08
0.00839979
1.22619e-07
0.00839924
3.34753e-07
0.00839841
6.91003e-07
0.00839398
2.31649e-06
0.00839046
4.11504e-06
0.00836136
1.88398e-05
0.008331
3.71449e-05
0.00820567
0.000197761
0.00779953
0.000578507
0.00644786
0.00366883
0.00589938
0.0044664
0.00502727
0.00388226
0.00414803
0.00408767
0.00320046
0.00449287
0.00207312
0.00483187
0.000985287
0.00465093
0.00476643
0.00840003
2.62596e-11
0.00840003
1.99874e-10
0.00840003
6.16098e-10
0.00840003
1.83394e-09
0.00840002
4.3455e-09
0.00840001
1.1397e-08
0.00839999
2.55924e-08
0.00839991
6.58681e-08
0.0083998
1.4523e-07
0.00839931
3.85062e-07
0.00839865
8.0959e-07
0.00839499
2.56561e-06
0.00839381
4.20933e-06
0.00836468
2.05851e-05
0.00835485
3.69933e-05
0.00821739
0.000200029
0.00785985
0.000585226
0.00692818
0.00362947
0.00628909
0.00539865
0.00533243
0.00481253
0.00443061
0.00498422
0.00348719
0.00542571
0.00231496
0.00593266
0.00112304
0.00577525
0.00597562
0.00840003
2.91521e-11
0.00840003
2.24826e-10
0.00840003
6.89141e-10
0.00840003
2.0725e-09
0.00840002
4.92331e-09
0.00840001
1.30927e-08
0.00839999
2.96391e-08
0.00839991
7.68547e-08
0.00839981
1.71411e-07
0.00839936
4.44962e-07
0.00839872
9.74632e-07
0.00839589
2.67696e-06
0.00839281
5.56137e-06
0.00837293
1.83324e-05
0.00834598
4.13888e-05
0.00825784
0.00016457
0.00797926
0.000521091
0.00765029
0.00297886
0.00678189
0.00632281
0.00569277
0.00590365
0.00476581
0.0059222
0.00381775
0.00637431
0.00262092
0.0070479
0.00132263
0.00697806
0.00736059
0.00840003
3.03266e-11
0.00840003
2.39021e-10
0.00840003
7.26926e-10
0.00840003
2.20937e-09
0.00840002
5.25032e-09
0.00840001
1.41257e-08
0.00839999
3.20781e-08
0.00839991
8.44755e-08
0.00839981
1.8937e-07
0.00839935
4.99481e-07
0.00839876
1.11226e-06
0.00839623
2.95592e-06
0.00839223
6.70687e-06
0.00838027
1.76849e-05
0.00834592
4.72123e-05
0.0083165
0.000143288
0.00821597
0.000431182
0.00845178
0.00216711
0.00723159
0.00723197
0.00600459
0.00707527
0.00513875
0.0068334
0.00418843
0.00734687
0.00301562
0.0081546
0.00161203
0.00828262
0.00902133
0.00840003
2.51883e-11
0.00840003
2.29375e-10
0.00840003
6.91803e-10
0.00840003
2.1408e-09
0.00840002
5.101e-09
0.00840001
1.40244e-08
0.00839999
3.20961e-08
0.00839992
8.66045e-08
0.00839983
1.94908e-07
0.00839943
5.28245e-07
0.00839893
1.16192e-06
0.00839664
3.15018e-06
0.00839392
6.93817e-06
0.0083806
1.93142e-05
0.0083681
4.24902e-05
0.00829563
0.000153486
0.00830782
0.00040247
0.0082178
0.00188617
0.00722354
0.00758126
0.00629614
0.00787174
0.00557416
0.00764139
0.00470632
0.00823147
0.00363894
0.00918907
0.00212937
0.00970419
0.0111841
0.00840003
1.01772e-11
0.00840003
2.91598e-10
0.00840003
4.70509e-10
0.00840003
2.65014e-09
0.00840003
3.80125e-09
0.00840001
1.80372e-08
0.0084
2.58026e-08
0.00839992
1.17304e-07
0.00839989
1.56733e-07
0.00839936
7.58154e-07
0.00839931
8.47904e-07
0.00839611
4.71402e-06
0.00839743
4.09218e-06
0.0083768
3.01081e-05
0.00838778
2.21348e-05
0.00828435
0.000210702
0.00833364
0.00030236
0.00823239
0.00177436
0.00740259
0.00774254
0.00676865
0.00843923
0.00607955
0.00837045
0.00541642
0.0088973
0.00452832
0.0100708
0.00295285
0.0111902
0.0141628
0.00840003
3.7445e-11
0.00840003
9.04624e-11
0.00840003
6.31161e-10
0.00840003
9.56641e-10
0.00840003
4.55587e-09
0.00840004
6.42526e-09
0.00840002
2.8897e-08
0.00840007
3.86308e-08
0.00839992
1.8973e-07
0.00840035
2.10184e-07
0.00839904
1.34607e-06
0.00840187
1.17214e-06
0.00839198
9.33188e-06
0.00841028
7.54017e-06
0.00834481
6.54205e-05
0.00845741
6.59486e-05
0.00813439
0.000549705
0.00848686
0.00130232
0.00795855
0.00753925
0.0073248
0.00907504
0.00674361
0.00899497
0.0062765
0.00937738
0.00587366
0.0104409
0.00564991
0.0113161
0.0114578
0.00835405
0.00840003
1.85312e-11
0.00840003
1.10029e-10
0.00840003
3.64272e-10
0.00840003
1.04558e-09
0.00840003
2.60791e-09
0.00840002
6.64027e-09
0.00840003
1.57051e-08
0.00839999
3.90384e-08
0.00840003
9.17069e-08
0.00839972
2.42541e-07
0.00840023
5.42973e-07
0.00839785
1.76507e-06
0.00840168
3.71195e-06
0.00838651
1.38964e-05
0.00841107
3.00989e-05
0.00831745
0.000117445
0.00847568
0.000327603
0.00824523
0.00145634
0.00869158
0.00628067
0.00822771
0.00962375
0.00760806
0.00974927
0.00728941
0.00972662
0.00718568
0.0104928
0.00734267
0.0110547
0.0106252
0.00811261
0.00840003
1.44105e-11
0.00840003
1.15763e-10
0.00840003
3.48616e-10
0.00840003
1.08777e-09
0.00840003
2.57205e-09
0.00840002
7.19596e-09
0.00840001
1.63121e-08
0.00839996
4.50974e-08
0.00839991
1.01346e-07
0.00839962
2.83643e-07
0.00839927
6.30227e-07
0.00839792
1.79594e-06
0.00839589
4.08326e-06
0.00839175
1.1376e-05
0.0083786
2.89138e-05
0.00837763
8.07566e-05
0.00832677
0.000265134
0.00870754
0.000890671
0.00999562
0.00382948
0.00941866
0.0103139
0.008779
0.010513
0.00835512
0.0102089
0.00835599
0.0104614
0.00856413
0.0107641
0.0102168
0.00888664
0.00840003
1.19468e-11
0.00840003
9.539e-11
0.00840003
2.92373e-10
0.00840003
8.99372e-10
0.00840003
2.1429e-09
0.00840003
5.86869e-09
0.00840002
1.33731e-08
0.0084
3.61803e-08
0.00839999
8.17995e-08
0.00839986
2.23896e-07
0.00839979
5.06273e-07
0.0083991
1.41766e-06
0.00839887
3.16961e-06
0.00839492
9.33785e-06
0.00839454
2.05067e-05
0.00837835
6.74003e-05
0.00842682
0.000169442
0.00851048
0.000669753
0.0096259
0.00232389
0.00982107
0.00978318
0.00968939
0.0106442
0.0091983
0.0106912
0.00916734
0.0104226
0.00940022
0.0104535
0.00994257
0.009596
0.00840003
1.08905e-11
0.00840003
8.63834e-11
0.00840003
2.62526e-10
0.00840003
8.0821e-10
0.00840003
1.92162e-09
0.00840003
5.2644e-09
0.00840002
1.20017e-08
0.00840001
3.21437e-08
0.0084
7.25775e-08
0.00839993
1.93353e-07
0.00839987
4.33003e-07
0.00839956
1.17314e-06
0.00839928
2.51764e-06
0.00839684
7.76162e-06
0.00839879
1.45143e-05
0.00838426
5.80862e-05
0.00840386
0.000116512
0.00842882
0.000557348
0.00893386
0.00164816
0.00999201
0.00795386
0.00999807
0.0106142
0.00978271
0.0108898
0.0096793
0.0104888
0.0098902
0.0101707
0.009666
0.0100547
0.00840003
8.83805e-12
0.00840003
7.12686e-11
0.00840003
2.16541e-10
0.00840003
6.73365e-10
0.00840003
1.60067e-09
0.00840003
4.44115e-09
0.00840003
1.0131e-08
0.00840002
2.7562e-08
0.00840001
6.24184e-08
0.00839994
1.6879e-07
0.0083999
3.80594e-07
0.00839952
1.02675e-06
0.00839911
2.29391e-06
0.00839723
6.29258e-06
0.00839422
1.39243e-05
0.008388
4.16436e-05
0.00838397
9.81351e-05
0.008481
0.000362959
0.00878016
0.00111776
0.0106134
0.00532726
0.0106816
0.0105994
0.0105038
0.011136
0.0101954
0.0108803
0.0102694
0.010094
0.00947714
0.0104449
0.00840003
6.98626e-12
0.00840003
5.5677e-11
0.00840003
1.69851e-10
0.00840003
5.22274e-10
0.00840003
1.24563e-09
0.00840003
3.39603e-09
0.00840003
7.7647e-09
0.00840002
2.06611e-08
0.00840003
4.67963e-08
0.00839999
1.24146e-07
0.0084
2.80159e-07
0.00839976
7.49625e-07
0.00839983
1.6871e-06
0.00839828
4.64224e-06
0.00839839
1.03336e-05
0.00839449
3.03114e-05
0.00839222
7.08149e-05
0.00843644
0.000235724
0.0088646
0.000711019
0.0108594
0.00298768
0.0111884
0.00998424
0.0113292
0.011008
0.0110801
0.0111494
0.0107652
0.0104356
0.00946823
0.0107527
0.00840003
5.1139e-12
0.00840003
4.17305e-11
0.00840003
1.27703e-10
0.00840003
3.92968e-10
0.00840003
9.42e-10
0.00840003
2.57656e-09
0.00840003
5.92276e-09
0.00840003
1.58515e-08
0.00840003
3.60928e-08
0.0084
9.63523e-08
0.0084
2.18291e-07
0.00839986
5.85331e-07
0.00839985
1.31716e-06
0.00839921
3.59237e-06
0.0083992
7.93307e-06
0.00839565
2.34168e-05
0.00840741
5.04775e-05
0.00841722
0.000173494
0.00859322
0.000482604
0.00928531
0.00207386
0.011546
0.00706765
0.0117966
0.0107067
0.0116406
0.0112905
0.0111747
0.010938
0.00957952
0.011072
0.00840003
2.22889e-12
0.00840003
3.38879e-11
0.00840003
7.37918e-11
0.00840003
3.07431e-10
0.00840003
5.49999e-10
0.00840003
1.99357e-09
0.00840003
3.44676e-09
0.00840003
1.21729e-08
0.00840004
2.08897e-08
0.00840002
7.35668e-08
0.00840007
1.25761e-07
0.00839998
4.46219e-07
0.00840027
7.55309e-07
0.00839966
2.77726e-06
0.00840161
4.40635e-06
0.00839866
1.86156e-05
0.00841177
2.51538e-05
0.00841824
0.000131525
0.00858029
0.000224665
0.00938553
0.00110368
0.0118606
0.00363855
0.0122835
0.01025
0.0125519
0.0110683
0.0122042
0.011296
0.0101964
0.0116249
0.00840003
2.78475e-12
0.00840003
1.5925e-11
0.00840003
5.98658e-11
0.00840003
1.55468e-10
0.00840003
4.4298e-10
0.00840003
1.03248e-09
0.00840003
2.80599e-09
0.00840003
6.39886e-09
0.00840003
1.72111e-08
0.00840005
3.89614e-08
0.00840002
1.04286e-07
0.00840017
2.34624e-07
0.00840003
6.29303e-07
0.00840101
1.38936e-06
0.00839971
3.93289e-06
0.00840867
8.15688e-06
0.00839428
2.64968e-05
0.00845883
5.50688e-05
0.00842478
0.000200044
0.00892922
0.000531911
0.00992038
0.00237205
0.0124534
0.00711458
0.0127389
0.010688
0.0128247
0.0111461
0.0108698
0.0121471
0.00840003
2.48155e-12
0.00840003
8.94756e-12
0.00840003
4.48912e-11
0.00840003
8.99813e-11
0.00840003
3.25666e-10
0.00840003
5.97726e-10
0.00840003
2.04628e-09
0.00840003
3.68459e-09
0.00840003
1.24866e-08
0.00840004
2.23255e-08
0.00840002
7.56795e-08
0.00840007
1.34617e-07
0.00839998
4.59506e-07
0.00840027
8.0958e-07
0.00839981
2.83086e-06
0.00840156
4.80533e-06
0.00840218
1.82628e-05
0.0084132
2.90534e-05
0.00844779
0.000127367
0.00863586
0.00025103
0.00969559
0.00109809
0.0122628
0.00362265
0.0131064
0.0097585
0.0134904
0.0107773
0.0112554
0.0130775
0.00840003
7.78654e-13
0.00840003
7.4377e-12
0.00840003
1.8942e-11
0.00840003
6.97166e-11
0.00840003
1.40898e-10
0.00840003
4.61701e-10
0.00840003
8.94798e-10
0.00840003
2.8798e-09
0.00840003
5.53234e-09
0.00840003
1.77668e-08
0.00840005
3.39838e-08
0.00840002
1.09103e-07
0.00840019
2.07565e-07
0.00839998
6.68678e-07
0.00840108
1.26168e-06
0.00839963
4.1471e-06
0.00840804
7.70129e-06
0.00839671
2.69095e-05
0.00845996
5.06289e-05
0.0084487
0.000193795
0.00898863
0.000482959
0.0104276
0.00187356
0.0129927
0.00639954
0.0133853
0.0102628
0.0107182
0.0138347
0.00840003
7.11875e-13
0.00840003
3.08212e-12
0.00840003
1.42006e-11
0.00840003
3.06761e-11
0.00840003
1.04763e-10
0.00840003
2.05935e-10
0.00840003
6.69146e-10
0.00840003
1.29504e-09
0.00840003
4.16519e-09
0.00840004
8.04482e-09
0.00840003
2.57995e-08
0.00840007
4.98279e-08
0.00840001
1.59837e-07
0.00840025
3.0898e-07
0.00839991
9.94651e-07
0.00840136
1.92672e-06
0.00839956
6.2706e-06
0.00840912
1.21891e-05
0.00840293
4.11627e-05
0.00847864
8.32687e-05
0.00858708
0.000308059
0.00951419
0.000829813
0.0128298
0.00290269
0.0137698
0.00872542
0.0103723
0.0139416
0.00840003
2.40252e-13
0.00840003
2.34617e-12
0.00840003
5.97082e-12
0.00840003
2.21667e-11
0.00840003
4.51653e-11
0.00840003
1.49234e-10
0.00840003
2.93253e-10
0.00840003
9.47198e-10
0.00840003
1.85229e-09
0.00840003
5.93854e-09
0.00840004
1.16185e-08
0.00840003
3.70329e-08
0.00840009
7.25045e-08
0.00840004
2.30005e-07
0.00840043
4.49865e-07
0.00840022
1.43097e-06
0.00840283
2.76377e-06
0.0084013
9.14553e-06
0.00842334
1.6717e-05
0.0084119
6.19342e-05
0.00857954
0.000116136
0.00878523
0.000476031
0.0100559
0.00134569
0.0132377
0.00447389
0.00943766
0.0140003
0.00840003
1.77409e-13
0.00840003
1.01257e-12
0.00840003
3.83345e-12
0.00840003
9.99072e-12
0.00840003
2.89154e-11
0.00840003
6.81994e-11
0.00840003
1.88513e-10
0.00840003
4.36968e-10
0.00840003
1.19165e-09
0.00840003
2.75166e-09
0.00840003
7.43039e-09
0.00840004
1.71307e-08
0.00840004
4.57697e-08
0.00840013
1.05382e-07
0.00840013
2.79029e-07
0.00840069
6.40816e-07
0.00840068
1.71101e-06
0.00840459
3.86319e-06
0.00840331
1.10525e-05
0.00843285
2.37486e-05
0.00843185
7.71408e-05
0.00867644
0.000173872
0.00921192
0.000670213
0.01149
0.00192775
0.00621213
0.0139503
0.00840003
1.21874e-13
0.00840003
4.76083e-13
0.00840003
2.24558e-12
0.00840003
4.81395e-12
0.00840003
1.67625e-11
0.00840003
3.30828e-11
0.00840003
1.09494e-10
0.00840003
2.13305e-10
0.00840003
6.95774e-10
0.00840003
1.35088e-09
0.00840003
4.37025e-09
0.00840004
8.45892e-09
0.00840003
2.723e-08
0.00840006
5.24599e-08
0.00840006
1.68705e-07
0.00840024
3.22988e-07
0.00840022
1.04382e-06
0.00840128
1.97982e-06
0.00840209
6.50061e-06
0.00840808
1.23667e-05
0.00842536
4.10233e-05
0.00847754
8.58818e-05
0.00877949
0.000293828
0.00976004
0.000848718
0.0026269
0.0130805
0.00840003
3.44232e-14
0.00840003
3.01678e-13
0.00840003
8.15569e-13
0.00840003
2.87218e-12
0.00840003
6.24149e-12
0.00840003
1.98096e-11
0.00840003
4.15058e-11
0.00840003
1.29276e-10
0.00840003
2.68252e-10
0.00840003
8.29177e-10
0.00840003
1.71116e-09
0.00840003
5.25963e-09
0.00840004
1.08103e-08
0.00840004
3.3079e-08
0.0084001
6.78244e-08
0.00840008
2.06831e-07
0.00840051
4.23612e-07
0.00840042
1.29064e-06
0.00840327
2.63662e-06
0.0084031
8.10858e-06
0.00842222
1.65123e-05
0.00842688
5.27907e-05
0.00857535
0.000112711
0.00889695
0.000384268
0.00112749
0.0100681
0.00840003
2.30852e-14
0.00840003
9.64246e-14
0.00840003
4.46034e-13
0.00840003
9.81528e-13
0.00840003
3.33343e-12
0.00840003
7.03932e-12
0.00840003
2.25372e-11
0.00840003
4.71749e-11
0.00840003
1.48405e-10
0.00840003
3.08734e-10
0.00840003
9.61394e-10
0.00840003
1.99221e-09
0.00840003
6.15168e-09
0.00840005
1.27183e-08
0.00840004
3.89505e-08
0.00840013
8.04537e-08
0.00840014
2.44471e-07
0.0084007
5.04014e-07
0.00840086
1.53102e-06
0.00840465
3.11349e-06
0.00840552
9.80899e-06
0.00843394
1.89589e-05
0.00844324
6.58598e-05
0.0086526
0.000132372
0.000495599
0.0091144
0.00840003
4.34624e-15
0.00840003
3.76798e-14
0.00840003
1.25588e-13
0.00840003
4.25665e-13
0.00840003
1.10697e-12
0.00840003
3.23048e-12
0.00840003
8.04362e-12
0.00840003
2.25084e-11
0.00840003
5.48489e-11
0.00840003
1.51291e-10
0.00840003
3.63769e-10
0.00840003
9.94899e-10
0.00840003
2.37172e-09
0.00840003
6.43738e-09
0.00840005
1.52458e-08
0.00840005
4.1022e-08
0.00840015
9.65884e-08
0.0084002
2.57593e-07
0.00840087
6.02315e-07
0.00840125
1.60742e-06
0.00840585
3.7021e-06
0.0084069
1.03266e-05
0.00844134
2.28867e-05
0.00845746
6.9712e-05
0.000162807
0.00872402
0.00840003
5.65303e-16
0.00840003
1.81418e-14
0.00840003
4.16846e-14
0.00840003
1.91138e-13
0.00840003
3.88781e-13
0.00840003
1.45648e-12
0.00840003
2.95035e-12
0.00840003
1.00947e-11
0.00840003
2.08493e-11
0.00840003
6.80125e-11
0.00840003
1.41252e-10
0.00840003
4.50316e-10
0.00840003
9.34882e-10
0.00840003
2.93641e-09
0.00840004
6.0869e-09
0.00840004
1.88751e-08
0.00840008
3.90181e-08
0.00840011
1.19623e-07
0.00840033
2.46013e-07
0.00840054
7.50306e-07
0.00840188
1.52822e-06
0.00840337
4.71112e-06
0.00841087
9.53351e-06
0.00842563
3.00424e-05
6.49394e-05
0.00848353
0.00840003
3.55916e-16
0.00840003
3.47858e-15
0.00840003
1.21712e-14
0.00840003
4.14298e-14
0.00840003
1.38068e-13
0.00840003
3.77733e-13
0.00840003
1.17486e-12
0.00840003
3.05309e-12
0.00840003
8.69661e-12
0.00840003
2.21032e-11
0.00840003
6.07084e-11
0.00840003
1.51239e-10
0.00840003
4.0878e-10
0.00840003
1.00474e-09
0.00840003
2.69122e-09
0.00840004
6.55509e-09
0.00840004
1.74575e-08
0.00840009
4.21932e-08
0.00840011
1.11921e-07
0.00840043
2.68418e-07
0.00840054
7.11256e-07
0.00840253
1.69666e-06
0.00840311
4.51736e-06
0.00841513
1.08706e-05
2.9129e-05
0.00842503
0.00840003
1.21349e-16
0.00840003
7.57125e-16
0.00840003
5.18316e-15
0.00840003
1.10826e-14
0.00840003
5.40179e-14
0.00840003
1.14088e-13
0.00840003
4.54944e-13
0.00840003
9.61543e-13
0.00840003
3.45747e-12
0.00840003
7.25555e-12
0.00840003
2.43199e-11
0.00840003
5.1398e-11
0.00840003
1.6451e-10
0.00840003
3.49397e-10
0.00840003
1.09228e-09
0.00840003
2.31658e-09
0.00840004
7.13858e-09
0.00840005
1.51066e-08
0.00840007
4.59844e-08
0.00840017
9.70948e-08
0.00840029
2.92873e-07
0.00840097
6.15685e-07
0.00840177
1.86188e-06
0.00840622
3.87563e-06
1.20878e-05
0.00841177
0.00840003
2.00496e-16
0.00840003
3.36428e-16
0.00840003
1.08409e-15
0.00840003
3.49804e-15
0.00840003
1.11778e-14
0.00840003
3.77326e-14
0.00840003
1.00551e-13
0.00840003
3.39288e-13
0.00840003
8.27665e-13
0.00840003
2.7606e-12
0.00840003
6.43763e-12
0.00840003
2.0071e-11
0.00840003
4.68852e-11
0.00840003
1.38644e-10
0.00840003
3.23728e-10
0.00840003
9.37625e-10
0.00840003
2.16962e-09
0.00840003
6.22462e-09
0.00840006
1.4258e-08
0.00840006
4.06071e-08
0.0084002
9.21157e-08
0.00840027
2.61244e-07
0.00840114
5.86702e-07
0.0084016
1.68002e-06
3.70254e-06
0.00840769
0.00840003
-1.95156e-17
0.00840003
2.0898e-17
0.00840003
1.38886e-16
0.00840003
6.04172e-16
0.00840003
2.45631e-15
0.00840003
6.85961e-15
0.00840003
2.41595e-14
0.00840003
6.57157e-14
0.00840003
2.20024e-13
0.00840003
5.92683e-13
0.00840003
1.90338e-12
0.00840003
4.96725e-12
0.00840003
1.4753e-11
0.00840003
3.80474e-11
0.00840003
1.06682e-10
0.00840003
2.7118e-10
0.00840003
7.40644e-10
0.00840003
1.85604e-09
0.00840004
5.00085e-09
0.00840005
1.23906e-08
0.00840007
3.30614e-08
0.00840018
8.11623e-08
0.00840028
2.14992e-07
0.00840104
5.24543e-07
1.38928e-06
0.00840165
0.00840003
-2.21692e-16
0.00840003
-2.2527e-16
0.00840003
-1.62305e-16
0.00840003
-7.00395e-17
0.00840003
5.80943e-16
0.00840003
1.50392e-15
0.00840003
7.6697e-15
0.00840003
1.77933e-14
0.00840003
6.84854e-14
0.00840003
1.58408e-13
0.00840003
5.73151e-13
0.00840003
1.33208e-12
0.00840003
4.48893e-12
0.00840003
1.05619e-11
0.00840003
3.31864e-11
0.00840003
7.79232e-11
0.00840003
2.34994e-10
0.00840003
5.47836e-10
0.00840003
1.61286e-09
0.00840004
3.7378e-09
0.00840004
1.08176e-08
0.00840008
2.49496e-08
0.00840012
7.12592e-08
0.00840034
1.63498e-07
4.6386e-07
0.00840061
0.00840003
6.76542e-17
0.00840003
7.43492e-17
0.00840003
1.96105e-16
0.00840003
2.47984e-16
0.00840003
3.94704e-16
0.00840003
7.97431e-16
0.00840003
2.31171e-15
0.00840003
5.34883e-15
0.00840003
2.03268e-14
0.00840003
4.55067e-14
0.00840003
1.66972e-13
0.00840003
3.71105e-13
0.00840003
1.29996e-12
0.00840003
2.87473e-12
0.00840003
9.6324e-12
0.00840003
2.13463e-11
0.00840003
6.87938e-11
0.00840003
1.52572e-10
0.00840003
4.78412e-10
0.00840003
1.05812e-09
0.00840003
3.25293e-09
0.00840004
7.1704e-09
0.00840006
2.17029e-08
0.00840013
4.76568e-08
1.42623e-07
0.00840023
0.00840003
1.26093e-16
0.00840003
2.11284e-16
0.00840003
1.29264e-16
0.00840003
2.1432e-16
0.00840003
1.60435e-16
0.00840003
1.49376e-16
0.00840003
4.365e-16
0.00840003
1.2706e-15
0.00840003
3.91343e-15
0.00840003
1.1822e-14
0.00840003
3.31589e-14
0.00840003
9.98791e-14
0.00840003
2.69495e-13
0.00840003
7.97179e-13
0.00840003
2.11913e-12
0.00840003
5.99096e-12
0.00840003
1.58999e-11
0.00840003
4.33247e-11
0.00840003
1.13789e-10
0.00840003
3.04605e-10
0.00840003
7.89312e-10
0.00840003
2.09033e-09
0.00840004
5.35349e-09
0.00840005
1.40669e-08
3.56851e-08
0.00840012
0.00840003
-9.03411e-17
0.00840003
-4.23652e-17
0.00840003
4.18231e-17
0.00840003
2.56685e-17
0.00840003
9.18861e-17
0.00840003
1.55691e-16
0.00840003
2.46358e-16
0.00840003
4.45932e-16
0.00840003
8.83272e-16
0.00840003
3.2886e-15
0.00840003
7.06314e-15
0.00840003
2.61983e-14
0.00840003
5.61308e-14
0.00840003
2.07114e-13
0.00840003
4.48993e-13
0.00840003
1.5706e-12
0.00840003
3.462e-12
0.00840003
1.14331e-11
0.00840003
2.54517e-11
0.00840003
8.07651e-11
0.00840003
1.80185e-10
0.00840003
5.57534e-10
0.00840003
1.24216e-09
0.00840004
3.77659e-09
8.39526e-09
0.00840005
0.00840003
9.79577e-17
0.00840003
1.33899e-17
0.00840003
-3.86518e-17
0.00840003
-8.44865e-17
0.00840003
-5.36409e-17
0.00840003
5.7544e-17
0.00840003
5.0307e-17
0.00840003
2.15024e-16
0.00840003
3.38623e-16
0.00840003
7.08228e-16
0.00840003
1.90267e-15
0.00840003
5.06528e-15
0.00840003
1.51995e-14
0.00840003
3.98178e-14
0.00840003
1.19472e-13
0.00840003
3.05648e-13
0.00840003
9.09245e-13
0.00840003
2.30064e-12
0.00840003
6.59199e-12
0.00840003
1.67557e-11
0.00840003
4.64068e-11
0.00840003
1.17835e-10
0.00840003
3.20031e-10
0.00840003
8.07607e-10
2.16838e-09
0.00840003
0.00840003
7.54605e-17
0.00840003
1.07309e-16
0.00840003
1.24873e-16
0.00840003
1.37477e-16
0.00840003
1.64907e-16
0.00840003
1.05818e-16
0.00840003
2.00659e-16
0.00840003
2.25379e-16
0.00840003
3.41415e-16
0.00840003
4.80247e-16
0.00840003
6.19947e-16
0.00840003
1.31338e-15
0.00840003
2.83747e-15
0.00840003
8.51671e-15
0.00840003
2.20077e-14
0.00840003
6.37154e-14
0.00840003
1.74242e-13
0.00840003
4.82964e-13
0.00840003
1.32051e-12
0.00840003
3.56117e-12
0.00840003
9.56188e-12
0.00840003
2.53408e-11
0.00840003
6.69559e-11
0.00840003
1.75094e-10
4.57152e-10
0.00840003
0.00840003
-7.94178e-17
0.00840003
-5.93872e-17
0.00840003
-4.6431e-17
0.00840003
-4.87078e-17
0.00840003
-8.87962e-17
0.00840003
-5.97666e-17
0.00840003
-9.26722e-17
0.00840003
-4.16876e-17
0.00840003
6.82776e-17
0.00840003
1.75858e-16
0.00840003
3.11437e-16
0.00840003
4.78377e-16
0.00840003
8.4584e-16
0.00840003
2.04958e-15
0.00840003
4.53869e-15
0.00840003
1.525e-14
0.00840003
3.33094e-14
0.00840003
1.14146e-13
0.00840003
2.51419e-13
0.00840003
8.21746e-13
0.00840003
1.8342e-12
0.00840003
5.76124e-12
0.00840003
1.29084e-11
0.00840003
3.94351e-11
8.8335e-11
0.00840003
0.00840003
-2.89482e-17
0.00840003
-5.51859e-17
0.00840003
-2.57498e-18
0.00840003
4.16334e-17
0.00840003
7.28855e-17
0.00840003
9.03683e-17
0.00840003
1.1994e-16
0.00840003
6.25043e-17
0.00840003
5.47522e-18
0.00840003
-2.71051e-19
0.00840003
-1.03812e-17
0.00840003
9.00972e-17
0.00840003
2.57634e-16
0.00840003
5.68908e-16
0.00840003
1.18021e-15
0.00840003
2.93377e-15
0.00840003
7.80989e-15
0.00840003
1.96074e-14
0.00840003
5.59325e-14
0.00840003
1.42218e-13
0.00840003
3.95834e-13
0.00840003
1.01094e-12
0.00840003
2.74904e-12
0.00840003
6.99359e-12
1.86515e-11
0.00840003
0.00840003
7.30752e-17
0.00840003
1.87459e-16
0.00840003
2.25785e-16
0.00840003
3.17021e-16
0.00840003
3.1515e-16
0.00840003
4.1571e-16
0.00840003
3.82452e-16
0.00840003
3.79362e-16
0.00840003
3.66406e-16
0.00840003
3.30492e-16
0.00840003
3.79796e-16
0.00840003
3.30655e-16
0.00840003
4.04109e-16
0.00840003
5.36734e-16
0.00840003
7.45525e-16
0.00840003
9.80932e-16
0.00840003
1.94468e-15
0.00840003
4.22267e-15
0.00840003
1.06314e-14
0.00840003
2.70963e-14
0.00840003
7.29495e-14
0.00840003
1.89229e-13
0.00840003
5.07566e-13
0.00840003
1.30101e-12
3.44209e-12
0.00840003
0.00840003
9.90961e-17
0.00840003
1.08285e-16
0.00840003
1.95183e-16
0.00840003
2.5785e-16
0.00840003
4.1964e-16
0.00840003
3.90367e-16
0.00840003
4.32542e-16
0.00840003
4.97242e-16
0.00840003
4.50703e-16
0.00840003
5.33075e-16
0.00840003
4.69595e-16
0.00840003
5.1093e-16
0.00840003
4.96077e-16
0.00840003
4.06278e-16
0.00840003
4.78404e-16
0.00840003
5.33726e-16
0.00840003
6.14743e-16
0.00840003
9.85296e-16
0.00840003
1.95997e-15
0.00840003
5.67851e-15
0.00840003
1.23531e-14
0.00840003
3.80313e-14
0.00840003
8.37618e-14
0.00840003
2.55149e-13
5.66078e-13
0.00840003
0.00840003
-1.71656e-16
0.00840003
-1.02647e-16
0.00840003
-5.06593e-17
0.00840003
-7.87944e-17
0.00840003
-1.05384e-16
0.00840003
-5.98209e-17
0.00840003
-1.30646e-17
0.00840003
1.50433e-17
0.00840003
1.10887e-16
0.00840003
7.93094e-17
0.00840003
2.0074e-16
0.00840003
2.63136e-16
0.00840003
2.83112e-16
0.00840003
3.81937e-16
0.00840003
3.75622e-16
0.00840003
4.81738e-16
0.00840003
4.50567e-16
0.00840003
5.27275e-16
0.00840003
8.05535e-16
0.00840003
1.28481e-15
0.00840003
2.75566e-15
0.00840003
6.32675e-15
0.00840003
1.63198e-14
0.00840003
4.1061e-14
1.06296e-13
0.00840003
0.00840003
7.22621e-17
0.00840003
9.91503e-17
0.00840003
4.52925e-17
0.00840003
7.22892e-17
0.00840003
7.75205e-18
0.00840003
-7.80083e-17
0.00840003
-6.90637e-17
0.00840003
-1.61275e-17
0.00840003
8.09628e-17
0.00840003
2.06866e-16
0.00840003
2.01472e-16
0.00840003
1.96512e-16
0.00840003
2.74493e-16
0.00840003
2.65033e-16
0.00840003
2.01526e-16
0.00840003
1.45717e-16
0.00840003
2.50424e-16
0.00840003
4.15602e-16
0.00840003
4.7507e-16
0.00840003
5.39499e-16
0.00840003
7.45877e-16
0.00840003
1.34669e-15
0.00840003
2.96277e-15
0.00840003
7.12551e-15
1.79304e-14
0.00840003
0.00840003
1.00804e-16
0.00840003
1.1872e-16
0.00840003
1.57833e-16
0.00840003
1.87052e-16
0.00840003
1.87215e-16
0.00840003
1.64311e-16
0.00840003
2.26788e-16
0.00840003
2.42726e-16
0.00840003
2.62892e-16
0.00840003
2.21692e-16
0.00840003
3.60687e-16
0.00840003
4.17987e-16
0.00840003
4.1075e-16
0.00840003
4.32082e-16
0.00840003
4.0747e-16
0.00840003
4.36229e-16
0.00840003
4.6477e-16
0.00840003
4.39346e-16
0.00840003
4.20914e-16
0.00840003
4.43764e-16
0.00840003
3.52962e-16
0.00840003
2.98291e-16
0.00840003
4.63496e-16
0.00840003
1.12313e-15
2.76553e-15
0.00840003
0.00840003
-9.62229e-18
0.00840003
-3.23092e-17
0.00840003
1.10318e-17
0.00840003
6.13658e-17
0.00840003
1.40594e-16
0.00840003
2.6048e-16
0.00840003
3.40738e-16
0.00840003
4.01317e-16
0.00840003
4.82362e-16
0.00840003
5.09006e-16
0.00840003
4.74718e-16
0.00840003
4.5279e-16
0.00840003
4.40105e-16
0.00840003
4.45851e-16
0.00840003
5.53675e-16
0.00840003
6.26723e-16
0.00840003
5.96121e-16
0.00840003
5.75576e-16
0.00840003
4.79082e-16
0.00840003
4.40457e-16
0.00840003
4.39698e-16
0.00840003
4.73119e-16
0.00840003
4.83581e-16
0.00840003
5.07949e-16
6.97765e-16
0.00840003
0.00840003
-9.29703e-18
0.00840003
1.23192e-16
0.00840003
2.25487e-16
0.00840003
3.22089e-16
0.00840003
4.57696e-16
0.00840003
6.53611e-16
0.00840003
7.89299e-16
0.00840003
8.41883e-16
0.00840003
7.52111e-16
0.00840003
6.41116e-16
0.00840003
5.02148e-16
0.00840003
5.14481e-16
0.00840003
4.70652e-16
0.00840003
5.09033e-16
0.00840003
5.10849e-16
0.00840003
4.41975e-16
0.00840003
4.37638e-16
0.00840003
4.10642e-16
0.00840003
4.51272e-16
0.00840003
4.29425e-16
0.00840003
4.46989e-16
0.00840003
4.71411e-16
0.00840003
5.15457e-16
0.00840003
5.10334e-16
4.56259e-16
0.00840003
0.00840003
0.00840003
0.00840003
0.00840003
0.00840003
0.00840003
0.00840003
0.00840003
0.00840003
0.00840003
0.00840003
0.00840003
0.00840003
0.00840003
0.00840003
0.00840003
0.00840003
0.00840003
0.00840003
0.00840003
0.00840003
0.00840003
0.00840003
0.00840003
0.00840003
0.00440811
0.0039521
0.00285615
0.00154719
0.00218587
0.00066179
0.00191718
0.000258791
0.00186169
4.37876e-05
0.00196467
-0.000112502
0.00212619
-0.000168827
0.00224675
-0.000128092
0.00231485
-7.61713e-05
0.00233931
-3.20807e-05
0.0023341
-1.49834e-06
0.00231021
1.89891e-05
0.00229609
1.0701e-05
0.00229694
-4.16581e-06
0.00230986
-1.59615e-05
0.0023254
-1.77381e-05
0.00234283
-1.80904e-05
0.00236034
-1.60944e-05
0.00237705
-1.34126e-05
0.00239203
-1.11488e-05
0.00240424
-9.77774e-06
0.00241331
-9.37245e-06
0.00241976
-9.66177e-06
0.00242451
-1.02372e-05
0.00242876
-1.07463e-05
0.00243389
-1.0988e-05
0.00244085
-1.09105e-05
0.00244922
-1.05542e-05
0.00245783
-9.95912e-06
0.00246542
-9.19559e-06
0.0024702
-8.42692e-06
0.00247184
-7.64186e-06
0.00247236
-6.75474e-06
0.00247115
-6.1518e-06
0.00246506
-5.89979e-06
0.00245417
-5.62383e-06
0.00244164
-5.27471e-06
0.00242996
-5.17199e-06
0.00242211
-5.21717e-06
0.00242138
-5.46655e-06
0.002428
-5.95131e-06
0.00244115
-6.63151e-06
0.00247098
-7.38171e-06
0.00254508
-8.21477e-06
0.00265701
-1.03371e-05
0.00280457
-1.24295e-05
0.00298864
-1.45688e-05
0.00320866
-1.70719e-05
0.0034624