/*--------------------------------*- C++ -*----------------------------------*\
| =========                 |                                                 |
| \\      /  F ield         | OpenFOAM: The Open Source CFD Toolbox           |
|  \\    /   O peration     | Version:  2412                                  |
|   \\  /    A nd           | Website:  www.openfoam.com                      |
|    \\/     M anipulation  |                                                 |
\*---------------------------------------------------------------------------*/
FoamFile
{
    version     2.0;
    format      ascii;
    arch        "LSB;label=32;scalar=64";
    class       volScalarField;
    location    "0.5";
    object      T;
}
// * * * * * * * * * * * * * * * * * * * * * * * * * * * * * * * * * * * * * //

dimensions      [0 0 0 1 0 0 0];

internalField   nonuniform List<scalar> 
5250
(
1
1
1
1.00001
1.00002
1.00004
1.00014
1.00026
1.00084
1.00159
1.00479
1.01061
1.02777
1.08021
1.1829
1.60747
2.48349
2.93035
2.83291
2.86009
2.89901
2.9306
3.06359
3.43823
3.34594
1
1
1
1.00001
1.00002
1.00004
1.00014
1.00025
1.00082
1.00157
1.00471
1.01043
1.02725
1.07881
1.17904
1.59868
2.46636
2.92711
2.83185
2.85927
2.89752
2.92858
3.0585
3.43151
3.34546
1
1
1
1.00001
1.00002
1.00004
1.00014
1.00025
1.0008
1.00152
1.00456
1.01006
1.02626
1.07583
1.17133
1.57556
2.42927
2.91781
2.82772
2.85621
2.89349
2.92449
3.04904
3.42149
3.34607
1
1
1
1.00001
1.00002
1.00004
1.00013
1.00024
1.00076
1.00145
1.00435
1.00953
1.02491
1.07138
1.16069
1.53686
2.37306
2.89949
2.8199
2.8513
2.88623
2.91655
3.03072
3.4012
3.34353
1
1
1
1.00001
1.00002
1.00004
1.00012
1.00022
1.00072
1.00135
1.00412
1.00888
1.02327
1.06566
1.14839
1.48543
2.29592
2.87019
2.80951
2.8457
2.8761
2.90397
3.00972
3.37953
3.33769
1
1
1
1.00001
1.00002
1.00003
1.00011
1.00021
1.00068
1.00125
1.0039
1.0081
1.02153
1.05852
1.13387
1.42459
2.20311
2.81672
2.79437
2.8399
2.86578
2.89143
2.97916
3.33615
3.32467
1
1
1
1.00001
1.00002
1.00003
1.0001
1.00019
1.00062
1.00114
1.00363
1.00717
1.02032
1.0495
1.12179
1.35783
2.09575
2.70934
2.78347
2.83584
2.85145
2.87142
2.94265
3.28449
3.30235
1
1
1
1
1.00002
1.00003
1.00009
1.00017
1.00055
1.00101
1.00327
1.00631
1.01884
1.04204
1.11261
1.3002
1.96381
2.56034
2.78251
2.82992
2.83976
2.85742
2.9084
3.2299
3.2729
1
1
1
1
1.00001
1.00002
1.00008
1.00014
1.00047
1.00087
1.00282
1.00544
1.01615
1.03706
1.09513
1.2668
1.8058
2.4812
2.78027
2.81674
2.81511
2.82718
2.85448
3.12915
3.20153
1
1
1
1
1.00001
1.00002
1.00006
1.00012
1.00039
1.00073
1.00232
1.00469
1.01311
1.03274
1.07833
1.23311
1.65164
2.37391
2.74336
2.7895
2.79897
2.79825
2.79905
3.0044
3.09749
1
1
1
1
1.00001
1.00002
1.00004
1.0001
1.00023
1.00059
1.00154
1.00369
1.01059
1.02439
1.07569
1.16468
1.56162
2.31871
2.69453
2.76572
2.76419
2.75505
2.72739
2.83442
2.80573
1
1
1
1
1.00001
1.00001
1.00004
1.00007
1.00022
1.00047
1.00125
1.00318
1.00772
1.02253
1.05058
1.16391
1.39251
2.0523
2.64949
2.75012
2.73226
2.70741
2.67003
2.69284
2.66102
1
1
1
1
1.00001
1.00001
1.00003
1.00006
1.00021
1.00037
1.00126
1.00232
1.00752
1.01519
1.04296
1.10819
1.29414
1.7524
2.55302
2.70729
2.6791
2.66142
2.59917
2.58617
2.56559
1
1
1
1
1
1.00001
1.00003
1.00005
1.00016
1.00028
1.00093
1.00177
1.0054
1.01163
1.03142
1.08627
1.2057
1.60962
2.41586
2.64866
2.63546
2.619
2.57299
2.49826
2.46737
1
1
1
1
1
1.00001
1.00002
1.00004
1.00012
1.00022
1.00072
1.00135
1.00407
1.00892
1.02268
1.06549
1.14315
1.48528
2.16832
2.56291
2.61004
2.59527
2.56018
2.47432
2.40954
1
1
1
1
1
1
1.00001
1.00003
1.00009
1.00016
1.00054
1.00099
1.00321
1.00627
1.01823
1.04355
1.10762
1.31737
1.87433
2.44997
2.56426
2.54576
2.52504
2.46538
2.38379
1
1
1
1
1
1
1.00001
1.00002
1.00006
1.00011
1.00037
1.00069
1.00224
1.0043
1.01309
1.029
1.07701
1.20862
1.60796
2.16858
2.47472
2.47974
2.45832
2.42931
2.35846
1
1
1
1
1
1
1.00001
1.00001
1.00004
1.00008
1.00026
1.00047
1.00155
1.00297
1.00882
1.02023
1.05006
1.1464
1.36002
1.97247
2.34229
2.42787
2.41928
2.39998
2.35091
1
1
1
1
1
1
1
1.00001
1.00003
1.00005
1.00016
1.0003
1.00097
1.00186
1.00569
1.01213
1.03325
1.08625
1.22067
1.56981
2.19987
2.35597
2.35184
2.33306
2.31017
1
1
1
1
1
1
1
1.00001
1.00001
1.00004
1.00008
1.00025
1.00047
1.00141
1.00309
1.00782
1.02154
1.04987
1.14922
1.37296
1.90992
2.26556
2.32089
2.31239
2.29052
1
1
1
1
1
1
1
1
1.00001
1.00003
1.00005
1.00015
1.00029
1.00094
1.00176
1.00562
1.0113
1.03236
1.07891
1.20975
1.52011
2.10054
2.24737
2.256
2.24234
1
1
1
1
1
1
1
1
1.00001
1.00001
1.00004
1.00007
1.00022
1.00042
1.00129
1.00267
1.00747
1.01813
1.04474
1.12296
1.3325
1.75264
2.1513
2.22205
2.21509
1
1
1
1
1
1
1
1
1
1.00001
1.00002
1.00005
1.0001
1.00031
1.0006
1.00188
1.00381
1.01126
1.02471
1.06943
1.16379
1.52716
1.86586
2.11812
2.17538
1
1
1
1
1
1
1
1
1
1
1.00001
1.00002
1.00007
1.00013
1.00041
1.00082
1.00242
1.00533
1.01364
1.03676
1.08361
1.24686
1.63676
2.01049
2.09511
1
1
1
1
1
1
1
1
1
1
1
1.00001
1.00003
1.00009
1.00017
1.00052
1.00105
1.00298
1.00702
1.01746
1.04996
1.10948
1.33961
1.75825
1.99203
1
1
1
1
1
1
1
1
1
1
1
1.00001
1.00001
1.00005
1.00009
1.00029
1.00054
1.00177
1.00342
1.01063
1.02189
1.06399
1.14347
1.46376
1.72858
1
1
1
1
1
1
1
1
1
1
1
1
1.00001
1.00002
1.00005
1.0001
1.00033
1.00066
1.00199
1.00416
1.01157
1.02731
1.06896
1.18075
1.51101
1
1
1
1
1
1
1
1
1
1
1
1
1
1.00001
1.00002
1.00006
1.00012
1.00037
1.00076
1.0022
1.005
1.01235
1.03453
1.07517
1.22803
1
1
1
1
1
1
1
1
1
1
1
1
1
1
1.00001
1.00002
1.00007
1.00013
1.00041
1.00082
1.00233
1.00555
1.01345
1.0386
1.08364
1
1
1
1
1
1
1
1
1
1
1
1
1
1
1
1.00001
1.00003
1.00005
1.00018
1.00034
1.00111
1.00216
1.00674
1.01407
1.04132
1
1
1
1
1
1
1
1
1
1
1
1
1
1
1
1
1.00001
1.00003
1.00005
1.00017
1.00034
1.00105
1.00218
1.00646
1.01423
1
1
1
1
1
1
1
1
1
1
1
1
1
1
1
1
1
1.00001
1.00002
1.00007
1.00013
1.00041
1.00081
1.00247
1.0054
1
1
1
1
1
1
1
1
1
1
1
1
1
1
1
1
1
1
1.00001
1.00002
1.00005
1.00011
1.00034
1.00073
1.00201
1
1
1
1
1
1
1
1
1
1
1
1
1
1
1
1
1
1
1
1.00001
1.00001
1.00005
1.00009
1.00029
1.00062
1
1
1
1
1
1
1
1
1
1
1
1
1
1
1
1
1
1
1
1
1
1.00001
1.00003
1.00009
1.00019
1
1
1
1
1
1
1
1
1
1
1
1
1
1
1
1
1
1
1
1
1
1
1.00001
1.00003
1.00005
1
1
1
1
1
1
1
1
1
1
1
1
1
1
1
1
1
1
1
1
1
1
1
1.00001
1.00002
1
1
1
1
1
1
1
1
1
1
1
1
1
1
1
1
1
1
1
1
1
1
1
1
1
1
1
1
1
1
1
1
1
1
1
1
1
1
1
1
1
1
1
1
1
1
1
1
1
1
1
1
1
1
1
1
1
1
1
1
1
1
1
1
1
1
1
1
1
1
1
1
1
1
1
1
1
1
1
1
1
1
1
1
1
1
1
1
1
1
1
1
1
1
1
1
1
1
1
1
1
1
1
1
1
1
1
1
1
1
1
1
1
1
1
1
1
1
1
1
1
1
1
1
1
1
1
1
1
1
1
1
1
1
1
1
1
1
1
1
1
1
1
1
1
1
1
1
1
1
1
1
1
1
1
1
1
1
1
1
1
1
1
1
1
1
1
1
1
1
1
1
1
1
1
1
1
1
1
1
1
1
1
1
1
1
1
1
1
1
1
1
1
1
1
1
1
1
1
1
1
1
1
1
1
1
1
1
1
1
1
1
1
1
1
1
1
1
1
1
1
1
1
1
1
1
1
1
1
1
1
1
1
1
1
1
1
1
1
1
1
1
1
1
1
1
1
1
1
1
1
1
1
1
1
1
1
1
1
1
1
1
1
1
1
1
1
1
1
1
1
1
1
1
1
1
1
1
1
1
1
1
1
1
1
1
1
1
1
1
1
1
1
1
1
1
1
1
1
1
1
1
1
1
1
1
1
1
1
1
1
1
1
1
1
1
1
1
1
1
1
1
1
1
1
2.77685
2.66038
2.65992
2.67841
2.77532
2.83392
2.87503
2.89024
2.887
2.86993
2.85477
2.83314
2.80698
2.78748
2.76888
2.75033
2.73049
2.70851
2.68421
2.65857
2.63359
2.61108
2.59154
2.57448
2.55897
2.54377
2.52766
2.51032
2.49302
2.47789
2.46611
2.45841
2.45574
2.45624
2.45957
2.46885
2.48462
2.50279
2.51998
2.53193
2.53663
2.53609
2.52813
2.49765
2.42879
2.33158
2.2182
2.09495
1.9685
1.84454
1.72741
1.61991
1.5235
1.43875
1.3655
1.3031
1.25056
1.20679
1.17073
1.14136
1.11778
1.09914
1.08476
1.07394
1.06601
1.06023
1.05594
1.05254
1.04959
1.04674
1.04375
1.04047
1.03682
1.03285
1.02879
1.02495
1.02163
1.01882
1.01627
1.0136
1.01054
1.0078
1.00461
1.00214
1.00056
0.999654
0.999214
0.999068
0.999069
0.999142
0.99932
0.999494
0.999633
0.999741
0.999821
0.99988
0.999921
0.999949
0.999969
0.999979
2.59267
2.51576
2.47645
2.44775
2.4143
2.36555
2.32388
2.31258
2.31428
2.31647
2.31597
2.31341
2.30768
2.2959
2.28121
2.26774
2.25567
2.24262
2.2276
2.21116
2.19413
2.17719
2.16132
2.14752
2.13599
2.12589
2.11595
2.10513
2.09319
2.08097
2.06965
2.06048
2.0551
2.05389
2.05458
2.05754
2.06485
2.07823
2.09441
2.10918
2.11888
2.12259
2.12178
2.11462
2.09193
2.04227
1.97401
1.89601
1.8124
1.72711
1.64352
1.56413
1.49063
1.42377
1.3637
1.31015
1.26271
1.22103
1.18475
1.15357
1.1272
1.10526
1.08729
1.07281
1.06136
1.0525
1.04576
1.04067
1.0367
1.03339
1.03034
1.02732
1.02424
1.02116
1.01822
1.01561
1.01348
1.01177
1.01027
1.00871
1.00693
1.00414
1.00151
0.99978
0.99878
0.998313
0.998191
0.998226
0.998399
0.99873
0.999027
0.999274
0.99947
0.999621
0.999735
0.999818
0.999877
0.999919
0.999948
0.999964
2.53512
2.47382
2.40994
2.32599
2.24788
2.17942
2.13564
2.11905
2.1223
2.12462
2.12283
2.12232
2.11644
2.11114
2.10701
2.10006
2.09258
2.08455
2.07413
2.06142
2.04767
2.03399
2.02119
2.01003
2.00092
1.99357
1.98706
1.98023
1.97253
1.96406
1.95531
1.94718
1.94122
1.93864
1.93845
1.93885
1.94007
1.94299
1.94721
1.95046
1.95155
1.95091
1.94583
1.92878
1.89304
1.84507
1.78912
1.72772
1.66331
1.59803
1.5337
1.47179
1.41335
1.35908
1.3093
1.26406
1.22324
1.18671
1.15438
1.12626
1.10229
1.08237
1.06623
1.05349
1.0437
1.0364
1.03113
1.02744
1.02491
1.02306
1.02145
1.01975
1.01786
1.01586
1.01392
1.01225
1.01093
1.0099
1.00892
1.00785
1.0062
1.00332
1.00099
0.999478
0.998621
0.99824
0.998157
0.998212
0.998433
0.998772
0.999065
0.999305
0.999495
0.999641
0.99975
0.99983
0.999887
0.999926
0.999953
0.999968
2.43608
2.38826
2.3341
2.2739
2.21465
2.16059
2.11383
2.07251
2.03658
2.00547
1.98261
1.97649
1.9772
1.98078
1.98871
1.99346
1.99279
1.98895
1.97866
1.96274
1.9479
1.93502
1.92506
1.91717
1.91145
1.90654
1.90218
1.89608
1.88904
1.88051
1.87275
1.86445
1.8573
1.85099
1.84734
1.84361
1.83978
1.83671
1.83539
1.83437
1.83255
1.82712
1.81384
1.78878
1.75504
1.71337
1.66514
1.61218
1.55658
1.50027
1.44498
1.39206
1.3424
1.29657
1.25483
1.21727
1.18378
1.15416
1.12816
1.10553
1.08607
1.06966
1.05619
1.04549
1.03725
1.03111
1.02663
1.02339
1.02106
1.01928
1.01778
1.01627
1.01459
1.01271
1.01082
1.00918
1.008
1.00719
1.00664
1.00583
1.00405
1.00148
0.999572
0.998386
0.997787
0.997596
0.997617
0.997796
0.998202
0.998598
0.998933
0.999205
0.999421
0.999586
0.99971
0.999801
0.999865
0.999911
0.999942
0.99996
2.3758
2.34151
2.29983
2.24771
2.19367
2.13746
2.08284
2.02866
1.97799
1.93648
1.90794
1.89514
1.89613
1.90065
1.90896
1.91308
1.91331
1.91105
1.90445
1.8945
1.88452
1.87497
1.86733
1.86197
1.857
1.85179
1.84579
1.83841
1.82956
1.82036
1.81188
1.8044
1.79769
1.79284
1.79018
1.78745
1.78229
1.7765
1.77106
1.7651
1.75536
1.73916
1.71592
1.68545
1.64859
1.60679
1.56168
1.51479
1.46738
1.42051
1.37503
1.33166
1.29085
1.2529
1.218
1.18621
1.15756
1.13197
1.10936
1.08956
1.07242
1.05784
1.04577
1.03612
1.02875
1.02338
1.01966
1.01715
1.01545
1.01419
1.01313
1.01204
1.01085
1.00953
1.00824
1.00712
1.00643
1.00606
1.00579
1.00498
1.00323
1.00088
0.999166
0.998138
0.997652
0.997529
0.997585
0.997834
0.998269
0.998657
0.998982
0.999246
0.999453
0.999611
0.999729
0.999816
0.999876
0.999919
0.999948
0.999965
2.31723
2.26834
2.22862
2.18861
2.14482
2.09746
2.04798
1.9998
1.95579
1.91878
1.89031
1.87134
1.85993
1.8545
1.85191
1.85004
1.84797
1.84535
1.84217
1.8385
1.83387
1.82896
1.82336
1.81773
1.81184
1.80456
1.79638
1.78752
1.77824
1.76898
1.76072
1.75362
1.7471
1.74169
1.73849
1.73512
1.72836
1.7187
1.70778
1.6956
1.68019
1.65929
1.63239
1.59947
1.56158
1.52054
1.47814
1.43574
1.39412
1.35379
1.3151
1.27841
1.24399
1.21198
1.18253
1.15566
1.13139
1.10973
1.09068
1.07412
1.05989
1.04783
1.03781
1.0298
1.02369
1.01931
1.01635
1.01446
1.01323
1.0123
1.01141
1.01042
1.00924
1.00792
1.00663
1.00563
1.00514
1.00483
1.00448
1.00375
1.0023
0.999997
0.998383
0.9975
0.997158
0.997129
0.997267
0.997673
0.998159
0.998575
0.998921
0.999199
0.999417
0.999585
0.999709
0.999801
0.999865
0.999911
0.999942
0.99996
2.29537
2.23986
2.19124
2.14653
2.10196
2.05842
2.01439
1.97317
1.93423
1.90159
1.87522
1.85511
1.83771
1.82107
1.80596
1.7931
1.78403
1.77905
1.77689
1.77634
1.77643
1.77615
1.77499
1.77221
1.76703
1.76009
1.75164
1.74193
1.73167
1.72213
1.714
1.70763
1.702
1.69669
1.69272
1.68827
1.67981
1.66675
1.65037
1.63172
1.60996
1.58377
1.55304
1.51809
1.48012
1.44096
1.40197
1.36444
1.32869
1.29494
1.26318
1.23334
1.20543
1.17958
1.15578
1.13374
1.11335
1.0947
1.07804
1.06361
1.0513
1.04085
1.03217
1.02518
1.01981
1.01594
1.01335
1.01175
1.01075
1.01001
1.00924
1.00828
1.00715
1.00599
1.00496
1.00443
1.00421
1.00398
1.00378
1.00316
1.00155
0.999362
0.99797
0.997265
0.997035
0.997058
0.997267
0.997749
0.998226
0.998633
0.998969
0.999238
0.999448
0.999609
0.999728
0.999814
0.999875
0.999918
0.999947
0.999964
2.27541
2.20815
2.15116
2.1024
2.0581
2.01714
1.97877
1.94393
1.91451
1.88854
1.86555
1.84277
1.81935
1.79645
1.77509
1.75709
1.74429
1.73576
1.73137
1.73022
1.73025
1.73052
1.73033
1.729
1.72529
1.71943
1.71172
1.70229
1.69265
1.68337
1.67527
1.66865
1.66314
1.65708
1.65027
1.64249
1.63086
1.61382
1.59213
1.56781
1.54172
1.51298
1.48148
1.44738
1.41165
1.37567
1.34066
1.30745
1.27657
1.248
1.22146
1.19675
1.17366
1.15213
1.13213
1.11368
1.09668
1.08107
1.06699
1.05476
1.04431
1.03495
1.02737
1.02155
1.01714
1.01399
1.01189
1.01061
1.00987
1.00935
1.00868
1.00767
1.00639
1.00513
1.00435
1.00408
1.00371
1.00359
1.00332
1.00252
1.00049
0.998576
0.997436
0.996904
0.996778
0.996855
0.997179
0.997721
0.998207
0.99862
0.998959
0.999231
0.999443
0.999604
0.999723
0.99981
0.999872
0.999915
0.999945
0.999962
2.2517
2.18907
2.12917
2.07783
2.03186
1.99045
1.9542
1.92233
1.89481
1.87112
1.84938
1.82735
1.80399
1.78052
1.75821
1.73967
1.72374
1.71186
1.70301
1.69636
1.69104
1.68624
1.68205
1.67863
1.67478
1.66985
1.66424
1.65773
1.65005
1.64247
1.6356
1.62936
1.62307
1.6154
1.60512
1.59207
1.5754
1.55374
1.52857
1.50115
1.47268
1.4429
1.41165
1.37984
1.34781
1.31615
1.2856
1.25688
1.23051
1.2065
1.18467
1.16458
1.14582
1.12818
1.1116
1.09641
1.08219
1.06892
1.0569
1.04634
1.03737
1.0302
1.02428
1.01884
1.01489
1.0124
1.01066
1.00952
1.0088
1.00831
1.00774
1.00686
1.00566
1.00455
1.004
1.00336
1.00317
1.00313
1.0029
1.00178
0.999582
0.997997
0.997084
0.996705
0.996663
0.996806
0.997246
0.997799
0.998278
0.998681
0.999009
0.999271
0.999474
0.999627
0.999741
0.999823
0.999881
0.999922
0.999949
0.999965
2.24306
2.17011
2.10981
2.05691
2.01331
1.97781
1.94632
1.91747
1.89107
1.86589
1.84034
1.81484
1.7906
1.76889
1.74904
1.73139
1.7159
1.70173
1.68817
1.67412
1.66068
1.6492
1.6395
1.63199
1.62666
1.62121
1.61505
1.60926
1.60329
1.59694
1.59059
1.58368
1.5754
1.56504
1.55143
1.53416
1.51342
1.48951
1.46334
1.43605
1.40787
1.37928
1.35039
1.32183
1.29397
1.26667
1.24032
1.21554
1.19285
1.17246
1.15425
1.13779
1.12254
1.10838
1.09476
1.08143
1.06907
1.05788
1.04782
1.03891
1.03123
1.02501
1.02024
1.01649
1.01304
1.01087
1.00969
1.00879
1.00807
1.00749
1.00692
1.00625
1.00547
1.00491
1.00385
1.00311
1.00289
1.0028
1.00246
1.001
0.99892
0.997502
0.996751
0.9965
0.996525
0.996759
0.997304
0.997851
0.998323
0.998717
0.999038
0.999292
0.999489
0.999638
0.999748
0.999828
0.999884
0.999923
0.99995
0.999965
2.2224
2.16934
2.10403
2.04988
2.00594
1.96767
1.93833
1.91412
1.89011
1.86538
1.83958
1.81386
1.78825
1.7641
1.74235
1.72294
1.70483
1.68648
1.66766
1.6489
1.63189
1.61671
1.6045
1.59392
1.58393
1.57504
1.56578
1.55631
1.54799
1.54009
1.53176
1.52314
1.51313
1.50113
1.48668
1.46884
1.44747
1.42393
1.39985
1.3753
1.34951
1.32314
1.29707
1.27226
1.2486
1.22552
1.2031
1.18194
1.16258
1.14543
1.13027
1.11688
1.10494
1.09339
1.08171
1.07037
1.05966
1.04985
1.0411
1.03347
1.02698
1.02163
1.01752
1.01454
1.01218
1.0102
1.00934
1.00859
1.00769
1.0068
1.00601
1.00534
1.00509
1.00454
1.00351
1.00291
1.00268
1.00254
1.00205
1.00055
0.998442
0.99714
0.996541
0.996402
0.996486
0.996835
0.997424
0.997955
0.99841
0.998789
0.999095
0.999337
0.999523
0.999663
0.999766
0.99984
0.999893
0.999929
0.999954
0.999968
2.19081
2.15508
2.10241
2.04922
2.0043
1.96784
1.9359
1.90814
1.88305
1.86006
1.83612
1.81138
1.78647
1.76238
1.73989
1.71696
1.69476
1.6704
1.64822
1.62628
1.60762
1.59205
1.57784
1.56477
1.55174
1.53732
1.52371
1.51055
1.4974
1.48626
1.47555
1.46394
1.45174
1.43853
1.42339
1.40585
1.38567
1.36389
1.34211
1.32018
1.2975
1.27423
1.25185
1.23081
1.21068
1.19131
1.17261
1.15473
1.13818
1.12359
1.11141
1.10138
1.09165
1.08179
1.07211
1.06273
1.05367
1.04513
1.03743
1.03075
1.02507
1.02047
1.0169
1.01425
1.01234
1.01074
1.01003
1.00942
1.00839
1.00709
1.00595
1.00543
1.00488
1.00397
1.00337
1.00311
1.00299
1.00275
1.00196
0.999885
0.997899
0.996848
0.996433
0.996386
0.99653
0.996976
0.997556
0.998066
0.998501
0.99886
0.99915
0.999377
0.999552
0.999684
0.999781
0.99985
0.999899
0.999933
0.999957
0.99997
2.16758
2.14334
2.09287
2.04429
2.00052
1.9643
1.93415
1.90571
1.8792
1.85237
1.82617
1.80147
1.7782
1.75549
1.73278
1.70907
1.68442
1.65954
1.6352
1.61345
1.59441
1.57684
1.56126
1.54436
1.5269
1.50913
1.49019
1.47254
1.4561
1.43983
1.42537
1.41143
1.39606
1.38066
1.36471
1.34693
1.32768
1.30809
1.28795
1.26818
1.24882
1.22943
1.21037
1.19237
1.17539
1.15951
1.14462
1.12991
1.11573
1.10384
1.09499
1.08715
1.07929
1.07155
1.06375
1.05591
1.04832
1.04127
1.03479
1.02893
1.02405
1.02018
1.01726
1.0152
1.01363
1.01223
1.01157
1.01108
1.01003
1.00841
1.007
1.00585
1.0045
1.0038
1.00358
1.0036
1.00358
1.00307
1.00134
0.998892
0.997411
0.996659
0.996404
0.996422
0.996635
0.997159
0.997715
0.998199
0.998609
0.998946
0.999216
0.999428
0.99959
0.999711
0.9998
0.999864
0.999909
0.999939
0.999961
0.999973
2.11172
2.10046
2.07679
2.03245
1.99034
1.95369
1.92095
1.89487
1.86898
1.84243
1.81597
1.78954
1.76452
1.74112
1.71833
1.69528
1.67166
1.64825
1.62579
1.60527
1.58563
1.56763
1.54757
1.52816
1.50647
1.48459
1.46372
1.44255
1.42291
1.40454
1.3855
1.36804
1.35084
1.33232
1.3145
1.29687
1.27813
1.25944
1.24181
1.2237
1.20605
1.18937
1.17269
1.15697
1.14223
1.12869
1.11665
1.10439
1.09191
1.08233
1.07584
1.06956
1.06371
1.05791
1.05201
1.04614
1.04038
1.03508
1.03027
1.02602
1.02247
1.01944
1.0171
1.01554
1.01459
1.01373
1.01305
1.0127
1.01194
1.01049
1.00877
1.00641
1.00474
1.00417
1.00421
1.0044
1.0042
1.00284
1.00022
0.998321
0.997161
0.996599
0.996453
0.996517
0.996817
0.997377
0.997896
0.998348
0.998727
0.999038
0.999287
0.99948
0.999628
0.999738
0.999819
0.999876
0.999917
0.999945
0.999965
0.999975
2.06296
2.05705
2.04259
2.02062
1.97855
1.93751
1.90135
1.86774
1.84004
1.81684
1.79473
1.77277
1.75009
1.72676
1.70329
1.68045
1.65842
1.63755
1.61748
1.59782
1.57794
1.55693
1.53499
1.51153
1.4879
1.46429
1.44076
1.41892
1.39702
1.37595
1.35589
1.33481
1.31481
1.29545
1.27529
1.25636
1.23872
1.22027
1.20301
1.18751
1.17188
1.156
1.14192
1.12784
1.11404
1.10168
1.09099
1.08057
1.06911
1.06044
1.05525
1.05021
1.04572
1.04143
1.03714
1.03296
1.02908
1.02564
1.02269
1.02022
1.01822
1.0167
1.01561
1.01487
1.01437
1.01405
1.01388
1.01358
1.01313
1.01215
1.00997
1.00696
1.00508
1.0045
1.0046
1.00478
1.00425
1.00218
0.99972
0.998012
0.997029
0.99661
0.99655
0.996668
0.997061
0.997606
0.99809
0.998506
0.998853
0.999136
0.999361
0.999535
0.999668
0.999767
0.999839
0.99989
0.999927
0.999951
0.999969
0.999978
1.95772
2.01498
2.00948
1.99484
1.96423
1.92481
1.88671
1.8506
1.81685
1.78711
1.76398
1.74534
1.72794
1.70969
1.68996
1.66912
1.64796
1.62717
1.60666
1.58621
1.5651
1.54301
1.51987
1.49584
1.47162
1.44729
1.42371
1.40012
1.37773
1.35513
1.33307
1.3117
1.28995
1.26884
1.24886
1.22853
1.21022
1.19331
1.17616
1.16001
1.14611
1.13119
1.11711
1.10457
1.0922
1.08019
1.0707
1.06234
1.05232
1.04373
1.03916
1.03482
1.03099
1.02745
1.02404
1.02089
1.01824
1.0162
1.0147
1.01365
1.013
1.01273
1.01274
1.01295
1.01332
1.01354
1.01359
1.01356
1.01336
1.01253
1.01039
1.00744
1.00541
1.00464
1.00464
1.00474
1.00399
1.00173
0.999352
0.997808
0.996999
0.996715
0.996724
0.996902
0.997362
0.997862
0.9983
0.998674
0.998985
0.999238
0.999437
0.999592
0.999709
0.999796
0.999859
0.999904
0.999936
0.999957
0.999973
0.99998
1.80583
1.91177
1.96446
1.95602
1.94406
1.91498
1.87551
1.83796
1.80462
1.77509
1.74874
1.72625
1.70801
1.6918
1.6751
1.6567
1.63638
1.61501
1.59313
1.57121
1.54906
1.5266
1.50361
1.48019
1.45651
1.43273
1.40915
1.38568
1.36248
1.33955
1.31681
1.29441
1.2729
1.2515
1.23143
1.21224
1.1934
1.17606
1.1601
1.14363
1.12877
1.11541
1.10136
1.08842
1.07795
1.06683
1.05677
1.04924
1.04108
1.03208
1.02735
1.02389
1.02067
1.01781
1.01509
1.01267
1.01085
1.00974
1.00917
1.00898
1.00905
1.00945
1.01035
1.01128
1.01211
1.01272
1.01302
1.01306
1.01288
1.0121
1.01011
1.00746
1.00555
1.0047
1.00455
1.00449
1.00366
1.00121
0.998977
0.997662
0.997059
0.996906
0.99696
0.997213
0.997685
0.998126
0.998513
0.998843
0.999117
0.999338
0.999513
0.999647
0.999749
0.999824
0.999878
0.999917
0.999945
0.999963
0.999977
0.999983
1.55091
1.82786
1.87428
1.91343
1.90506
1.8953
1.86817
1.83127
1.79547
1.76462
1.73935
1.71786
1.69818
1.67927
1.6604
1.641
1.621
1.59988
1.57807
1.55595
1.53371
1.51141
1.48887
1.46617
1.44328
1.42026
1.39719
1.37404
1.35096
1.32792
1.30522
1.28296
1.26138
1.24094
1.22102
1.20257
1.18494
1.16764
1.15137
1.13559
1.12042
1.10625
1.09381
1.08106
1.06979
1.06093
1.05129
1.04309
1.0369
1.02857
1.02149
1.01869
1.01568
1.01301
1.01051
1.00833
1.00688
1.0063
1.00626
1.00643
1.00702
1.00818
1.00945
1.01069
1.01178
1.01257
1.01297
1.013
1.01272
1.01172
1.00966
1.00743
1.0058
1.00505
1.00482
1.00443
1.00329
1.00057
0.998647
0.997647
0.997259
0.997208
0.997297
0.997595
0.998015
0.998396
0.99873
0.999014
0.999249
0.999438
0.999587
0.999701
0.999788
0.999851
0.999897
0.99993
0.999953
0.999969
0.99998
0.999985
1.25531
1.56602
1.80112
1.84717
1.8663
1.85807
1.84859
1.8237
1.79129
1.75857
1.7296
1.70551
1.68501
1.66615
1.64768
1.62819
1.60732
1.5856
1.56352
1.54144
1.51935
1.49743
1.47557
1.45372
1.43174
1.40962
1.38727
1.36476
1.34211
1.31953
1.29725
1.27549
1.25463
1.23462
1.2157
1.19755
1.18031
1.1637
1.14752
1.13251
1.11796
1.10403
1.09148
1.08026
1.06942
1.05989
1.05225
1.04396
1.03704
1.03154
1.024
1.01891
1.01676
1.01413
1.01174
1.00964
1.00827
1.00786
1.00791
1.00821
1.00903
1.01027
1.01152
1.01266
1.01358
1.01416
1.01434
1.01419
1.0135
1.01191
1.00995
1.00805
1.00674
1.00606
1.00563
1.00471
1.00251
0.999885
0.998473
0.997828
0.997616
0.99761
0.997709
0.997995
0.998344
0.998663
0.998942
0.99918
0.999376
0.999534
0.999658
0.999753
0.999824
0.999877
0.999915
0.999942
0.999961
0.999974
0.999984
0.999988
1.09225
1.29383
1.51564
1.76163
1.81504
1.82508
1.81676
1.80634
1.78315
1.75479
1.72441
1.69685
1.67369
1.65359
1.63445
1.61482
1.59399
1.57222
1.54999
1.52784
1.50614
1.48489
1.4639
1.44298
1.42196
1.40074
1.37922
1.35748
1.33554
1.31368
1.29209
1.27114
1.25096
1.23167
1.21324
1.19551
1.17855
1.16211
1.14667
1.13198
1.11836
1.10601
1.09446
1.0841
1.07465
1.06536
1.05731
1.05029
1.04309
1.03704
1.03204
1.02566
1.02224
1.02027
1.01782
1.01572
1.01425
1.01374
1.01377
1.01402
1.01471
1.01565
1.01662
1.01739
1.01786
1.01794
1.01768
1.01683
1.01539
1.01357
1.01165
1.01003
1.00893
1.00809
1.00682
1.00416
1.00121
0.999569
0.998668
0.998231
0.998085
0.998086
0.998166
0.998395
0.998673
0.998927
0.999152
0.999343
0.9995
0.999627
0.999726
0.999802
0.999859
0.999901
0.999932
0.999953
0.999969
0.999979
0.999987
0.99999
1.04036
1.09281
1.28895
1.49286
1.72217
1.77532
1.78546
1.77916
1.76943
1.74821
1.72166
1.69235
1.66485
1.64082
1.61945
1.59923
1.57906
1.55847
1.53758
1.51673
1.49599
1.47545
1.45503
1.43468
1.41425
1.39372
1.37295
1.35201
1.33092
1.30992
1.2892
1.26907
1.24958
1.23085
1.21276
1.19537
1.17869
1.16287
1.14811
1.13447
1.12216
1.11074
1.10049
1.09075
1.08187
1.07378
1.06598
1.05915
1.05302
1.04664
1.04176
1.0371
1.03207
1.02981
1.02767
1.02545
1.024
1.02317
1.02305
1.02318
1.0235
1.02395
1.02426
1.02436
1.0242
1.02365
1.02247
1.02084
1.01888
1.01683
1.015
1.01356
1.01199
1.00963
1.00563
1.00294
1.00113
0.99991
0.999148
0.998747
0.998602
0.998592
0.998642
0.998794
0.998997
0.999186
0.999354
0.999498
0.999617
0.999713
0.999789
0.999847
0.999891
0.999923
0.999947
0.999964
0.999976
0.999983
0.99999
0.999992
1.01447
1.03699
1.08955
1.23153
1.48732
1.68629
1.73871
1.74779
1.74291
1.73389
1.7148
1.68769
1.65751
1.63006
1.60651
1.58591
1.56679
1.54781
1.52827
1.5083
1.48825
1.46825
1.44832
1.42847
1.40862
1.38875
1.36875
1.3486
1.32836
1.30821
1.28832
1.26885
1.24984
1.23153
1.21391
1.19714
1.18127
1.16656
1.15298
1.14055
1.12904
1.11843
1.10859
1.09944
1.09106
1.08314
1.07607
1.06933
1.06337
1.05798
1.05279
1.04889
1.04486
1.0411
1.03951
1.03759
1.03588
1.03484
1.03432
1.03401
1.0339
1.03376
1.03343
1.03279
1.03176
1.03027
1.02838
1.02625
1.02399
1.02183
1.01963
1.01672
1.01196
1.00833
1.00549
1.0033
1.00166
1.00052
0.999773
0.99934
0.999147
0.999107
0.999122
0.999187
0.999309
0.999431
0.999544
0.999643
0.999725
0.999793
0.999847
0.999888
0.99992
0.999943
0.999961
0.999973
0.999982
0.999987
0.999992
0.999994
1.00505
1.01228
1.03431
1.07847
1.21012
1.44349
1.64156
1.69431
1.70785
1.7034
1.69607
1.67949
1.64987
1.62087
1.59768
1.57863
1.56077
1.54243
1.52308
1.503
1.48279
1.46289
1.44326
1.42387
1.40459
1.38536
1.3661
1.34675
1.32737
1.30796
1.28866
1.26983
1.25166
1.23431
1.21778
1.20211
1.18729
1.17345
1.16059
1.14874
1.13779
1.1277
1.1183
1.1096
1.1015
1.09405
1.08711
1.08073
1.07505
1.06969
1.0651
1.06104
1.05775
1.05432
1.05167
1.05035
1.04854
1.04736
1.04651
1.04583
1.04523
1.04435
1.04333
1.04183
1.03998
1.03783
1.03542
1.03282
1.03006
1.02598
1.02079
1.0163
1.01231
1.00891
1.00613
1.00396
1.00235
1.00121
1.00045
0.999983
0.999712
0.999581
0.999551
0.999558
0.999591
0.999651
0.999713
0.99977
0.99982
0.999862
0.999897
0.999924
0.999945
0.999961
0.999972
0.999981
0.999987
0.999991
0.999995
0.999995
1.00174
1.00428
1.01041
1.02906
1.06487
1.17854
1.38287
1.58022
1.64871
1.66573
1.66073
1.65455
1.64097
1.61698
1.59517
1.57656
1.55883
1.54018
1.52032
1.49972
1.47923
1.4594
1.44025
1.42139
1.40266
1.38398
1.36533
1.34658
1.32767
1.30883
1.29041
1.27275
1.2559
1.23966
1.22405
1.20908
1.19493
1.18174
1.16956
1.15835
1.148
1.13837
1.12937
1.12098
1.11314
1.10592
1.09922
1.0931
1.08753
1.08258
1.07802
1.07415
1.07104
1.06801
1.06526
1.06346
1.06199
1.06044
1.05928
1.0582
1.05687
1.05535
1.05352
1.0513
1.0488
1.04602
1.04253
1.03745
1.03236
1.02711
1.02196
1.01723
1.01308
1.00961
1.00681
1.00464
1.00303
1.00188
1.00108
1.00056
1.00022
1.00001
0.999901
0.999844
0.999832
0.999835
0.999851
0.999874
0.999897
0.999919
0.999937
0.999953
0.999965
0.999975
0.999982
0.999987
0.999991
0.999994
0.999996
0.999997
1.0006
1.00121
1.00377
1.00799
1.02304
1.05222
1.15142
1.29271
1.49069
1.60543
1.63509
1.62849
1.62144
1.60935
1.59184
1.57453
1.55734
1.53904
1.51915
1.49856
1.47819
1.45856
1.43968
1.42115
1.40265
1.38424
1.3659
1.34761
1.32941
1.3116
1.29442
1.27782
1.26182
1.24635
1.23144
1.21723
1.20384
1.19142
1.17996
1.16941
1.15957
1.15033
1.14162
1.13344
1.12581
1.11877
1.11229
1.10637
1.10101
1.09621
1.0919
1.08811
1.08494
1.0822
1.07927
1.07711
1.07568
1.07408
1.07246
1.07065
1.06861
1.06635
1.06376
1.06044
1.05637
1.05168
1.0463
1.04039
1.03426
1.02828
1.02272
1.01778
1.01355
1.01005
1.00726
1.00512
1.00353
1.00238
1.00156
1.00098
1.00059
1.00033
1.00016
1.00006
0.999998
0.999967
0.999953
0.999952
0.999954
0.99996
0.999968
0.999974
0.99998
0.999985
0.999989
0.999992
0.999995
0.999996
0.999998
0.999998
1.00018
1.00035
1.00111
1.0023
1.0068
1.01529
1.04041
1.0995
1.2497
1.40647
1.57498
1.60065
1.59406
1.58975
1.58053
1.56809
1.55378
1.53732
1.51866
1.49903
1.47909
1.4597
1.44102
1.42273
1.40459
1.38651
1.36876
1.35124
1.33401
1.31708
1.30054
1.28454
1.26919
1.25444
1.2403
1.22687
1.21429
1.20266
1.1919
1.1819
1.17247
1.16349
1.15496
1.14693
1.13948
1.13259
1.12629
1.12056
1.11536
1.11069
1.1065
1.1028
1.09957
1.09667
1.09379
1.09121
1.08951
1.08763
1.08528
1.08265
1.0797
1.07629
1.07228
1.06752
1.06192
1.05556
1.04872
1.04173
1.03489
1.02849
1.02272
1.01767
1.01339
1.00995
1.00728
1.00526
1.00374
1.00262
1.0018
1.00121
1.0008
1.00051
1.00031
1.00018
1.0001
1.00005
1.00002
1
0.999992
0.999988
0.999988
0.999989
0.999991
0.999993
0.999994
0.999996
0.999997
0.999998
0.999999
0.999998
1.00004
1.00011
1.00024
1.00072
1.00159
1.0046
1.01044
1.02826
1.06688
1.18301
1.30933
1.49479
1.55565
1.5655
1.5586
1.55114
1.54204
1.53071
1.51614
1.49904
1.48161
1.46378
1.44597
1.42826
1.41063
1.39304
1.37558
1.35854
1.34151
1.32472
1.30857
1.29321
1.27854
1.26453
1.25108
1.23839
1.22659
1.21567
1.20553
1.19589
1.1867
1.17782
1.16939
1.16146
1.15412
1.14741
1.14124
1.13564
1.13055
1.12595
1.12178
1.11803
1.11464
1.11143
1.10828
1.10545
1.10319
1.10049
1.09715
1.09345
1.08923
1.0843
1.07853
1.07193
1.06465
1.05694
1.0491
1.04144
1.03417
1.02743
1.02143
1.01641
1.0124
1.00927
1.00685
1.005
1.0036
1.00256
1.0018
1.00124
1.00084
1.00056
1.00037
1.00023
1.00015
1.00009
1.00005
1.00003
1.00001
1
1
0.999998
0.999997
0.999997
0.999998
0.999998
0.999999
0.999999
0.999999
0.999999
1.00001
1.00003
1.00006
1.00019
1.00039
1.00119
1.00254
1.00728
1.01659
1.04276
1.10319
1.22677
1.37967
1.50872
1.53021
1.52909
1.52162
1.51289
1.50447
1.49492
1.48134
1.46649
1.451
1.43496
1.41834
1.40142
1.38439
1.36752
1.351
1.33471
1.31906
1.30446
1.29053
1.27713
1.26427
1.25219
1.24098
1.23061
1.22081
1.21137
1.20216
1.19329
1.18484
1.177
1.16981
1.16322
1.15716
1.15158
1.14646
1.14178
1.13749
1.1335
1.12974
1.12606
1.12244
1.1192
1.11597
1.11179
1.10703
1.10172
1.09568
1.08885
1.08128
1.07314
1.06463
1.05601
1.0474
1.03894
1.03103
1.02422
1.01869
1.01428
1.01079
1.00806
1.00596
1.00436
1.00315
1.00225
1.00159
1.00111
1.00077
1.00052
1.00035
1.00023
1.00015
1.00009
1.00006
1.00003
1.00002
1.00001
1.00001
1
1
1
1
0.999999
0.999999
1
1
0.999999
1
1.00001
1.00002
1.00003
1.0001
1.00023
1.00066
1.00149
1.00409
1.00977
1.02454
1.0596
1.14709
1.24779
1.4135
1.49104
1.49245
1.49275
1.48825
1.48008
1.47171
1.4628
1.45076
1.43733
1.42284
1.40773
1.3924
1.37696
1.36165
1.34656
1.33182
1.31785
1.30468
1.29188
1.27958
1.26798
1.25719
1.24709
1.23743
1.22794
1.21862
1.20967
1.20129
1.19352
1.18636
1.17973
1.17362
1.16795
1.16271
1.15773
1.15304
1.14847
1.14401
1.13954
1.13524
1.13088
1.12549
1.11951
1.11296
1.10579
1.09798
1.08958
1.08072
1.07146
1.0617
1.05152
1.0416
1.03287
1.02571