/*--------------------------------*- C++ -*----------------------------------*\
| =========                 |                                                 |
| \\      /  F ield         | OpenFOAM: The Open Source CFD Toolbox           |
|  \\    /   O peration     | Version:  2412                                  |
|   \\  /    A nd           | Website:  www.openfoam.com                      |
|    \\/     M anipulation  |                                                 |
\*---------------------------------------------------------------------------*/
FoamFile
{
    version     2.0;
    format      ascii;
    arch        "LSB;label=32;scalar=64";
    class       volVectorField;
    location    "0.5";
    object      U;
}
// * * * * * * * * * * * * * * * * * * * * * * * * * * * * * * * * * * * * * //

dimensions      [0 1 -1 0 0 0 0];

internalField   nonuniform List<vector> 
5250
(
(3 6.3094e-10 0)
(3 4.9922e-09 0)
(3 1.52696e-08 0)
(2.99999 4.71743e-08 0)
(2.99998 1.11589e-07 0)
(2.99997 3.0974e-07 0)
(2.99991 7.0209e-07 0)
(2.99979 1.94366e-06 0)
(2.99944 4.38948e-06 0)
(2.99877 1.24091e-05 0)
(2.99647 2.76399e-05 0)
(2.99261 8.29437e-05 0)
(2.97625 0.000178556 0)
(2.94755 0.000595886 0)
(2.8271 0.00137505 0)
(2.49 0.00480527 0)
(1.6341 0.0122705 0)
(0.576255 0.0348527 0)
(0.265191 0.0302725 0)
(0.425686 0.0305822 0)
(0.406148 0.033991 0)
(0.294311 0.0388711 0)
(0.211383 0.04354 0)
(0.115044 0.0461977 0)
(0.0288018 0.0427846 0)
(3 1.902e-09 0)
(3 1.49741e-08 0)
(3 4.58508e-08 0)
(2.99999 1.40831e-07 0)
(2.99998 3.32502e-07 0)
(2.99997 9.16894e-07 0)
(2.99991 2.07024e-06 0)
(2.9998 5.71733e-06 0)
(2.99945 1.28561e-05 0)
(2.99879 3.6582e-05 0)
(2.99653 8.06597e-05 0)
(2.99273 0.000247425 0)
(2.97667 0.000525345 0)
(2.94858 0.00180641 0)
(2.83025 0.0041305 0)
(2.50029 0.0150874 0)
(1.65604 0.0378557 0)
(0.588203 0.105092 0)
(0.261266 0.085905 0)
(0.426761 0.0814639 0)
(0.407713 0.0861782 0)
(0.295891 0.0935209 0)
(0.213839 0.0996311 0)
(0.119964 0.103671 0)
(0.0312317 0.0977424 0)
(3 3.18759e-09 0)
(3 2.49031e-08 0)
(3 7.64574e-08 0)
(2.99999 2.32808e-07 0)
(2.99999 5.49005e-07 0)
(2.99997 1.49473e-06 0)
(2.99991 3.35568e-06 0)
(2.9998 9.18102e-06 0)
(2.99947 2.04977e-05 0)
(2.99883 5.85273e-05 0)
(2.99665 0.000127237 0)
(2.99298 0.000400028 0)
(2.97752 0.000832757 0)
(2.95064 0.00296539 0)
(2.83713 0.00665749 0)
(2.52239 0.025666 0)
(1.70521 0.0637138 0)
(0.617093 0.18072 0)
(0.258462 0.145741 0)
(0.432378 0.136735 0)
(0.415826 0.146082 0)
(0.304092 0.15922 0)
(0.221514 0.17029 0)
(0.127703 0.178772 0)
(0.0337489 0.171279 0)
(3 4.48647e-09 0)
(3 3.47455e-08 0)
(3 1.07018e-07 0)
(2.99999 3.23218e-07 0)
(2.99999 7.62617e-07 0)
(2.99997 2.04588e-06 0)
(2.99992 4.57087e-06 0)
(2.99981 1.22761e-05 0)
(2.99949 2.71486e-05 0)
(2.99888 7.69199e-05 0)
(2.99682 0.000164006 0)
(2.99332 0.000529129 0)
(2.97877 0.00106634 0)
(2.95357 0.00398095 0)
(2.84752 0.00861739 0)
(2.55549 0.0349588 0)
(1.7814 0.0864164 0)
(0.66363 0.252799 0)
(0.258565 0.204772 0)
(0.442995 0.192208 0)
(0.431119 0.207027 0)
(0.319382 0.226301 0)
(0.234924 0.243373 0)
(0.139159 0.257588 0)
(0.037397 0.250379 0)
(3 5.82666e-09 0)
(3 4.46358e-08 0)
(3 1.37859e-07 0)
(3 4.12866e-07 0)
(2.99999 9.74955e-07 0)
(2.99997 2.58299e-06 0)
(2.99992 5.76511e-06 0)
(2.99982 1.51687e-05 0)
(2.99952 3.33328e-05 0)
(2.99894 9.22195e-05 0)
(2.99703 0.000192171 0)
(2.99373 0.000634485 0)
(2.98035 0.001184 0)
(2.9571 0.00489037 0)
(2.86089 0.00974709 0)
(2.5979 0.0423211 0)
(1.88198 0.104181 0)
(0.729151 0.317421 0)
(0.266299 0.262539 0)
(0.458092 0.248987 0)
(0.45167 0.268931 0)
(0.340368 0.293735 0)
(0.25368 0.318003 0)
(0.155166 0.339499 0)
(0.0435199 0.335046 0)
(3 7.17023e-09 0)
(3 5.46521e-08 0)
(3 1.68921e-07 0)
(3 5.03357e-07 0)
(2.99999 1.19125e-06 0)
(2.99997 3.13017e-06 0)
(2.99993 7.00842e-06 0)
(2.99983 1.8135e-05 0)
(2.99956 3.98585e-05 0)
(2.99901 0.000106894 0)
(2.99727 0.000222375 0)
(2.99415 0.000718552 0)
(2.98227 0.00121604 0)
(2.96088 0.00557642 0)
(2.87666 0.0100707 0)
(2.64702 0.0460577 0)
(2.00377 0.115668 0)
(0.818855 0.36636 0)
(0.288213 0.317768 0)
(0.477314 0.309522 0)
(0.47594 0.334208 0)
(0.367079 0.363358 0)
(0.278827 0.39685 0)
(0.176675 0.42769 0)
(0.0531691 0.429777 0)
(3 8.25679e-09 0)
(3 6.33899e-08 0)
(3 1.95259e-07 0)
(3 5.8451e-07 0)
(2.99999 1.38749e-06 0)
(2.99997 3.66331e-06 0)
(2.99993 8.26033e-06 0)
(2.99985 2.13219e-05 0)
(2.9996 4.72675e-05 0)
(2.99909 0.000123637 0)
(2.99754 0.000265178 0)
(2.99456 0.000773546 0)
(2.98436 0.00142684 0)
(2.96466 0.00551443 0)
(2.89311 0.0106356 0)
(2.69873 0.0426291 0)
(2.14625 0.115118 0)
(0.937677 0.371061 0)
(0.330347 0.369645 0)
(0.49939 0.378201 0)
(0.501019 0.40443 0)
(0.399214 0.436034 0)
(0.311529 0.480391 0)
(0.205275 0.524122 0)
(0.0686645 0.539846 0)
(3 8.85067e-09 0)
(3 6.91422e-08 0)
(3 2.11622e-07 0)
(3 6.40037e-07 0)
(2.99999 1.52351e-06 0)
(2.99998 4.07675e-06 0)
(2.99994 9.26177e-06 0)
(2.99987 2.4208e-05 0)
(2.99964 5.42277e-05 0)
(2.99919 0.000141782 0)
(2.99781 0.000313611 0)
(2.99512 0.000840655 0)
(2.98619 0.00182403 0)
(2.96871 0.00518425 0)
(2.9066 0.0122274 0)
(2.74328 0.0368979 0)
(2.28595 0.102285 0)
(1.0739 0.322218 0)
(0.396389 0.428464 0)
(0.519778 0.458797 0)
(0.522903 0.478381 0)
(0.437097 0.513144 0)
(0.354492 0.568991 0)
(0.24566 0.631971 0)
(0.0941673 0.675063 0)
(3 8.84618e-09 0)
(3 6.96655e-08 0)
(3 2.12488e-07 0)
(3 6.47505e-07 0)
(2.99999 1.5417e-06 0)
(2.99998 4.16645e-06 0)
(2.99995 9.49155e-06 0)
(2.99989 2.50715e-05 0)
(2.99969 5.64583e-05 0)
(2.99931 0.000148487 0)
(2.99812 0.000333486 0)
(2.99583 0.000869715 0)
(2.98796 0.00201893 0)
(2.97346 0.00510922 0)
(2.91858 0.012672 0)
(2.77907 0.0354378 0)
(2.38591 0.0914967 0)
(1.23461 0.279502 0)
(0.491436 0.502023 0)
(0.533487 0.541346 0)
(0.541192 0.549128 0)
(0.483489 0.592323 0)
(0.411749 0.660576 0)
(0.308243 0.75185 0)
(0.13986 0.851958 0)
(3 3.38054e-09 0)
(3 8.17338e-08 0)
(3 1.70425e-07 0)
(3 7.49425e-07 0)
(2.99999 1.33409e-06 0)
(2.99998 5.03944e-06 0)
(2.99996 8.8038e-06 0)
(2.99991 3.236e-05 0)
(2.99974 5.35803e-05 0)
(2.99943 0.000207248 0)
(2.99841 0.000294716 0)
(2.99653 0.00127403 0)
(2.9897 0.00144513 0)
(2.9777 0.00783537 0)
(2.93072 0.0071472 0)
(2.81302 0.0499923 0)
(2.47742 0.0737692 0)
(1.4315 0.286355 0)
(0.626958 0.576179 0)
(0.550625 0.60608 0)
(0.569276 0.611613 0)
(0.546817 0.665437 0)
(0.490429 0.75263 0)
(0.411329 0.893192 0)
(0.224189 1.13343 0)
(3 6.41162e-09 0)
(3 5.42311e-08 0)
(3 1.62911e-07 0)
(3 5.23205e-07 0)
(3 1.25357e-06 0)
(2.99999 3.59338e-06 0)
(2.99997 8.33548e-06 0)
(2.99992 2.30958e-05 0)
(2.99984 5.36176e-05 0)
(2.99951 0.000141882 0)
(2.99901 0.000342485 0)
(2.99679 0.000837462 0)
(2.99338 0.00202053 0)
(2.97829 0.00510304 0)
(2.95144 0.0120112 0)
(2.84131 0.0330415 0)
(2.53917 0.097882 0)
(1.74484 0.256857 0)
(0.791023 0.651108 0)
(0.583593 0.663105 0)
(0.618765 0.669955 0)
(0.631701 0.727166 0)
(0.609082 0.831401 0)
(0.6145 1.00269 0)
(0.650791 1.28756 0)
(3 9.50556e-09 0)
(3 2.31606e-08 0)
(3 1.47579e-07 0)
(3 2.45221e-07 0)
(3 1.03886e-06 0)
(2.99999 1.56283e-06 0)
(2.99997 6.32517e-06 0)
(2.99994 8.64502e-06 0)
(2.99984 3.93796e-05 0)
(2.99967 4.29496e-05 0)
(2.99899 0.000267571 0)
(2.99793 0.000260932 0)
(2.99325 0.00193149 0)
(2.98598 0.00206007 0)
(2.95388 0.0143382 0)
(2.88354 0.0195931 0)
(2.65795 0.104092 0)
(1.93265 0.256397 0)
(0.999932 0.714765 0)
(0.644761 0.723292 0)
(0.690957 0.730353 0)
(0.733084 0.776873 0)
(0.743378 0.882282 0)
(0.805104 1.04598 0)
(0.964321 1.26905 0)
(3 4.28855e-09 0)
(3 3.40027e-08 0)
(3 1.03988e-07 0)
(3 3.19108e-07 0)
(3 7.57453e-07 0)
(2.99999 2.06446e-06 0)
(2.99998 4.65664e-06 0)
(2.99995 1.25777e-05 0)
(2.99987 2.75172e-05 0)
(2.9997 7.98855e-05 0)
(2.99919 0.000157288 0)
(2.99817 0.000554858 0)
(2.99488 0.00101287 0)
(2.98866 0.00399124 0)
(2.96641 0.00790902 0)
(2.9169 0.0284754 0)
(2.75668 0.0747264 0)
(2.23332 0.22608 0)
(1.28267 0.67324 0)
(0.763961 0.757076 0)
(0.778498 0.794727 0)
(0.828991 0.823863 0)
(0.868241 0.910743 0)
(0.952913 1.04526 0)
(1.13696 1.19386 0)
(3 3.926e-09 0)
(3 3.15101e-08 0)
(3 9.57895e-08 0)
(3 2.97158e-07 0)
(3 7.06253e-07 0)
(2.99999 1.96023e-06 0)
(2.99998 4.46815e-06 0)
(2.99996 1.22642e-05 0)
(2.9999 2.78004e-05 0)
(2.99977 7.69023e-05 0)
(2.99939 0.000174809 0)
(2.99864 0.0004862 0)
(2.99611 0.00111445 0)
(2.99175 0.00308552 0)
(2.97396 0.00726488 0)
(2.9415 0.0202437 0)
(2.81473 0.0549167 0)
(2.45045 0.160117 0)
(1.61265 0.490676 0)
(0.89849 0.790798 0)
(0.852605 0.853516 0)
(0.893756 0.876983 0)
(0.962531 0.932089 0)
(1.0589 1.03021 0)
(1.2332 1.12774 0)
(3 3.39731e-09 0)
(3 2.70145e-08 0)
(3 8.23863e-08 0)
(3 2.53425e-07 0)
(3 6.02419e-07 0)
(3 1.64858e-06 0)
(2.99999 3.74874e-06 0)
(2.99997 1.00803e-05 0)
(2.99992 2.26977e-05 0)
(2.99982 6.12784e-05 0)
(2.99953 0.000137319 0)
(2.99896 0.000378866 0)
(2.99705 0.00082572 0)
(2.9938 0.00247823 0)
(2.98045 0.00501064 0)
(2.95767 0.0174599 0)
(2.8621 0.0377513 0)
(2.60441 0.136694 0)
(1.94311 0.358783 0)
(1.09153 0.847657 0)
(0.915746 0.900611 0)
(0.944995 0.924697 0)
(1.02777 0.950535 0)
(1.13551 1.01429 0)
(1.29304 1.07919 0)
(3 2.93891e-09 0)
(3 2.35106e-08 0)
(3 7.15807e-08 0)
(3 2.21372e-07 0)
(3 5.26995e-07 0)
(3 1.4517e-06 0)
(2.99999 3.31594e-06 0)
(2.99998 8.94292e-06 0)
(2.99994 2.02579e-05 0)
(2.99987 5.43273e-05 0)
(2.99965 0.000122243 0)
(2.99921 0.000329944 0)
(2.99785 0.000721889 0)
(2.99525 0.00209095 0)
(2.98626 0.0042038 0)
(2.96931 0.0142621 0)
(2.9059 0.029506 0)
(2.73836 0.108833 0)
(2.27187 0.279142 0)
(1.35492 0.82197 0)
(1.01108 0.918358 0)
(1.01073 0.956427 0)
(1.08503 0.971806 0)
(1.19644 1.00295 0)
(1.33724 1.04424 0)
(3 2.35439e-09 0)
(3 1.88794e-08 0)
(3 5.74278e-08 0)
(3 1.77699e-07 0)
(3 4.22947e-07 0)
(3 1.16465e-06 0)
(2.99999 2.65922e-06 0)
(2.99999 7.16591e-06 0)
(2.99996 1.623e-05 0)
(2.99991 4.35315e-05 0)
(2.99976 9.8212e-05 0)
(2.99946 0.000263861 0)
(2.99851 0.000591647 0)
(2.99671 0.0016182 0)
(2.9905 0.00358197 0)
(2.97909 0.0103554 0)
(2.93648 0.0235174 0)
(2.83116 0.0744048 0)
(2.53079 0.198672 0)
(1.6717 0.642767 0)
(1.16362 0.903876 0)
(1.0945 0.970946 0)
(1.13632 0.997384 0)
(1.23984 1.00658 0)
(1.372 1.02663 0)
(3 1.81183e-09 0)
(3 1.44944e-08 0)
(3 4.41004e-08 0)
(3 1.36057e-07 0)
(3 3.24029e-07 0)
(3 8.8783e-07 0)
(3 2.02686e-06 0)
(2.99999 5.42497e-06 0)
(2.99997 1.22645e-05 0)
(2.99994 3.27087e-05 0)
(2.99983 7.36232e-05 0)
(2.99963 0.000197498 0)
(2.99898 0.000442618 0)
(2.99774 0.00121397 0)
(2.9935 0.00267616 0)
(2.98609 0.00777849 0)
(2.95694 0.0172551 0)
(2.8918 0.0535953 0)
(2.68859 0.13986 0)
(2.02255 0.447258 0)
(1.37293 0.921242 0)
(1.19217 0.993414 0)
(1.20084 1.02697 0)
(1.2817 1.02654 0)
(1.40303 1.02291 0)
(3 1.01738e-09 0)
(3 1.12571e-08 0)
(3 2.9635e-08 0)
(3 1.03959e-07 0)
(3 2.19552e-07 0)
(3 6.77743e-07 0)
(3 1.37826e-06 0)
(2.99999 4.15512e-06 0)
(2.99998 8.3801e-06 0)
(2.99996 2.51953e-05 0)
(2.99989 5.0612e-05 0)
(2.99976 0.000152997 0)
(2.99936 0.000304892 0)
(2.99858 0.000944755 0)
(2.99595 0.00180173 0)
(2.99131 0.00619515 0)
(2.97351 0.0105678 0)
(2.93782 0.0421484 0)
(2.81603 0.0866061 0)
(2.4301 0.319765 0)
(1.72416 0.789739 0)
(1.33575 0.985119 0)
(1.28746 1.03917 0)
(1.32752 1.04907 0)
(1.4295 1.0317 0)
(3 6.72602e-10 0)
(3 7.26178e-09 0)
(3 1.93076e-08 0)
(3 6.72585e-08 0)
(3 1.43231e-07 0)
(3 4.39133e-07 0)
(3 8.99945e-07 0)
(3 2.69329e-06 0)
(2.99999 5.46982e-06 0)
(2.99997 1.63077e-05 0)
(2.99994 3.29379e-05 0)
(2.99984 9.8564e-05 0)
(2.99964 0.000197556 0)
(2.99899 0.000601605 0)
(2.99787 0.0011772 0)
(2.99342 0.00382504 0)
(2.98633 0.00702279 0)
(2.95649 0.0256465 0)
(2.89223 0.0519296 0)
(2.6814 0.18233 0)
(2.06158 0.527519 0)
(1.53127 0.963265 0)
(1.38874 1.04327 0)
(1.38919 1.06904 0)
(1.46171 1.05518 0)
(3 8.21453e-10 0)
(3 3.53927e-09 0)
(3 1.52764e-08 0)
(3 3.51513e-08 0)
(3 1.11622e-07 0)
(3 2.34441e-07 0)
(3 7.0534e-07 0)
(3 1.45544e-06 0)
(2.99999 4.32471e-06 0)
(2.99998 8.87053e-06 0)
(2.99996 2.62499e-05 0)
(2.9999 5.34878e-05 0)
(2.99978 0.000158992 0)
(2.99939 0.00031697 0)
(2.99864 0.000989873 0)
(2.99619 0.00181922 0)
(2.99165 0.0065601 0)
(2.97528 0.0114406 0)
(2.94155 0.044571 0)
(2.82914 0.0961488 0)
(2.47226 0.344796 0)
(1.86108 0.811956 0)
(1.52241 1.02285 0)
(1.47012 1.07544 0)
(1.50143 1.08198 0)
(3 4.53455e-10 0)
(3 2.4119e-09 0)
(3 9.17096e-09 0)
(3 2.34181e-08 0)
(3 6.70117e-08 0)
(3 1.54991e-07 0)
(3 4.21755e-07 0)
(3 9.57994e-07 0)
(3 2.58004e-06 0)
(2.99999 5.83516e-06 0)
(2.99998 1.56836e-05 0)
(2.99995 3.53916e-05 0)
(2.99986 9.52769e-05 0)
(2.99968 0.000214577 0)
(2.99912 0.00058199 0)
(2.99806 0.00129977 0)
(2.99435 0.00363798 0)
(2.98773 0.00789652 0)
(2.96297 0.0237665 0)
(2.90705 0.0559231 0)
(2.72923 0.173406 0)
(2.21683 0.519543 0)
(1.73001 0.947428 0)
(1.57269 1.05836 0)
(1.56093 1.09192 0)
(3 1.83447e-10 0)
(3 1.49265e-09 0)
(3 4.51776e-09 0)
(3 1.41216e-08 0)
(3 3.35125e-08 0)
(3 9.36858e-08 0)
(3 2.13471e-07 0)
(3 5.86296e-07 0)
(3 1.32811e-06 0)
(2.99999 3.63583e-06 0)
(2.99999 8.23301e-06 0)
(2.99997 2.24873e-05 0)
(2.99993 5.08551e-05 0)
(2.9998 0.000139001 0)
(2.99954 0.000312466 0)
(2.99873 0.000867987 0)
(2.99715 0.00191134 0)
(2.99198 0.00559399 0)
(2.98144 0.0121965 0)
(2.94737 0.0369006 0)
(2.86229 0.0956092 0)
(2.60498 0.285629 0)
(2.02702 0.765363 0)
(1.71604 1.01268 0)
(1.64613 1.0823 0)
(3 1.44706e-10 0)
(3 7.50148e-10 0)
(3 2.89748e-09 0)
(3 7.37436e-09 0)
(3 2.14955e-08 0)
(3 4.97625e-08 0)
(3 1.38314e-07 0)
(3 3.1513e-07 0)
(3 8.66808e-07 0)
(3 1.96823e-06 0)
(2.99999 5.397e-06 0)
(2.99998 1.22294e-05 0)
(2.99996 3.35463e-05 0)
(2.9999 7.59048e-05 0)
(2.99973 0.000209014 0)
(2.99939 0.000472435 0)
(2.99829 0.00131055 0)
(2.99629 0.00297135 0)
(2.98904 0.00826704 0)
(2.97553 0.019671 0)
(2.92727 0.0542425 0)
(2.80377 0.150559 0)
(2.44053 0.424323 0)
(1.93445 0.901725 0)
(1.74835 1.05308 0)
(3 4.8016e-11 0)
(3 4.84256e-10 0)
(3 1.33319e-09 0)
(3 4.58061e-09 0)
(3 1.01171e-08 0)
(3 3.09503e-08 0)
(3 6.60444e-08 0)
(3 1.97373e-07 0)
(3 4.18884e-07 0)
(3 1.24146e-06 0)
(3 2.63192e-06 0)
(2.99999 7.75086e-06 0)
(2.99998 1.64003e-05 0)
(2.99994 4.80378e-05 0)
(2.99987 0.000101145 0)
(2.99965 0.000296444 0)
(2.99923 0.000615469 0)
(2.99778 0.00185267 0)
(2.99533 0.00370001 0)
(2.98548 0.0118939 0)
(2.96787 0.0245774 0)
(2.90177 0.0796102 0)
(2.72385 0.214371 0)
(2.29869 0.601974 0)
(1.91489 0.965542 0)
(3 4.60048e-11 0)
(3 2.08661e-10 0)
(3 8.7356e-10 0)
(3 2.07672e-09 0)
(3 6.52046e-09 0)
(3 1.42273e-08 0)
(3 4.25178e-08 0)
(3 9.14853e-08 0)
(3 2.69328e-07 0)
(3 5.77439e-07 0)
(3 1.68293e-06 0)
(3 3.59639e-06 0)
(2.99999 1.03932e-05 0)
(2.99997 2.20944e-05 0)
(2.99993 6.35755e-05 0)
(2.99982 0.000133889 0)
(2.99959 0.000389789 0)
(2.99886 0.000798532 0)
(2.9974 0.00247316 0)
(2.99283 0.00478963 0)
(2.98317 0.0162917 0)
(2.95348 0.0331676 0)
(2.87828 0.113451 0)
(2.66169 0.299341 0)
(2.19522 0.753298 0)
(3 2.13294e-11 0)
(3 1.10919e-10 0)
(3 4.26661e-10 0)
(3 1.08479e-09 0)
(3 3.20404e-09 0)
(3 7.44109e-09 0)
(3 2.10282e-08 0)
(3 4.81586e-08 0)
(3 1.34326e-07 0)
(3 3.06518e-07 0)
(3 8.48278e-07 0)
(3 1.93064e-06 0)
(2.99999 5.31443e-06 0)
(2.99999 1.2065e-05 0)
(2.99997 3.31247e-05 0)
(2.99992 7.50492e-05 0)
(2.99978 0.000206124 0)
(2.99951 0.000466065 0)
(2.99865 0.00128401 0)
(2.99695 0.00292088 0)
(2.99153 0.00802902 0)
(2.98018 0.0190874 0)
(2.94449 0.0523664 0)
(2.85234 0.140318 0)
(2.58366 0.390952 0)
(3 6.63707e-12 0)
(3 5.43974e-11 0)
(3 1.6328e-10 0)
(3 5.19289e-10 0)
(3 1.24295e-09 0)
(3 3.6283e-09 0)
(3 8.37219e-09 0)
(3 2.39499e-08 0)
(3 5.48503e-08 0)
(3 1.55035e-07 0)
(3 3.53985e-07 0)
(3 9.91519e-07 0)
(3 2.25858e-06 0)
(2.99999 6.28281e-06 0)
(2.99999 1.428e-05 0)
(2.99996 3.95301e-05 0)
(2.99991 8.96062e-05 0)
(2.99975 0.000247439 0)
(2.99945 0.000559036 0)
(2.99844 0.00154381 0)
(2.99664 0.00351281 0)
(2.99001 0.00967882 0)
(2.97771 0.0230635 0)
(2.93435 0.0635441 0)
(2.8211 0.176987 0)
(3 4.01608e-12 0)
(3 1.66239e-11 0)
(3 7.63659e-11 0)
(3 1.79499e-10 0)
(3 5.97405e-10 0)
(3 1.33573e-09 0)
(3 4.16008e-09 0)
(3 9.1654e-09 0)
(3 2.78189e-08 0)
(3 6.09206e-08 0)
(3 1.82052e-07 0)
(3 3.97542e-07 0)
(3 1.17421e-06 0)
(3 2.55943e-06 0)
(2.99999 7.48199e-06 0)
(2.99998 1.62756e-05 0)
(2.99996 4.71374e-05 0)
(2.9999 0.000102066 0)
(2.99973 0.000294712 0)
(2.99941 0.000629042 0)
(2.9983 0.001859 0)
(2.99641 0.00381545 0)
(2.98899 0.0119491 0)
(2.97556 0.0253123 0)
(2.92684 0.0790479 0)
(3 1.33068e-13 0)
(3 7.48893e-12 0)
(3 1.79914e-11 0)
(3 8.21706e-11 0)
(3 1.84051e-10 0)
(3 6.3474e-10 0)
(3 1.41286e-09 0)
(3 4.46082e-09 0)
(3 9.88982e-09 0)
(3 3.01482e-08 0)
(3 6.65665e-08 0)
(3 1.99204e-07 0)
(3 4.38614e-07 0)
(3 1.29447e-06 0)
(3 2.84386e-06 0)
(2.99999 8.2825e-06 0)
(2.99998 1.81358e-05 0)
(2.99996 5.21922e-05 0)
(2.99989 0.000113412 0)
(2.99975 0.000325991 0)
(2.9993 0.000692565 0)
(2.99841 0.00207208 0)
(2.99556 0.00418418 0)
(2.98962 0.0134417 0)
(2.97106 0.0282867 0)
(3 1.32863e-13 0)
(3 2.90395e-12 0)
(3 7.40693e-12 0)
(3 3.07053e-11 0)
(3 7.12436e-11 0)
(3 2.43444e-10 0)
(3 5.53396e-10 0)
(3 1.76452e-09 0)
(3 3.9582e-09 0)
(3 1.21666e-08 0)
(3 2.70757e-08 0)
(3 8.14075e-08 0)
(3 1.80277e-07 0)
(3 5.33907e-07 0)
(3 1.17851e-06 0)
(3 3.44753e-06 0)
(2.99999 7.58919e-06 0)
(2.99998 2.19598e-05 0)
(2.99996 4.81816e-05 0)
(2.99989 0.000138449 0)
(2.99976 0.000302338 0)
(2.99932 0.000870607 0)
(2.99845 0.00189948 0)
(2.99563 0.00551728 0)
(2.98967 0.0123773 0)
(3 7.48643e-14 0)
(3 3.06472e-13 0)
(3 1.9169e-12 0)
(3 3.96025e-12 0)
(3 2.23906e-11 0)
(3 4.68874e-11 0)
(3 2.03202e-10 0)
(3 4.51182e-10 0)
(3 1.56937e-09 0)
(3 3.5257e-09 0)
(3 1.11879e-08 0)
(3 2.50045e-08 0)
(3 7.611e-08 0)
(3 1.69295e-07 0)
(3 5.04611e-07 0)
(3 1.11775e-06 0)
(3 3.29017e-06 0)
(2.99999 7.26584e-06 0)
(2.99999 2.11807e-05 0)
(2.99996 4.66346e-05 0)
(2.99991 0.000135095 0)
(2.99974 0.000296376 0)
(2.99943 0.000860068 0)
(2.99835 0.00189382 0)
(2.9964 0.00551997 0)
(3 4.75496e-14 0)
(3 1.57299e-13 0)
(3 8.67602e-13 0)
(3 2.07571e-12 0)
(3 8.78128e-12 0)
(3 2.15016e-11 0)
(3 7.43126e-11 0)
(3 1.79291e-10 0)
(3 5.67725e-10 0)
(3 1.34643e-09 0)
(3 4.05864e-09 0)
(3 9.48597e-09 0)
(3 2.79109e-08 0)
(3 6.44697e-08 0)
(3 1.8709e-07 0)
(3 4.29505e-07 0)
(3 1.23106e-06 0)
(3 2.81667e-06 0)
(2.99999 7.97458e-06 0)
(2.99999 1.81804e-05 0)
(2.99997 5.09644e-05 0)
(2.99992 0.000115519 0)
(2.99978 0.000323606 0)
(2.99951 0.000725607 0)
(2.99855 0.00207522 0)
(3 2.71809e-14 0)
(3 5.74237e-14 0)
(3 1.28605e-13 0)
(3 4.92263e-13 0)
(3 9.56178e-13 0)
(3 4.76642e-12 0)
(3 9.26842e-12 0)
(3 4.43187e-11 0)
(3 8.9617e-11 0)
(3 3.85832e-10 0)
(3 8.29407e-10 0)
(3 2.9999e-09 0)
(3 6.75035e-09 0)
(3 2.18362e-08 0)
(3 4.93458e-08 0)
(3 1.52209e-07 0)
(3 3.41766e-07 0)
(3 1.02855e-06 0)
(3 2.29701e-06 0)
(3 6.79367e-06 0)
(2.99999 1.50985e-05 0)
(2.99997 4.41398e-05 0)
(2.99994 9.72712e-05 0)
(2.99981 0.000285492 0)
(2.99959 0.000613292 0)
(3 -3.86815e-14 0)
(3 -4.29548e-14 0)
(3 -2.36451e-14 0)
(3 3.19658e-14 0)
(3 3.7357e-13 0)
(3 8.37261e-13 0)
(3 4.181e-12 0)
(3 8.73856e-12 0)
(3 3.77104e-11 0)
(3 7.92106e-11 0)
(3 3.19505e-10 0)
(3 7.02873e-10 0)
(3 2.46632e-09 0)
(3 5.68238e-09 0)
(3 1.79421e-08 0)
(3 4.16533e-08 0)
(3 1.25536e-07 0)
(3 2.89787e-07 0)
(3 8.53335e-07 0)
(3 1.95867e-06 0)
(3 5.6752e-06 0)
(2.99999 1.29629e-05 0)
(2.99998 3.71181e-05 0)
(2.99994 8.42011e-05 0)
(2.99987 0.000240954 0)
(3 -2.48218e-14 0)
(3 -3.2088e-14 0)
(3 -1.13226e-14 0)
(3 8.82104e-15 0)
(3 1.1451e-13 0)
(3 2.89016e-13 0)
(3 1.29082e-12 0)
(3 2.99101e-12 0)
(3 1.12552e-11 0)
(3 2.59619e-11 0)
(3 9.20752e-11 0)
(3 2.11439e-10 0)
(3 7.13466e-10 0)
(3 1.62762e-09 0)
(3 5.26193e-09 0)
(3 1.19507e-08 0)
(3 3.73611e-08 0)
(3 8.4569e-08 0)
(3 2.58029e-07 0)
(3 5.81941e-07 0)
(3 1.74273e-06 0)
(3 3.91603e-06 0)
(2.99999 1.15542e-05 0)
(2.99998 2.58542e-05 0)
(2.99996 7.5544e-05 0)
(3 3.08876e-14 0)
(3 5.92624e-14 0)
(3 7.27132e-14 0)
(3 9.54166e-14 0)
(3 1.05302e-13 0)
(3 1.49429e-13 0)
(3 3.61083e-13 0)
(3 7.99519e-13 0)
(3 2.90446e-12 0)
(3 6.69759e-12 0)
(3 2.3688e-11 0)
(3 5.46886e-11 0)
(3 1.85304e-10 0)
(3 4.25649e-10 0)
(3 1.39081e-09 0)
(3 3.17992e-09 0)
(3 1.0067e-08 0)
(3 2.29011e-08 0)
(3 7.06676e-08 0)
(3 1.60028e-07 0)
(3 4.84002e-07 0)
(3 1.09183e-06 0)
(3 3.24996e-06 0)
(3 7.30546e-06 0)
(2.99999 2.14827e-05 0)
(3 3.7419e-15 0)
(3 2.06214e-14 0)
(3 2.01663e-14 0)
(3 2.45201e-14 0)
(3 1.7614e-14 0)
(3 1.25188e-14 0)
(3 4.181e-14 0)
(3 1.6181e-13 0)
(3 3.84319e-13 0)
(3 1.68211e-12 0)
(3 3.4394e-12 0)
(3 1.44087e-11 0)
(3 2.93486e-11 0)
(3 1.16854e-10 0)
(3 2.48426e-10 0)
(3 8.87737e-10 0)
(3 1.97522e-09 0)
(3 6.46148e-09 0)
(3 1.45893e-08 0)
(3 4.56586e-08 0)
(3 1.03095e-07 0)
(3 3.14739e-07 0)
(3 7.08653e-07 0)
(3 2.12734e-06 0)
(3 4.7756e-06 0)
(3 -1.13418e-16 0)
(3 -9.9016e-15 0)
(3 -9.15807e-15 0)
(3 -1.61299e-14 0)
(3 6.41449e-15 0)
(3 4.83806e-14 0)
(3 7.5442e-14 0)
(3 1.34455e-13 0)
(3 2.10609e-13 0)
(3 5.66775e-13 0)
(3 1.20212e-12 0)
(3 3.87252e-12 0)
(3 8.95675e-12 0)
(3 2.93416e-11 0)
(3 6.8495e-11 0)
(3 2.18597e-10 0)
(3 5.08547e-10 0)
(3 1.5846e-09 0)
(3 3.66326e-09 0)
(3 1.11933e-08 0)
(3 2.57308e-08 0)
(3 7.73119e-08 0)
(3 1.76947e-07 0)
(3 5.24137e-07 0)
(3 1.19552e-06 0)
(3 2.69101e-14 0)
(3 2.64848e-14 0)
(3 2.31339e-14 0)
(3 1.75054e-14 0)
(3 2.22999e-14 0)
(3 2.18534e-14 0)
(3 2.56921e-14 0)
(3 4.60766e-14 0)
(3 6.75261e-14 0)
(3 1.00586e-13 0)
(3 2.34175e-13 0)
(3 4.64769e-13 0)
(3 1.83227e-12 0)
(3 3.76615e-12 0)
(3 1.48987e-11 0)
(3 3.0531e-11 0)
(3 1.17127e-10 0)
(3 2.47104e-10 0)
(3 8.68158e-10 0)
(3 1.9079e-09 0)
(3 6.19114e-09 0)
(3 1.38563e-08 0)
(3 4.30201e-08 0)
(3 9.66223e-08 0)
(3 2.92684e-07 0)
(3 -7.71127e-16 0)
(3 6.01529e-15 0)
(3 1.45072e-14 0)
(3 1.81914e-14 0)
(3 1.61105e-14 0)
(3 1.14139e-14 0)
(3 2.38772e-14 0)
(3 4.35642e-14 0)
(3 8.81925e-14 0)
(3 1.37206e-13 0)
(3 1.86287e-13 0)
(3 3.08567e-13 0)
(3 4.79364e-13 0)
(3 1.38593e-12 0)
(3 2.70875e-12 0)
(3 9.76097e-12 0)
(3 2.04799e-11 0)
(3 7.19845e-11 0)
(3 1.56856e-10 0)
(3 5.14915e-10 0)
(3 1.14657e-09 0)
(3 3.58813e-09 0)
(3 8.0523e-09 0)
(3 2.44673e-08 0)
(3 5.49457e-08 0)
(3 -1.73553e-14 0)
(3 -2.53561e-14 0)
(3 -2.4988e-14 0)
(3 -2.61516e-14 0)
(3 -3.10766e-14 0)
(3 -2.30731e-14 0)
(3 -2.1073e-14 0)
(3 -2.18785e-14 0)
(3 -1.19796e-14 0)
(3 1.01017e-14 0)
(3 3.27004e-14 0)
(3 6.69566e-14 0)
(3 1.38178e-13 0)
(3 2.90721e-13 0)
(3 6.39755e-13 0)
(3 1.92251e-12 0)
(3 4.34612e-12 0)
(3 1.37573e-11 0)
(3 3.16036e-11 0)
(3 9.87611e-11 0)
(3 2.26994e-10 0)
(3 6.94585e-10 0)
(3 1.58917e-09 0)
(3 4.76634e-09 0)
(3 1.085e-08 0)
(3 6.79926e-15 0)
(3 2.10124e-14 0)
(3 3.50678e-14 0)
(3 5.51584e-14 0)
(3 5.66474e-14 0)
(3 6.47557e-14 0)
(3 5.12179e-14 0)
(3 2.60758e-14 0)
(3 -3.14746e-15 0)
(3 -3.0887e-14 0)
(3 -4.17768e-14 0)
(3 -4.02324e-14 0)
(3 -3.96689e-15 0)
(3 7.16806e-14 0)
(3 1.99478e-13 0)
(3 4.08272e-13 0)
(3 1.13799e-12 0)
(3 2.20439e-12 0)
(3 7.34956e-12 0)
(3 1.53357e-11 0)
(3 5.07029e-11 0)
(3 1.09681e-10 0)
(3 3.49361e-10 0)
(3 7.63935e-10 0)
(3 2.35325e-09 0)
(3 2.76522e-14 0)
(3 5.76141e-14 0)
(3 9.11735e-14 0)
(3 1.27579e-13 0)
(3 1.68472e-13 0)
(3 1.9668e-13 0)
(3 2.10785e-13 0)
(3 2.31081e-13 0)
(3 2.33551e-13 0)
(3 2.45836e-13 0)
(3 2.44929e-13 0)
(3 2.39958e-13 0)
(3 2.37606e-13 0)
(3 2.22341e-13 0)
(3 2.36207e-13 0)
(3 2.50419e-13 0)
(3 3.39323e-13 0)
(3 6.39971e-13 0)
(3 1.19545e-12 0)
(3 3.64635e-12 0)
(3 7.70905e-12 0)
(3 2.46223e-11 0)
(3 5.35844e-11 0)
(3 1.65998e-10 0)
(3 3.6453e-10 0)
(3 -1.26721e-14 0)
(3 -1.04636e-14 0)
(3 4.29017e-16 0)
(3 7.69377e-16 0)
(3 1.38038e-14 0)
(3 1.23072e-14 0)
(3 2.48208e-14 0)
(3 4.00092e-14 0)
(3 4.90996e-14 0)
(3 6.36349e-14 0)
(3 8.13125e-14 0)
(3 1.05647e-13 0)
(3 1.13482e-13 0)
(3 1.11682e-13 0)
(3 1.18983e-13 0)
(3 1.4228e-13 0)
(3 1.39818e-13 0)
(3 1.79891e-13 0)
(3 3.24184e-13 0)
(3 7.56567e-13 0)
(3 1.59411e-12 0)
(3 4.46679e-12 0)
(3 9.89231e-12 0)
(3 2.89658e-11 0)
(3 6.51594e-11 0)
(3 -1.67156e-14 0)
(3 -8.99447e-15 0)
(3 -1.17452e-14 0)
(3 -1.83535e-14 0)
(3 -4.03939e-14 0)
(3 -5.70193e-14 0)
(3 -5.49043e-14 0)
(3 -4.62696e-14 0)
(3 -2.19424e-14 0)
(3 -1.04396e-14 0)
(3 3.38988e-15 0)
(3 8.1221e-15 0)
(3 2.09183e-14 0)
(3 4.344e-14 0)
(3 4.93429e-14 0)
(3 6.76227e-14 0)
(3 8.68271e-14 0)
(3 1.31059e-13 0)
(3 1.82899e-13 0)
(3 2.3295e-13 0)
(3 4.2029e-13 0)
(3 7.1482e-13 0)
(3 2.03356e-12 0)
(3 4.2598e-12 0)
(3 1.25864e-11 0)
(3 2.73656e-14 0)
(3 4.52971e-14 0)
(3 5.3277e-14 0)
(3 6.91403e-14 0)
(3 6.804e-14 0)
(3 5.57263e-14 0)
(3 6.8053e-14 0)
(3 8.30134e-14 0)
(3 1.06183e-13 0)
(3 1.19923e-13 0)
(3 1.35712e-13 0)
(3 1.38488e-13 0)
(3 1.4349e-13 0)
(3 1.37313e-13 0)
(3 1.08946e-13 0)
(3 8.42447e-14 0)
(3 9.7177e-14 0)
(3 1.17992e-13 0)
(3 1.24081e-13 0)
(3 1.3246e-13 0)
(3 1.36013e-13 0)
(3 1.85041e-13 0)
(3 3.34401e-13 0)
(3 8.48704e-13 0)
(3 1.84289e-12 0)
(3 1.35843e-14 0)
(3 8.71835e-15 0)
(3 6.45448e-15 0)
(3 4.01781e-15 0)
(3 2.07826e-15 0)
(3 5.18013e-15 0)
(3 1.78115e-14 0)
(3 2.32797e-14 0)
(3 3.5727e-14 0)
(3 3.81156e-14 0)
(3 6.61241e-14 0)
(3 9.13593e-14 0)
(3 1.04032e-13 0)
(3 1.17628e-13 0)
(3 1.41167e-13 0)
(3 1.67367e-13 0)
(3 1.7662e-13 0)
(3 1.68628e-13 0)
(3 1.46228e-13 0)
(3 1.40262e-13 0)
(3 1.23212e-13 0)
(3 1.09246e-13 0)
(3 1.07943e-13 0)
(3 1.55296e-13 0)
(3 3.35677e-13 0)
(3 -3.45092e-15 0)
(3 1.02251e-14 0)
(3 3.7329e-14 0)
(3 6.52716e-14 0)
(3 1.07151e-13 0)
(3 1.66281e-13 0)
(3 2.09209e-13 0)
(3 2.29803e-13 0)
(3 2.27745e-13 0)
(3 2.0961e-13 0)
(3 1.72329e-13 0)
(3 1.58377e-13 0)
(3 1.40827e-13 0)
(3 1.4521e-13 0)
(3 1.65745e-13 0)
(3 1.72247e-13 0)
(3 1.66099e-13 0)
(3 1.57302e-13 0)
(3 1.47904e-13 0)
(3 1.3801e-13 0)
(3 1.37659e-13 0)
(3 1.495e-13 0)
(3 1.63783e-13 0)
(3 1.72495e-13 0)
(3 1.85872e-13 0)
(3 -8.53366e-16 0)
(3 2.52798e-14 0)
(3 6.17579e-14 0)
(3 1.03638e-13 0)
(3 1.52162e-13 0)
(3 2.05734e-13 0)
(3 2.43455e-13 0)
(3 2.6158e-13 0)
(3 2.53938e-13 0)
(3 2.31793e-13 0)
(3 1.97659e-13 0)
(3 1.85135e-13 0)
(3 1.65696e-13 0)
(3 1.57099e-13 0)
(3 1.40616e-13 0)
(3 1.11624e-13 0)
(3 9.45913e-14 0)
(3 8.24387e-14 0)
(3 8.54584e-14 0)
(3 8.37111e-14 0)
(3 8.90502e-14 0)
(3 9.76073e-14 0)
(3 1.08657e-13 0)
(3 1.1064e-13 0)
(3 1.02278e-13 0)
(1.39593 1.1913 0)
(1.88421 0.981957 0)
(2.13837 0.705559 0)
(2.21566 0.41158 0)
(2.19236 0.172093 0)
(2.13449 0.00419078 0)
(2.06668 -0.0607446 0)
(2.03059 -0.0484 0)
(2.03335 -0.0169009 0)
(2.04915 0.0120501 0)
(2.07105 0.0318575 0)
(2.10199 0.0385175 0)
(2.13156 0.0305494 0)
(2.15397 0.0161985 0)
(2.1737 0.00484159 0)
(2.19326 -0.000397336 0)
(2.21395 -0.000988124 0)
(2.23621 0.000779173 0)
(2.25985 0.00303467 0)
(2.28429 0.00469623 0)
(2.30886 0.00535335 0)
(2.33293 0.0050684 0)
(2.35601 0.00417071 0)
(2.37783 0.00305807 0)
(2.39828 0.00205829 0)
(2.41738 0.00136295 0)
(2.43522 0.00102868 0)
(2.45189 0.00102102 0)
(2.46746 0.00127689 0)
(2.48208 0.00169336 0)
(2.49579 0.00213296 0)
(2.50835 0.00258753 0)
(2.51995 0.003041 0)
(2.53098 0.00321543 0)
(2.54097 0.00311811 0)
(2.54941 0.00302442 0)
(2.5567 0.00288107 0)
(2.56364 0.00250104 0)
(2.57055 0.001955 0)
(2.57715 0.00123998 0)
(2.58304 0.000372417 0)
(2.58822 -0.000554242 0)
(2.59304 -0.00143636 0)
(2.59909 -0.00237539 0)
(2.60743 -0.00396332 0)
(2.61705 -0.0053355 0)
(2.62756 -0.00635799 0)
(2.63919 -0.00724442 0)
(2.65198 -0.00798591 0)
(2.66583 -0.00856291 0)
(2.68059 -0.00897007 0)
(2.69605 -0.0092163 0)
(2.71199 -0.00932129 0)
(2.72821 -0.00931312 0)
(2.74448 -0.00921444 0)
(2.76064 -0.009044 0)
(2.77654 -0.00882182 0)
(2.79207 -0.00856012 0)
(2.80719 -0.00826255 0)
(2.82188 -0.00792853 0)
(2.83621 -0.00755895 0)
(2.85025 -0.00715691 0)
(2.86407 -0.00672527 0)
(2.87774 -0.00626878 0)
(2.8913 -0.00579578 0)
(2.90474 -0.00531548 0)
(2.91801 -0.00483553 0)
(2.93099 -0.00436221 0)
(2.94351 -0.00390179 0)
(2.95537 -0.00345882 0)
(2.96636 -0.00303474 0)
(2.97627 -0.00263127 0)
(2.98492 -0.00225367 0)
(2.99221 -0.00190738 0)
(2.99814 -0.00159346 0)
(3.00284 -0.00130779 0)
(3.00651 -0.00105217 0)
(3.00936 -0.000834669 0)
(3.01149 -0.000657429 0)
(3.01287 -0.000513971 0)
(3.01334 -0.000377685 0)
(3.0129 -0.000218317 0)
(3.01174 -0.000131444 0)
(3.01013 -9.44629e-05 0)
(3.00836 -7.48532e-05 0)
(3.00666 -5.84446e-05 0)
(3.00514 -3.98672e-05 0)
(3.00386 -2.19198e-05 0)
(3.00282 -1.62383e-05 0)
(3.002 -1.95669e-05 0)
(3.00139 -1.81995e-05 0)
(3.00094 -1.4687e-05 0)
(3.00063 -1.12558e-05 0)
(3.00041 -8.42792e-06 0)
(3.00026 -6.24578e-06 0)
(3.00016 -4.60709e-06 0)
(3.0001 -3.37449e-06 0)
(3.00006 -2.477e-06 0)
(3.00003 -1.72969e-06 0)
(3.00002 -1.01357e-06 0)
(1.48475 1.09839 0)
(1.85138 0.810926 0)
(2.07244 0.486967 0)
(2.19294 0.191466 0)
(2.26468 -0.0222135 0)
(2.31679 -0.148926 0)
(2.35252 -0.185767 0)
(2.36873 -0.157497 0)
(2.37455 -0.111743 0)
(2.37704 -0.0698561 0)
(2.37958 -0.0359983 0)
(2.38324 -0.0171744 0)
(2.39013 -0.0126236 0)
(2.40294 -0.0155253 0)
(2.42049 -0.0213412 0)
(2.4391 -0.0273445 0)
(2.45668 -0.0299625 0)
(2.47328 -0.0294229 0)
(2.48937 -0.0271895 0)
(2.50532 -0.0246044 0)
(2.52124 -0.0224904 0)
(2.53704 -0.0211361 0)
(2.55252 -0.02048 0)
(2.56745 -0.0202907 0)
(2.58165 -0.0202944 0)
(2.59498 -0.0202721 0)
(2.60744 -0.0200902 0)
(2.61908 -0.0196966 0)
(2.62995 -0.0190763 0)
(2.64018 -0.0182628 0)
(2.64991 -0.017382 0)
(2.65905 -0.0164503 0)
(2.66759 -0.0154044 0)
(2.67585 -0.0145088 0)
(2.68381 -0.0139114 0)
(2.69099 -0.0133418 0)
(2.69726 -0.0127282 0)
(2.70324 -0.0121744 0)
(2.70928 -0.0117423 0)
(2.71502 -0.0114877 0)
(2.72012 -0.0114729 0)
(2.72447 -0.0116914 0)
(2.72805 -0.0121545 0)
(2.7315 -0.0127455 0)
(2.73636 -0.0135334 0)
(2.7425 -0.0147085 0)
(2.7489 -0.016052 0)
(2.75575 -0.0174232 0)
(2.76335 -0.018716 0)
(2.77178 -0.0198609 0)
(2.781 -0.0208191 0)
(2.79091 -0.0215738 0)
(2.80139 -0.0221242 0)
(2.81228 -0.0224802 0)
(2.82342 -0.0226523 0)
(2.83463 -0.0226506 0)
(2.84578 -0.0224855 0)
(2.85674 -0.0221628 0)
(2.86746 -0.0216844 0)
(2.87793 -0.0210523 0)
(2.88818 -0.0202745 0)
(2.89828 -0.019367 0)
(2.90833 -0.0183512 0)
(2.91837 -0.0172483 0)
(2.92845 -0.0160797 0)
(2.93856 -0.014866 0)
(2.94865 -0.0136234 0)
(2.95859 -0.0123669 0)
(2.96825 -0.0111131 0)
(2.97742 -0.00987889 0)
(2.98589 -0.00867875 0)