/*--------------------------------*- C++ -*----------------------------------*\
| =========                 |                                                 |
| \\      /  F ield         | OpenFOAM: The Open Source CFD Toolbox           |
|  \\    /   O peration     | Version:  2412                                  |
|   \\  /    A nd           | Website:  www.openfoam.com                      |
|    \\/     M anipulation  |                                                 |
\*---------------------------------------------------------------------------*/
FoamFile
{
    version     2.0;
    format      ascii;
    arch        "LSB;label=32;scalar=64";
    class       surfaceScalarField;
    location    "10";
    object      phi;
}
// * * * * * * * * * * * * * * * * * * * * * * * * * * * * * * * * * * * * * //

dimensions      [1 0 -1 0 0 0 0];

oriented        oriented;

internalField   nonuniform List<scalar> 
85
(
1.58359e+08
2.24313e+06
1.28602e+08
4.0801e+06
1.09293e+08
5.03999e+06
9.31486e+07
6.51021e+06
8.34738e+06
7.74803e+07
1.56175e+08
2.90375e+06
1.30349e+08
5.09117e+06
1.15094e+08
5.98661e+06
1.04832e+08
7.44451e+06
9.16376e+06
9.70455e+07
1.5388e+08
2.54959e+06
1.30111e+08
4.34186e+06
1.16481e+08
5.01317e+06
1.08813e+08
6.08975e+06
7.40681e+06
1.04183e+08
1.52411e+08
1.26608e+06
1.29562e+08
2.13597e+06
1.17016e+08
2.5999e+06
1.11523e+08
3.15432e+06
3.89665e+06
1.09503e+08
1.50881e+08
1.27372e+08
1.14988e+08
1.10714e+08
1.1022e+08
7.27154e+07
-5.48297e+06
6.6338e+07
-2.38393e+06
5.97547e+07
-288071
5.5637e+07
-216499
-2.84763e+06
8.75778e+07
-5.84144e+06
7.98067e+07
-2.72974e+06
7.4733e+07
-1.15409e+06
7.23137e+07
-1.45448e+06
-2.88585e+06
9.47132e+07
-5.07308e+06
8.8485e+07
-3.49955e+06
8.37359e+07
-1.35075e+06
7.94091e+07
-346175
-1.79391e+06
1.00127e+08
-3.11555e+06
9.24431e+07
-2.22204e+06
8.69685e+07
-909726
8.32876e+07
-464249
-1.00305e+06
1.01284e+08
9.34933e+07
8.78755e+07
8.36675e+07
)
;

boundaryField
{
    inlet
    {
        type            calculated;
        value           nonuniform List<scalar> 5(-1.89163e+08 -1.89192e+08 -1.89228e+08 -1.89275e+08 -1.89282e+08);
    }
    sym
    {
        type            calculated;
        value           uniform 0;
    }
    wedge
    {
        type            calculated;
        value           nonuniform List<scalar> 5(7.58945e-09 -2.37831e-28 0 0 -3.41376e-28);
    }
    top
    {
        type            calculated;
        value           uniform 0;
    }
    back
    {
        type            empty;
    }
    front
    {
        type            empty;
    }
    outlet
    {
        type            calculated;
        value           nonuniform List<scalar> 5(5.60618e+07 7.01191e+07 7.58926e+07 7.94795e+07 7.94288e+07);
    }
}


// ************************************************************************* //
