/*--------------------------------*- C++ -*----------------------------------*\
| =========                 |                                                 |
| \\      /  F ield         | OpenFOAM: The Open Source CFD Toolbox           |
|  \\    /   O peration     | Version:  2412                                  |
|   \\  /    A nd           | Website:  www.openfoam.com                      |
|    \\/     M anipulation  |                                                 |
\*---------------------------------------------------------------------------*/
FoamFile
{
    version     2.0;
    format      ascii;
    arch        "LSB;label=32;scalar=64";
    class       volScalarField;
    location    "10";
    object      T;
}
// * * * * * * * * * * * * * * * * * * * * * * * * * * * * * * * * * * * * * //

dimensions      [0 0 0 1 0 0 0];

internalField   nonuniform List<scalar> 
50
(
535.296
553.456
567.89
575.429
581.452
535.262
554.201
569.351
577.009
582.094
535.054
555.805
572.163
580.049
584.513
534.51
557.825
575.625
583.714
587.618
534.843
560.07
578.864
586.722
589.879
581.031
583.369
588.76
597.307
596.066
585.04
591.105
597.493
603.227
601.518
588.247
593.746
597.527
600.647
598.484
591.459
597.155
601.434
604.68
603.023
592.73
598.246
602.345
605.314
604.142
)
;

boundaryField
{
    inlet
    {
        type            fixedValue;
        value           uniform 300;
    }
    sym
    {
        type            slip;
    }
    wedge
    {
        type            slip;
    }
    top
    {
        type            slip;
    }
    back
    {
        type            empty;
    }
    front
    {
        type            empty;
    }
    outlet
    {
        type            inletOutlet;
        inletValue      uniform 300;
        value           nonuniform List<scalar> 5(595.994 601.451 598.401 602.934 604.05);
    }
}


// ************************************************************************* //
