/*--------------------------------*- C++ -*----------------------------------*\
| =========                 |                                                 |
| \\      /  F ield         | OpenFOAM: The Open Source CFD Toolbox           |
|  \\    /   O peration     | Version:  2412                                  |
|   \\  /    A nd           | Website:  www.openfoam.com                      |
|    \\/     M anipulation  |                                                 |
\*---------------------------------------------------------------------------*/
FoamFile
{
    version     2.0;
    format      ascii;
    arch        "LSB;label=32;scalar=64";
    class       volVectorField;
    location    "10";
    object      U;
}
// * * * * * * * * * * * * * * * * * * * * * * * * * * * * * * * * * * * * * //

dimensions      [0 1 -1 0 0 0 0];

internalField   nonuniform List<vector> 
50
(
(160.115 3.79745 0)
(177.269 7.16485 0)
(150.438 9.51602 0)
(118.529 12.7165 0)
(93.8544 17.2934 0)
(173.689 7.56391 0)
(184.503 13.7122 0)
(155.745 17.2428 0)
(128.091 21.1877 0)
(111.117 25.8823 0)
(186.614 7.7768 0)
(189.629 13.6785 0)
(156.916 16.8398 0)
(130.466 20.0086 0)
(117.028 23.7448 0)
(199.785 5.73077 0)
(194.265 9.92812 0)
(157.12 11.7986 0)
(131.376 13.6341 0)
(121.001 16.127 0)
(204.82 1.77599 0)
(194.234 3.06797 0)
(153.603 3.45294 0)
(128.033 3.89425 0)
(120.156 4.76692 0)
(69.3255 39.6331 0)
(89.5196 55.8444 3.64941e-17)
(97.0554 63.9031 0)
(97.7384 67.9516 5.23576e-17)
(120.588 80.428 -6.41292e-17)
(99.8878 45.13 3.21511e-17)
(111.182 56.0487 3.70568e-17)
(116.054 59.9456 4.34003e-17)
(126.245 62.4557 3.61004e-19)
(150.644 72.3946 -6.43795e-17)
(109.281 32.7498 -3.21717e-17)
(120.325 38.1499 -3.69756e-17)
(128.395 43.4534 -4.33796e-17)
(140.009 49.4518 -5.21798e-17)
(163.39 56.8009 6.44854e-17)
(116.193 20.9903 0)
(126.573 25.6352 0)
(134.227 30.2621 0)
(146.936 33.6581 0)
(171.236 37.4604 0)
(116.783 5.45181 0)
(127.631 6.0421 0)
(135.948 6.91965 0)
(148.703 8.05974 0)
(172.094 9.8774 0)
)
;

boundaryField
{
    inlet
    {
        type            fixedValue;
        value           uniform (664 0 0);
    }
    sym
    {
        type            slip;
    }
    wedge
    {
        type            slip;
    }
    top
    {
        type            slip;
    }
    back
    {
        type            empty;
    }
    front
    {
        type            empty;
    }
    outlet
    {
        type            inletOutlet;
        inletValue      uniform (664 0 0);
        value           nonuniform List<vector> 5((120.588 80.428 -6.41292e-17) (150.644 72.3946 -6.43795e-17) (163.39 56.8009 6.44854e-17) (171.236 37.4604 0) (172.094 9.8774 0));
    }
}


// ************************************************************************* //
