/*--------------------------------*- C++ -*----------------------------------*\
| =========                 |                                                 |
| \\      /  F ield         | OpenFOAM: The Open Source CFD Toolbox           |
|  \\    /   O peration     | Version:  2412                                  |
|   \\  /    A nd           | Website:  www.openfoam.com                      |
|    \\/     M anipulation  |                                                 |
\*---------------------------------------------------------------------------*/
FoamFile
{
    version     2.0;
    format      ascii;
    arch        "LSB;label=32;scalar=64";
    class       volScalarField;
    location    "0.002";
    object      ddt0(rho,K);
}
// * * * * * * * * * * * * * * * * * * * * * * * * * * * * * * * * * * * * * //

dimensions      [1 -1 -3 0 0 0 0];

internalField   nonuniform List<scalar> 
180000
(
7.5561e-06
4.93483e-05
-5.77772e-06
1.44489e-05
1.8876e-05
2.70231e-05
-1.32206e-05
-6.37489e-05
-1.33595e-05
-3.25806e-06
-5.33507e-05
-6.06228e-06
-8.90405e-06
-3.67079e-05
-1.15288e-05
-3.58262e-05
-4.62259e-05
-3.43398e-05
-4.19769e-05
-4.87256e-05
-2.45886e-05
1.51714e-05
4.19875e-05
4.90742e-05
4.83945e-05
1.91502e-05
3.61629e-05
4.35384e-05
-6.63072e-06
-1.84759e-05
-1.55641e-05
3.6285e-05
4.53859e-05
4.61503e-05
-5.73762e-06
-5.12013e-05
-1.20947e-05
-2.20633e-05
-1.89165e-06
2.50798e-05
-7.1115e-06
-1.54917e-05
-3.05508e-05
-4.38928e-05
-9.45433e-05
-7.33274e-05
-5.61892e-05
-4.45843e-05
-1.18246e-08
1.74701e-05
3.52005e-05
5.21969e-05
4.25868e-05
4.01993e-05
0.000104655
8.24251e-05
5.52956e-05
-6.8892e-06
6.45316e-05
9.55141e-06
2.72809e-05
2.0461e-05
8.10948e-05
7.14782e-05
2.98099e-05
3.32721e-05
2.36805e-05
-5.1843e-06
-2.67809e-05
1.72723e-05
-3.10559e-05
-3.19343e-05
-9.61277e-06
-3.46193e-05
-3.74108e-05
-1.5985e-05
4.93401e-06
1.49399e-05
7.96251e-05
2.91463e-05
-1.56662e-05
-2.75067e-05
-5.16908e-06
-1.90766e-05
1.92511e-05
-1.39895e-05
-4.006e-06
-5.713e-05
4.32163e-06
-9.4573e-08
-2.67962e-05
2.81466e-06
-3.10853e-05
-8.7824e-05
-9.78965e-05
-7.13674e-05
-6.74916e-05
-8.04639e-05
-2.47269e-05
-2.09928e-05
-9.12293e-06
8.32305e-06
2.47688e-05
-1.40659e-05
-3.04598e-05
-1.38871e-05
4.08555e-05
2.56579e-05
-6.27261e-07
5.76846e-05
4.93947e-05
4.64776e-05
2.56864e-05
5.38547e-05
5.46118e-05
-1.15297e-06
2.50676e-05
1.53868e-05
1.92297e-05
7.78797e-06
7.21699e-06
-5.28478e-06
-4.62646e-06
-2.19541e-05
2.51547e-06
2.36924e-05
-1.23442e-05
-5.88327e-05
-9.61287e-05
-0.000108569
-8.6417e-05
-8.84558e-05
-3.0013e-05
-5.91112e-05
-8.10046e-05
-5.03834e-05
-6.34419e-05
-8.15105e-05
-9.7178e-05
-9.61877e-05
-4.45877e-05
-8.2094e-06
-8.61937e-06
-7.43171e-05
-5.78543e-05
5.94763e-06
-5.5184e-05
-6.44387e-06
8.77229e-05
3.41351e-05
3.16752e-05
1.1944e-05
3.4391e-05
5.29007e-06
-1.06546e-05
-2.14325e-05
4.24937e-05
5.4281e-05
5.16774e-05
5.37766e-05
3.32988e-05
3.39565e-05
5.79252e-05
3.36006e-05
7.52752e-05
5.57017e-05
7.85009e-05
4.06982e-05
2.33288e-05
2.13631e-05
4.60362e-05
8.55601e-05
0.000118688
0.000119018
7.24529e-05
6.34113e-05
4.2803e-05
4.01616e-05
3.94821e-05
-3.77236e-06
3.00246e-06
5.36307e-05
3.11601e-05
3.5851e-06
5.30322e-05
3.41592e-05
1.44443e-05
7.10195e-05
5.15111e-05
-7.99853e-07
2.00161e-05
1.31171e-05
2.79342e-05
9.07642e-06
-4.23375e-05
-5.52586e-05
-5.02379e-05
-8.34609e-05
-6.33098e-05
-1.68399e-05
-5.29562e-05
-7.9382e-05
-3.17962e-05
-4.3186e-05
-6.19624e-05
-9.68311e-06
-4.02445e-05
-8.44254e-05
-0.000111339
-0.00011007
-8.66268e-05
-8.36166e-05
-8.8797e-05
-0.000116907
-1.50244e-05
-2.96801e-05
-1.38964e-05
-5.0674e-05
-3.65702e-05
-1.32759e-05
1.13378e-06
1.66203e-05
-4.2551e-05
-1.28863e-05
-6.77765e-05
-3.07507e-05
-3.04291e-05
-9.00366e-05
-7.78343e-05
-5.20815e-05
5.38779e-06
-3.97422e-05
-6.09519e-05
-5.117e-05
-2.58305e-05
-6.16341e-05
-1.20019e-05
-6.36132e-05
3.64072e-06
-1.19759e-05
1.50422e-05
-2.62756e-05
1.0701e-05
-3.21736e-05
-5.80929e-05
-1.14848e-05
3.28244e-05
1.64754e-05
5.80066e-05
6.60087e-05
3.59878e-05
4.40446e-05
2.69063e-06
3.00539e-05
3.58234e-05
-5.42209e-05
-3.59877e-05
-1.19667e-05
1.99607e-05
3.37879e-05
1.71507e-05
3.40131e-05
4.95251e-05
0.00012553
0.000127179
0.000226026
0.000431757
0.000691593
0.00100629
0.00160918
0.00258224
0.00411267
0.00653521
0.0105615
0.016832
0.0270381
0.0433528
0.0694713
0.111339
0.178706
0.286169
0.459164
0.735563
1.1801
1.88929
3.02848
4.83962
7.73356
12.288
19.4562
30.3859
46.7848
69.1304
96.7768
113.671
86.5182
-134.857
-753.083
-2625.2
-5628.14
-3.41194e-05
-4.50732e-05
-6.49915e-05
-1.22579e-05
-3.15064e-05
-2.43288e-06
-8.76378e-05
-5.01562e-05
-1.1984e-05
4.25165e-06
-5.94781e-05
-1.28634e-05
-5.14868e-05
-2.51679e-05
-3.65228e-05
2.52776e-05
-8.28174e-06
-4.08058e-06
5.72862e-05
2.35909e-05
-1.01922e-05
1.64484e-05
-5.72809e-05
1.46432e-05
-2.45057e-05
-4.46273e-05
-2.85036e-05
-3.09862e-05
-1.07609e-05
-6.63738e-06
-5.86129e-06
-1.22772e-05
5.73045e-05
3.14767e-05
1.40088e-05
-1.34023e-05
-2.76885e-05
-6.88965e-06
3.75655e-05
3.30602e-06
1.44792e-05
1.55117e-05
-1.32185e-06
-2.74924e-05
-8.87996e-06
-9.32122e-06
8.64035e-06
-2.60547e-05
2.11137e-06
1.98603e-05
-2.46246e-05
1.23952e-05
-7.56503e-07
-5.09925e-05
-3.59538e-05
-1.62281e-05
1.69613e-05
-1.48934e-05
3.21479e-06
-2.24087e-05
-4.13201e-05
-1.99737e-05
-1.84087e-05
-1.40653e-05
5.65788e-07
4.56389e-05
-3.43773e-06
1.65827e-07
3.76313e-05
3.86013e-05
6.33859e-05
5.59678e-05
8.52021e-06
2.7419e-05
1.62977e-05
3.01621e-05
1.43661e-05
6.30369e-06
-9.33549e-06
-1.30724e-05
3.87457e-05
2.53784e-05
2.46886e-05
-1.70927e-05
-2.67387e-05
1.11069e-05
1.22611e-05
-5.6776e-06
8.73725e-06
4.42824e-05
8.41215e-06
-2.52246e-06
-1.27433e-05
-8.90705e-06
4.32072e-06
2.99702e-05
8.66676e-06
-1.56528e-06
-1.62571e-05
1.08917e-05
-1.21245e-05
-1.95546e-06
-2.29561e-05
-3.56413e-05
-3.43254e-05
-5.58575e-05
-5.12264e-05
5.96616e-06
-8.03783e-05
-4.18823e-05
-5.89877e-06
-4.18338e-06
-1.67384e-06
4.09377e-05
8.02797e-05
7.30361e-05
7.18746e-05
2.28271e-05
-1.42777e-06
2.43604e-05
2.81363e-05
2.43882e-05
4.03045e-05
7.90406e-05
-5.01199e-07
2.1283e-05
4.9663e-05
3.82827e-05
-2.23886e-06
4.57335e-05
5.9705e-05
2.61962e-05
7.12882e-05
2.0474e-05
-7.27027e-06
-1.35426e-06
8.92686e-06
-2.46257e-06
8.20117e-06
2.78261e-05
6.10043e-05
9.90365e-05
9.30212e-05
5.77048e-05
6.89937e-05
1.20251e-05
-8.68722e-06
-7.3983e-05
-4.92052e-05
-6.91093e-05
1.51183e-05
-1.14155e-05
2.13559e-05
-7.01733e-08
-1.28001e-05
-1.00309e-05
-8.22205e-05
-2.1284e-05
-1.3672e-05
2.41082e-05
-1.51115e-05
8.13511e-06
3.69982e-06
-2.41324e-05
-9.90998e-07
-5.80698e-05
5.06445e-06
-7.01949e-06
-2.80774e-06
-6.19746e-07
1.47522e-05
3.35477e-05
2.07035e-05
4.60004e-05
3.85717e-05
-3.29993e-05
-2.25154e-05
-2.4317e-05
4.96093e-05
-1.12737e-05
-4.68752e-05
-3.90977e-05
2.66042e-08
1.15927e-05
5.16377e-05
2.01347e-05
3.61578e-05
6.63112e-05
0.000101539
5.41441e-05
9.29984e-06
1.98915e-05
7.17907e-06
-2.29206e-05
-3.33566e-05
-6.68062e-05
-2.6935e-05
-3.65256e-05
3.55936e-07
-1.70859e-05
5.6427e-08
4.59776e-05
-3.49271e-06
2.65461e-05
3.00819e-05
5.48018e-05
4.96545e-05
-5.11448e-06
3.61022e-06
-4.28552e-05
-4.31844e-05
-1.45117e-05
1.0176e-05
3.48168e-05
2.19289e-05
-3.45326e-05
-2.33302e-05
-1.85067e-05
1.08838e-06
1.30742e-05
3.80699e-05
4.22653e-05
2.89026e-05
6.50095e-05
7.71899e-05
0.000101796
7.13866e-05
4.6094e-05
3.19485e-06
-3.80508e-06
-1.3215e-05
7.96752e-05
0.000104155
7.48463e-05
6.30298e-05
6.18487e-05
2.69036e-05
2.2024e-05
4.71311e-05
5.97589e-05
2.92574e-05
3.61906e-05
1.18772e-05
4.80713e-05
-4.77299e-06
3.41895e-05
2.38942e-05
1.18804e-05
-2.1864e-05
2.69257e-05
-1.00695e-05
1.26234e-05
-3.43743e-06
5.63171e-05
2.0167e-05
-2.41611e-05
-5.06548e-06
4.12023e-05
4.28501e-06
-1.19622e-05
-1.97666e-05
3.93426e-05
-1.04748e-06
7.23724e-05
0.000183153
0.000246016
0.00036691
0.000570381
0.000916576
0.0014944
0.0024606
0.00397074
0.00631249
0.0101045
0.0162332
0.0259837
0.0415948
0.0668278
0.106956
0.171427
0.274591
0.440488
0.705342
1.13145
1.81137
2.90379
4.6432
7.42781
11.8317
18.8109
29.635
46.2854
70.5703
104.58
143.548
174.128
124.618
-113.35
-979.599
-2492.66
3.09026e-05
1.90558e-05
-3.53479e-05
-1.81604e-05
1.75204e-05
-2.35116e-05
5.46698e-07
-7.91497e-06
-1.06856e-05
3.52986e-05
-1.13289e-05
-7.37928e-06
-2.45307e-05
-2.05086e-05
-6.48373e-06
1.02533e-05
1.52195e-05
2.97002e-05
2.80882e-05
2.20042e-05
2.1817e-05
-7.62659e-06
-1.17396e-05
1.51346e-05
-9.86945e-06
-1.63382e-05
1.77288e-05
8.67557e-08
3.35701e-05
1.35255e-06
2.51039e-05
3.06696e-05
-1.2593e-05
7.37593e-06
4.56198e-07
1.98943e-05
-4.47691e-05
-2.08567e-05
-1.19222e-06
-3.31915e-05
4.89533e-05
4.37049e-05
2.77478e-05
2.43343e-06
-6.10075e-05
-2.16486e-05
-1.66107e-06
1.45266e-05
1.22306e-05
1.54297e-05
2.01289e-05
-1.37213e-05
-7.1459e-06
1.77386e-06
-5.01504e-05
4.11236e-07
-2.03109e-06
7.56679e-05
4.14121e-05
-1.44541e-05
-2.16011e-05
-4.49666e-05
-1.68904e-05
2.66182e-05
2.58024e-05
-1.22727e-05
-4.64231e-05
1.28888e-05
1.583e-05
8.17879e-06
2.04885e-05
-1.43735e-05
-1.0505e-05
-1.07631e-05
1.9983e-05
3.42248e-05
2.73976e-05
-2.0841e-05
2.31808e-06
1.20975e-05
2.25056e-05
3.07301e-05
2.03204e-05
-3.34006e-05
2.71907e-05
3.16807e-05
7.00993e-06
2.60206e-06
-2.32554e-05
-2.58873e-05
1.59416e-05
3.68891e-05
4.23071e-05
7.89151e-05
4.38218e-05
1.07683e-05
-1.37019e-05
-6.77037e-05
-7.64917e-05
-1.22674e-05
-1.5559e-07
-1.57016e-05
-2.08341e-05
3.89903e-05
3.90411e-05
-1.25081e-05
1.46812e-05
4.79238e-05
8.13095e-05
1.11918e-05
3.81436e-06
-4.32891e-05
-3.39952e-05
-4.64975e-05
-5.76871e-05
-2.89643e-05
-1.72978e-05
-3.5436e-05
3.67741e-05
1.52915e-05
1.09659e-05
2.34586e-05
1.65637e-05
3.55703e-05
2.71047e-05
6.91164e-05
1.41661e-05
2.77778e-05
3.45429e-05
-3.60665e-06
-5.32764e-05
-2.38198e-05
-4.58875e-05
-1.69795e-05
3.59498e-05
1.60489e-05
4.90197e-05
4.67399e-05
9.28108e-05
6.46907e-05
4.11048e-05
3.85821e-05
1.65241e-05
-6.38418e-05
-9.35459e-05
-7.90472e-05
-6.37779e-05
-5.16039e-05
3.66696e-05
4.85963e-05
4.80315e-05
1.99336e-05
-3.26798e-06
-4.66741e-05
-6.8477e-05
-0.000122313
-8.04308e-05
-0.000105666
-5.53024e-05
-5.12769e-05
-5.66317e-05
-2.01845e-05
-8.30035e-06
8.09501e-06
-1.76232e-05
-2.40558e-07
-2.50662e-05
-3.34313e-05
-8.28649e-05
4.80787e-06
3.261e-05
-1.56598e-05
-2.04373e-05
-1.97896e-06
1.01858e-05
2.5439e-05
-8.4904e-06
1.42549e-05
1.11623e-05
9.4263e-05
4.58326e-05
3.00731e-05
5.49759e-05
2.60022e-05
-1.15165e-05
-1.07779e-05
-3.77769e-05
2.19854e-05
-3.63422e-06
4.4247e-05
1.89037e-05
2.98707e-05
5.34677e-06
7.03805e-06
6.63824e-06
-6.5478e-06
-3.2655e-05
2.6763e-05
2.0023e-05
3.22834e-05
-1.63773e-05
5.38511e-05
4.25888e-05
2.45196e-05
-2.22884e-05
-4.14924e-05
-1.87395e-05
-1.06237e-05
-5.72459e-06
1.03709e-05
-1.46804e-05
3.06766e-05
1.64432e-05
-1.09965e-05
-5.36653e-05
1.18943e-06
-2.11721e-05
-2.73467e-05
-6.63389e-05
-5.36253e-05
-4.24612e-05
-5.94696e-07
3.3631e-05
-2.38552e-05
2.01243e-05
4.8731e-05
9.85302e-05
7.96666e-05
4.38235e-05
2.28601e-05
5.07092e-05
5.24592e-05
6.01949e-05
3.20244e-05
-1.9966e-05
1.58587e-06
-2.36933e-06
-1.68574e-05
6.68501e-07
-2.59963e-05
4.42592e-05
3.50971e-05
2.50543e-05
-7.7744e-05
-5.14998e-05
-1.99505e-05
-7.54374e-05
-0.000111785
-6.64866e-05
-5.74803e-05
-9.48709e-05
-1.92057e-05
-7.36108e-05
-3.44195e-05
-3.8589e-05
-7.39015e-06
1.89939e-05
1.1985e-05
-1.90025e-05
2.3915e-05
1.05548e-06
9.17688e-06
1.73336e-05
9.91329e-05
7.8717e-05
0.000205108
0.000325914
0.000526415
0.000851979
0.00142834
0.00232336
0.00368895
0.00589283
0.00938932
0.0150548
0.0240317
0.038386
0.0615126
0.098393
0.157638
0.252004
0.403718
0.645609
1.03392
1.65286
2.64585
4.22566
6.75409
10.7574
17.1232
27.0703
42.609
65.9596
100.764
146.96
204.881
234.618
206.783
-180.011
-717.781
1.94592e-05
4.85323e-06
-7.48948e-06
1.93893e-05
1.61931e-05
3.09161e-05
5.31806e-06
4.09947e-05
6.37534e-05
4.4001e-05
3.00808e-05
2.57172e-05
4.91474e-05
8.33226e-05
2.51037e-05
4.98498e-05
4.69047e-05
8.06515e-06
4.33207e-05
2.38757e-05
7.21119e-05
-2.409e-05
8.7968e-07
4.10947e-05
-3.65535e-06
-1.58568e-05
1.62756e-05
1.2112e-05
-1.9179e-05
1.28802e-05
-5.07754e-05
-4.38831e-05
-5.17216e-05
4.50737e-06
-5.26993e-06
-3.10273e-05
-4.338e-05
-4.68761e-05
-2.13055e-05
2.2411e-05
4.48397e-05
1.62231e-05
3.35826e-05
-5.01942e-05
-9.24839e-05
1.07855e-05
1.41366e-05
9.01537e-06
5.67506e-05
5.45243e-05
5.43295e-05
7.21535e-05
9.25166e-05
6.43154e-05
7.22142e-05
-1.46527e-05
-5.74504e-05
-2.29024e-05
-7.82756e-05
-1.03768e-05
-6.02196e-05
-4.60589e-05
-2.77118e-05
-1.84903e-05
-1.14126e-05
-1.55278e-05
-1.71944e-05
1.65395e-05
7.93542e-06
3.27775e-05
-7.55173e-07
9.00949e-06
-1.6e-05
5.62715e-05
3.50999e-05
2.05289e-05
1.44236e-05
3.8273e-06
-8.69152e-06
-2.17893e-05
-2.27835e-05
-8.01799e-07
-5.15524e-05
2.45662e-05
-1.68336e-05
-1.18332e-05
4.54517e-06
2.43024e-05
6.1139e-05
3.37686e-06
-1.23072e-05
-1.46083e-05
-4.10062e-05
-5.28578e-05
-2.95163e-05
-2.7014e-06
-5.55904e-05
3.03982e-07
-2.12952e-05
3.23261e-07
3.46863e-07
9.18733e-06
-2.08508e-05
6.90662e-06
-3.50596e-05
7.16808e-06
-6.65777e-06
-1.5894e-05
-3.03908e-05
-6.00487e-05
-3.82379e-05
-5.86063e-05
-0.000124862
-8.67915e-05
-8.32558e-05
-1.00526e-05
-3.14386e-05
-5.4974e-05
-6.97554e-05
-8.56087e-05
-0.000121643
-7.97972e-05
-5.95607e-05
-1.72223e-05
3.30284e-05
4.22171e-05
1.7872e-05
4.80984e-05
7.48343e-05
5.44731e-05
9.96067e-06
1.07875e-05
7.28814e-06
9.75224e-06
-9.80346e-06
-1.04914e-05
-2.16317e-05
-8.90183e-05
-3.82558e-05
-1.70938e-05
-4.73808e-05
-3.1032e-05
-6.42093e-05
-1.44966e-05
-1.56031e-05
6.02649e-06
3.67459e-05
2.52659e-05
-1.56343e-05
7.24987e-06
3.8692e-05
-9.86276e-06
-7.20847e-06
-1.36996e-06
4.69162e-05
-1.82882e-05
-2.14992e-05
1.80198e-05
4.15478e-05
2.14668e-05
-1.78551e-05
5.53989e-06
3.59733e-05
1.30542e-05
2.37223e-05
-9.36985e-06
-4.29283e-05
-6.53592e-05
-0.000108216
-5.61313e-05
-4.98847e-05
-3.20747e-05
-8.15887e-06
3.17395e-05
3.12653e-06
2.79771e-05
2.47743e-05
-3.64823e-05
4.01852e-05
2.70787e-05
-2.08351e-05
-6.51708e-05
-4.07002e-05
-1.32065e-05
3.16452e-05
-1.93668e-05
-3.96076e-05
-4.61313e-05
-1.85435e-05
9.11075e-06
6.1895e-05
3.48745e-05
4.19968e-06
-3.08508e-05
-3.17167e-05
-2.56239e-05
-2.2758e-05
1.78072e-05
4.58269e-06
4.11908e-05
1.848e-05
8.59938e-06
4.8653e-05
8.37459e-05
4.86547e-05
3.9703e-05
1.65022e-05
1.19687e-05
5.05195e-05
1.14351e-05
3.54643e-05
6.93918e-05
6.41445e-05
5.38676e-05
4.73207e-05
2.27592e-05
2.16229e-05
-3.41192e-06
-1.47961e-05
1.48891e-05
7.32016e-06
2.53737e-05
2.68901e-05
-5.81567e-06
1.24237e-05
5.63254e-06
-2.38619e-06
-4.10528e-05
-4.09393e-06
-6.23649e-05
-6.47088e-05
-5.87876e-05
-3.559e-05
5.46246e-06
3.91472e-05
3.32818e-05
3.21915e-05
4.49183e-05
3.87809e-05
4.28054e-05
-7.71618e-06
-6.84674e-06
-3.53007e-05
4.96087e-06
1.43453e-05
-3.27004e-05
-9.75033e-06
-5.24856e-05
-6.13532e-05
-8.07437e-05
-0.000114806
-6.86035e-05
-1.47791e-05
-6.30091e-05
8.77849e-06
5.29467e-06
2.03116e-05
6.76886e-05
1.4965e-05
1.71177e-05
7.07508e-05
4.92864e-05
0.000118504
9.17776e-05
0.000146622
0.000206398
0.000373403
0.000541242
0.000828534
0.00128215
0.0020809
0.00334904
0.00526857
0.00834228
0.0133788
0.0214119
0.034182
0.0546481
0.0872796
0.1395
0.222701
0.356058
0.568216
0.908213
1.44895
2.31482
3.69026
5.88897
9.37002
14.9125
23.6102
37.3186
58.2896
90.6156
136.641
203.193
270.263
349.073
246.502
282.568
1.72157e-05
-1.41567e-05
9.62638e-06
-3.13891e-05
7.79887e-07
2.60189e-05
-9.64071e-06
2.13936e-05
-1.14536e-05
-2.82569e-05
-2.84616e-06
6.96699e-07
-1.04779e-05
3.89163e-05
-2.3361e-05
-6.51357e-05
-6.0899e-05
-4.38681e-05
-9.77779e-06
-4.74112e-05
-4.0676e-05
-4.61024e-05
-2.22783e-05
-2.90615e-05
-8.20616e-05
-1.96834e-05
3.06791e-05
7.14493e-06
2.45798e-05
1.31804e-05
0.000103242
5.51661e-05
7.48316e-05
-5.4097e-07
-2.84094e-06
5.65876e-06
1.74439e-05
1.5792e-05
-1.08419e-05
1.65469e-05
9.12811e-05
7.65121e-05
8.20522e-05
-1.13856e-05
3.80619e-05
4.02944e-05
7.34194e-05
4.6737e-05
4.80429e-05
-2.57087e-05
-6.75552e-06
-9.722e-06
-4.53757e-05
-1.06464e-05
-1.48007e-06
-2.92614e-05
-7.21876e-05
9.24003e-07
-2.88136e-05
-5.17044e-05
-2.82938e-05
2.37658e-06
2.49465e-05
1.04236e-05
6.80614e-05
4.78883e-05
2.34107e-05
4.92836e-06
-2.804e-05
-2.65174e-05
-4.55139e-05
-4.91601e-05
-4.93128e-05
-1.13129e-05
2.3656e-05
3.8187e-05
7.98708e-06
3.75159e-06
5.85744e-05
1.75672e-05
2.74842e-05
3.58456e-05
-1.08297e-05
-5.61813e-07
-2.73228e-05
-3.49222e-06
-1.39305e-06
8.84042e-05
4.39856e-05
6.01709e-05
5.53165e-06
1.41416e-05
2.19974e-05
3.55159e-05
-4.89134e-06
-2.38242e-05
1.70346e-05
4.06941e-05
2.80134e-05
8.49303e-06
-1.26134e-05
-5.28406e-05
-5.37805e-05
-4.77945e-05
-8.37831e-05
-6.99109e-05
-7.21718e-05
-7.11033e-05
-3.05438e-05
-2.26808e-05
-1.64946e-05
1.59178e-05
-2.50514e-05
4.51375e-06
2.34163e-05
2.25219e-05
3.91687e-05
-2.58441e-05
2.86992e-05
1.86709e-05
2.67593e-05
1.55601e-05
4.75052e-05
-1.89825e-05
-4.09054e-05
-3.30242e-05
-1.80426e-05
4.82672e-05
2.61406e-05
1.69341e-05
6.17302e-05
-2.46249e-06
-5.56374e-05
-5.63728e-05
-6.908e-05
-1.55437e-05
1.21705e-05
9.28459e-06
2.50212e-05
-2.46842e-05
1.01041e-05
1.31276e-05
4.15971e-05
4.39515e-06
-1.54193e-06
5.10132e-05
9.14622e-05
0.000119382
0.000130134
0.000113625
8.80342e-05
8.9798e-05
6.75838e-05
4.99324e-05
5.84016e-05
6.74819e-05
3.37349e-05
1.42524e-05
-1.79609e-05
-4.42618e-05
-6.75719e-05
1.15748e-05
-3.46563e-05
-2.59074e-05
-2.27802e-05
-3.81796e-05
-2.93318e-05
-5.23569e-05
-5.78367e-05
-5.19212e-05
-5.00155e-05
-6.50731e-05
-6.72455e-05
-5.23557e-05
-6.66564e-05
-6.30841e-05
-3.84406e-05
-5.30226e-05
-7.20374e-05
-3.05516e-05
-3.01853e-05
2.65366e-06
-1.80592e-05
-2.75811e-05
-2.90337e-05
3.54525e-05
2.19167e-05
3.46794e-05
2.18241e-05
1.7251e-05
3.93346e-05
5.04013e-05
2.36138e-05
6.64194e-05
5.28012e-05
1.51079e-05
3.57703e-05
4.85262e-05
4.39292e-05
-2.78491e-05
-1.56802e-05
-1.59991e-05
1.1827e-06
3.40188e-05
3.28723e-05
2.85597e-05
7.74066e-05
6.95972e-05
0.000103328
3.90021e-05
4.47608e-05
4.72556e-06
3.98088e-05
9.78506e-06
2.14724e-05
5.2772e-05
9.13303e-06
-8.33432e-06
-3.52363e-05
-1.24551e-05
-3.77461e-05
-3.4995e-05
-4.97124e-05
-3.56008e-05
-3.52185e-05
-1.52458e-05
-3.57675e-05
1.07206e-05
-1.83268e-05
-3.8273e-05
-9.98539e-06
-8.75569e-06
1.81403e-06
6.74261e-05
3.93476e-05
5.53636e-05
3.80475e-06
-4.8234e-06
1.6379e-05
7.95158e-06
1.48185e-05
-5.07916e-06
6.39278e-05
2.80042e-05
3.88986e-05
6.81766e-05
5.61343e-05
0.000100165
5.84042e-05
5.19965e-05
3.53889e-05
2.4785e-05
2.47092e-06
6.9823e-05
7.43835e-05
7.06451e-05
3.12832e-05
8.88987e-05
3.61306e-05
-2.0379e-05
-1.07348e-08
4.63429e-05
7.30907e-05
9.87612e-05
0.000115896
0.000236201
0.000291816
0.000406935
0.000650528
0.00114296
0.00183442
0.00291933
0.00458476
0.00734825
0.0116004
0.018486
0.029535
0.0471444
0.0750045
0.119629
0.190524
0.303945
0.48398
0.771775
1.22856
1.95831
3.11526
4.96128
7.88101
12.5283
19.8332
31.3947
49.2456
77.2375
118.471
181.769
257.53
373.632
406.454
710.496
5.60457e-06
-2.92094e-05
1.26219e-05
4.8499e-06
-1.81829e-05
-2.93352e-05
1.11982e-05
-3.30411e-05
-2.50428e-05
-1.77564e-05
-3.11751e-05
-6.44867e-05
-4.01356e-05
-8.08748e-05
-0.000103338
-8.3429e-05
1.51265e-05
6.15329e-05
6.31119e-05
6.10033e-05
5.71043e-05
2.92173e-05
8.86303e-05
5.75865e-05
4.27329e-05
3.61939e-06
1.20363e-05
5.01701e-05
7.0118e-05
7.41893e-05
5.36696e-05
1.84493e-05
7.93413e-05
1.26367e-05
3.99328e-05
5.92978e-05
6.05933e-05
2.07712e-05
2.84002e-05
-6.20711e-05
-2.49534e-05
-8.97066e-06
-1.71647e-05
-5.82076e-05
-0.000100124
-4.98991e-05
-5.66905e-05
-7.36093e-05
-7.10342e-05
-7.14365e-05
-6.20716e-05
-3.67517e-05
-4.09671e-06
5.58116e-06
-4.63443e-05
-5.19365e-05
-5.91984e-05
-6.49954e-05
-4.10628e-06
2.11047e-05
6.70975e-06
-5.38839e-06
-4.92611e-06
-1.2136e-05
-1.65796e-05
7.6805e-05
7.55295e-05
9.10492e-05
1.4425e-05
-2.0971e-05
6.65748e-06
-1.81597e-05
-2.62147e-05
1.83889e-06
-4.57016e-06
-9.163e-07
-1.32209e-05
4.03732e-06
7.75947e-06
-4.14902e-05
-7.84795e-05
-6.44448e-05
-5.63394e-05
-5.3454e-05
1.42311e-05
-3.24621e-05
-2.84699e-05
-2.00574e-05
-5.35507e-05
-2.49059e-05
-1.90558e-05
-3.49155e-05
-1.22845e-05
-4.65493e-05
-5.93337e-06
1.9417e-05
2.59663e-05
1.43302e-05
-3.18213e-05
-1.436e-05
2.60809e-05
-1.31587e-05
2.9781e-05
8.24492e-05
7.49264e-05
5.59108e-05
-1.21785e-05
-3.65483e-05
-8.53858e-06
1.1118e-05
4.51761e-05
-1.22963e-06
5.23258e-06
-8.33589e-06
-3.35835e-05
-1.41934e-06
1.01766e-05
-3.65029e-05
1.72422e-05
-2.11009e-05
-3.01192e-05
5.69682e-06
-8.29561e-06
-6.53259e-05
2.73045e-06
-1.00346e-05
2.75128e-06
-1.6742e-05
-8.09354e-06
-2.39626e-05
1.20702e-05
-4.55752e-05
-5.16596e-05
-6.06202e-05
-1.14481e-05
5.71674e-05
4.23575e-06
-6.51308e-05
-4.89207e-05
-9.18259e-06
-7.56979e-06
-2.29297e-05
-3.15063e-05
1.10014e-05
3.37775e-05
3.22757e-05
2.92455e-05
8.52911e-06
3.8084e-05
4.69774e-05
0.000109012
5.30964e-05
6.23156e-05
6.42746e-05
4.35993e-05
7.11516e-05
0.000116065
0.000126211
3.77766e-05
-3.41597e-07
-3.18944e-05
-3.27914e-05
3.21865e-05
4.42781e-05
3.78254e-05
3.05314e-05
-3.47743e-05
1.73021e-05
-3.22735e-05
-1.9859e-06
-2.52384e-05
-5.58611e-05
-3.92249e-05
-2.44677e-05
-3.09641e-05
-2.605e-05
-9.13922e-06
1.33902e-05
6.43987e-05
2.62596e-05
1.85415e-05
1.45834e-05
5.14399e-05
3.77768e-05
3.67592e-05
2.54756e-05
-5.57617e-05
-9.67505e-06
-2.86806e-05
-3.49718e-05
-3.7471e-05
9.37675e-06
-4.10198e-05
-3.58473e-05
-6.48594e-05
-4.70007e-05
-4.6368e-05
-8.11599e-05
-4.97271e-06
-3.86882e-05
-2.40566e-05
-3.81694e-05
-2.83424e-05
-8.56114e-06
-3.10082e-05
-6.89372e-06
-4.0569e-05
-5.57355e-05
-8.04106e-05
-1.63963e-05
-2.17538e-05
-7.23856e-05
-2.62299e-05
-7.71919e-05
-5.37549e-05
-3.83101e-05
-6.65241e-05
-2.07799e-05
-1.02635e-05
3.40447e-06
2.58893e-05
2.17423e-05
5.47629e-05
4.76054e-05
1.84061e-05
8.59492e-05
4.0747e-05
9.49437e-06
1.75574e-05
4.28822e-05
6.35108e-05
6.64673e-05
0.000101762
7.27097e-05
6.35103e-05
8.22647e-06
4.11138e-05
-2.94226e-05
-6.86159e-06
-2.90859e-05
-3.77703e-05
-3.04268e-05
-6.76096e-05
-9.5429e-06
-3.16978e-05
-3.51328e-05
-1.24406e-05
-4.2894e-05
-4.62655e-05
-1.06123e-05
2.04315e-05
7.35952e-05
4.38581e-05
5.35758e-05
3.59042e-05
-1.68513e-05
2.61103e-05
-9.75191e-06
-5.56891e-06
4.46837e-06
-7.40337e-07
4.42114e-05
7.93718e-05
8.41561e-05
0.000156923
0.000197027
0.000266297
0.000395306
0.000630247
0.000993108
0.00162556
0.00244618
0.00388181
0.00621526
0.00977432
0.0155794
0.0248201
0.0395161
0.0628114
0.0999829
0.158844
0.252741
0.401645
0.63917
1.01519
1.61465
2.56315
4.07387
6.45985
10.2545
16.2207
25.6814
40.3596
63.591
98.4386
153.574
224.712
343.676
430.241
821.787
7.32943e-06
3.27855e-06
-9.24776e-06
2.71148e-05
1.70312e-05
1.26157e-05
1.55045e-05
-1.1621e-05
-3.62119e-05
7.14737e-06
1.37296e-05
4.59434e-05
1.63645e-05
4.30606e-05
3.26617e-06
1.96915e-05
9.06852e-07
1.70438e-05
-1.17809e-06
-4.08127e-05
-4.77583e-06
8.20537e-06
1.59227e-05
-4.50724e-05
-3.52367e-05
-2.49895e-05
-5.45155e-05
-4.74603e-05
-6.64811e-05
-1.01213e-05
-1.34669e-05
-1.80708e-05
-2.67549e-05
-2.37115e-05
5.41483e-06
1.82439e-05
5.74084e-06
-2.09399e-05
5.45855e-05
4.26528e-05
4.03084e-05
2.93951e-05
9.35613e-06
2.1014e-05
-1.5764e-05
-1.92142e-05
1.35154e-05
-2.83113e-06
-1.78951e-05
2.6132e-08
5.80715e-06
1.68457e-05
1.56114e-05
-1.25394e-05
1.8744e-05
-5.02798e-07
5.46742e-06
-1.75934e-06
-6.59723e-06
-3.15544e-05
-9.03153e-05
-3.06766e-05
4.16121e-06
-9.2518e-07
1.68802e-05
1.75323e-05
3.53721e-05
1.73095e-05
3.44585e-05
-2.21735e-05
1.26774e-05
-1.35816e-05
2.13588e-05
8.58614e-06
1.97085e-05
-6.60054e-06
1.00607e-05
4.96926e-06
7.76321e-05
5.36942e-05
5.31847e-05
5.1757e-05
4.34507e-05
2.39378e-05
1.48309e-05
1.27393e-05
2.37988e-05
2.17076e-05
-4.64371e-07
1.23935e-05
3.43128e-05
1.21858e-05
1.76181e-05
-1.87348e-05
2.30028e-05
-2.41168e-05
1.73322e-05
2.70532e-05
1.37998e-06
-2.04031e-05
-4.48386e-05
-1.65377e-05
-3.73528e-05
1.95149e-05
5.16046e-06
2.53246e-06
4.79791e-06
4.00134e-05
-2.60955e-05
-4.1423e-05
-2.89819e-05
-3.01126e-05
1.17116e-05
1.02107e-05
1.50271e-06
-2.77803e-05
-2.76337e-05
-3.78972e-05
1.76407e-05
4.73538e-05
3.16429e-05
-1.6132e-06
6.19179e-05
4.50377e-05
9.36086e-06
3.12416e-05
2.79801e-05
4.4006e-05
3.03081e-05
1.91176e-05
1.82341e-06
-1.80792e-05
-3.27095e-05
-2.32411e-05
-8.35692e-06
-2.73944e-05
-5.38353e-06
1.22312e-05
-5.59163e-06
4.00556e-07
5.38356e-06
1.74771e-05
1.29753e-05
-4.21252e-05
-2.93228e-06
-2.51144e-05
3.35621e-05
-3.77313e-05
-5.9957e-05
-4.11077e-05
-9.50781e-05
-5.76352e-05
-1.58705e-05
-2.52251e-05
-3.67452e-06
-8.82294e-06
6.03205e-05
8.49843e-05
5.44652e-05
3.27155e-05
-5.88592e-06
3.708e-05
3.49819e-05
3.82141e-05
2.98255e-05
2.76444e-05
-5.21924e-05
-5.01532e-05
1.91183e-05
-5.84044e-06
3.36734e-05
-5.19384e-05
-7.62857e-05
-4.38376e-05
-1.48856e-05
-6.84611e-06
-4.4863e-05
-4.92723e-05
-4.44041e-05
-4.05834e-05
-3.29921e-05
-8.7262e-05
-7.39806e-05
-9.78859e-05
-0.000113342
-7.96236e-05
-3.17484e-05
2.6501e-05
1.33021e-05
-3.97439e-06
1.91366e-05
2.49687e-05
5.65319e-06
5.51829e-05
7.99523e-05
8.38051e-05
0.000147662
7.68847e-05
5.60634e-05
4.89032e-05
-1.19093e-07
6.40408e-05
2.20623e-05
5.21345e-05
-4.84411e-06
4.07191e-06
-3.03434e-05
-2.50382e-05
-4.50524e-05
-1.36817e-05
-5.18677e-05
-4.04042e-05
-3.2985e-05
4.47169e-05
2.19166e-05
-9.82344e-06
-1.82079e-05
1.00608e-05
2.58654e-05
3.22036e-05
6.35533e-05
2.52783e-05
6.03451e-05
1.08532e-07
2.97746e-05
5.16309e-06
2.09589e-05
5.21489e-06
-2.52486e-05
-7.65814e-05
-3.77924e-05
2.93611e-05
8.96433e-06
4.32771e-05
9.15881e-06
1.03371e-05
-4.13668e-06
4.23065e-05
1.43249e-05
4.6583e-05
2.45381e-05
4.1666e-05
2.25499e-05
6.18245e-06
3.64685e-05
3.06006e-05
0.00011335
2.21535e-05
-1.05314e-06
-7.19455e-06
-2.28638e-06
4.82836e-05
5.32078e-05
8.74481e-06
-2.67629e-05
-2.67943e-05
-1.47801e-05
3.09875e-05
-5.78792e-06
6.02806e-05
2.67439e-06
-2.2539e-05
-1.09187e-05
5.08082e-05
0.000106312
0.000106219
0.000166351
0.000361973
0.000487668
0.000800538
0.00126342
0.00201787
0.00318792
0.00511343
0.00809294
0.0128753
0.0204171
0.0323944
0.0514251
0.0817503
0.129667
0.206091
0.32674
0.518843
0.822469
1.30553
2.06879
3.28211
5.19587
8.23644
13.0156
20.599
32.3947
51.1581
79.5967
125.342
186.71
293.592
392.639
779.165
-2.94268e-05
-7.04712e-05
-2.33262e-05
2.52165e-05
2.3355e-05
4.60329e-06
-4.94015e-06
1.20244e-05
-3.78467e-05
1.39448e-05
2.14017e-05
4.73731e-05
5.07637e-05
-1.13758e-05
4.39869e-06
-3.10788e-05
-3.24383e-06
-1.37877e-06
2.0176e-05
-3.27357e-05
-2.72944e-05
-1.04715e-05
2.92746e-06
3.31711e-05
-4.22479e-06
-2.54023e-06
-3.18726e-05
-4.57333e-05
-1.99461e-05
-1.60669e-05
2.53823e-05
3.55266e-05
-1.07611e-05
-3.51899e-05
-2.3354e-05
-1.88249e-05
5.46617e-05
-1.11302e-05
-2.27188e-05
5.29925e-07
-3.00366e-05
-3.81467e-05
-3.6604e-05
1.40305e-05
-3.01225e-05
-4.54898e-05
-6.2968e-06
8.07707e-06
1.35959e-05
-3.47819e-06
-1.49434e-05
1.0711e-05
-4.63047e-08
-6.15941e-06
-1.6097e-05
-1.88287e-05
-3.14826e-05
-1.73522e-05
-2.56795e-05
-2.28323e-05
1.31232e-05
2.9216e-05
2.40347e-05
-1.1202e-05
-6.3591e-06
-4.6082e-06
2.30359e-06
1.4056e-05
-1.10183e-06
-7.01593e-06
-2.38034e-05
-2.76624e-05
-3.68865e-05
-1.19386e-05
3.19797e-05
4.10114e-05
2.86231e-05
-5.95288e-05
-2.30401e-05
-1.12642e-05
-4.19151e-06
1.10867e-05
1.77047e-05
-1.06945e-06
-6.30821e-06
-8.75907e-06
-3.9206e-05
-2.25937e-05
-5.85086e-05
2.98845e-05
-1.77233e-05
-4.90683e-06
3.18661e-06
4.02934e-05
5.99617e-05
6.14296e-05
3.91179e-05
-1.57314e-06
1.0867e-05
-3.67462e-05
1.98919e-05
5.72535e-05
3.65874e-05
8.17028e-06
-2.91238e-05
3.99986e-05
-1.18557e-06
-1.24429e-05
-2.98234e-05
-4.88511e-05
-4.56491e-06
5.85205e-05
7.42554e-05
6.9512e-05
4.94569e-05
3.44039e-05
-1.92237e-05
7.0562e-05
-1.26743e-05
-4.62255e-05
-4.76205e-05
-5.14454e-05
-4.23034e-05
-2.82369e-05
2.04038e-05
5.5453e-05
4.98158e-05
6.82524e-06
-7.80811e-06
2.23488e-05
7.81787e-05
5.16953e-05
1.47282e-06
4.74003e-05
1.58552e-05
-1.44986e-05
4.66239e-05
-9.54353e-05
-2.84481e-05
-2.09165e-05
3.7041e-06
1.58636e-05
2.51927e-06
2.38042e-05
4.84047e-05
-1.7626e-05
-7.67854e-06
-1.82898e-05
-1.74318e-05
-5.90528e-05
-7.93546e-05
-2.7525e-05
-4.62076e-05
-3.74437e-05
2.28737e-05
-5.99052e-06
5.8938e-06
6.92297e-07
-2.31903e-05
3.5615e-05
1.07288e-05
1.73764e-05
1.28611e-05
4.70684e-05
1.83491e-05
-4.52863e-05
-6.65732e-05
-2.97879e-05
-3.79579e-05
-5.30918e-05
-6.07741e-05
-2.09779e-05
-3.57968e-05
-1.14463e-05
-1.40639e-06
-5.23126e-05
-1.70351e-05
2.52814e-05
3.95662e-05
2.50388e-05
-1.54832e-05
-2.91698e-05
4.12247e-05
-1.73246e-05
-2.23414e-05
-4.71097e-05
-4.4829e-05
-2.13426e-05
4.98323e-07
1.63783e-05
-2.25738e-05
-8.62727e-06
-1.47853e-05
-1.57885e-05
-4.60675e-05
-7.9165e-05
-6.52395e-05
-9.4945e-06
-2.0294e-05
9.58449e-07
-3.06632e-05
2.12225e-05
1.07001e-05
4.71056e-05
-3.71709e-05
-5.78807e-05
2.5143e-05
1.28237e-05
3.08509e-05
2.3668e-05
5.9813e-05
1.01812e-05
-4.25395e-05
-3.15011e-05
-2.13523e-05
-1.4884e-05
-5.40785e-06
1.09627e-05
3.44778e-06
2.6696e-05
1.64517e-05
1.06924e-05
-2.77852e-05
-3.73755e-06
6.86e-06
4.83861e-06
7.2044e-06
3.74868e-05
1.08554e-06
3.56123e-05
6.89032e-05
3.42611e-05
1.90274e-05
-4.63625e-06
-2.10183e-05
-8.13217e-06
2.35063e-05
-1.31486e-05
2.78688e-05
6.04651e-05
-5.51929e-06
6.34142e-05
3.44571e-05
5.31801e-05
2.623e-05
7.37248e-05
5.73944e-06
2.08889e-05
1.32017e-05
-7.58474e-06
9.71649e-06
2.99148e-05
2.07874e-05
7.64408e-05
5.00485e-05
-5.38971e-06
1.66115e-05
-6.23545e-05
-4.69879e-05
7.70289e-06
2.6507e-05
3.61759e-05
8.42486e-05
8.14288e-05
9.32846e-05
0.000131333
0.000155047
0.000312236
0.000420028
0.000635355
0.00107463
0.0016266
0.00259742
0.00419448
0.00658592
0.010437
0.0165751
0.0262042
0.0415222
0.0658476
0.104265
0.165237
0.261694
0.414807
0.656441
1.04032
1.64562
2.60674
4.12091
6.52394
10.2995
16.2907
25.6221
40.5076
63.2045
100.063
150.628
240.611
333.55
675.227
-7.31937e-06
-7.09743e-06
-3.62753e-05
-1.54831e-05
4.82982e-06
-6.13179e-06
1.29366e-05
3.36908e-05
3.13696e-05
2.43506e-05
-5.61554e-06
5.10879e-05
4.14964e-05
3.3816e-05
8.92656e-06
3.8246e-05
2.63676e-05
4.13761e-05
2.21002e-05
3.93626e-05