/*--------------------------------*- C++ -*----------------------------------*\
| =========                 |                                                 |
| \\      /  F ield         | OpenFOAM: The Open Source CFD Toolbox           |
|  \\    /   O peration     | Version:  2412                                  |
|   \\  /    A nd           | Website:  www.openfoam.com                      |
|    \\/     M anipulation  |                                                 |
\*---------------------------------------------------------------------------*/
FoamFile
{
    version     2.0;
    format      ascii;
    arch        "LSB;label=32;scalar=64";
    class       volScalarField;
    location    "0.002";
    object      ddt0(thermo:psi,p);
}
// * * * * * * * * * * * * * * * * * * * * * * * * * * * * * * * * * * * * * //

dimensions      [1 -3 -1 0 0 0 0];

internalField   nonuniform List<scalar> 
180000
(
-8.25689e-11
1.12608e-10
-5.62458e-12
5.1158e-11
9.20774e-11
1.30418e-10
1.4402e-11
1.23958e-12
-4.86503e-11
-6.97393e-11
-7.61857e-11
1.20285e-11
-1.00496e-11
-4.07705e-11
1.51077e-10
-1.26813e-11
-7.77527e-11
-9.53061e-11
-1.68263e-10
-8.66977e-11
-1.83566e-10
3.76006e-11
6.31254e-11
1.1441e-10
1.13078e-10
4.94031e-11
1.66807e-11
7.87266e-11
-3.07274e-11
-2.81998e-12
-3.68891e-11
7.81586e-11
3.92658e-11
1.7422e-10
5.25543e-11
-3.97859e-11
3.75038e-12
-2.76842e-11
1.23435e-11
7.66675e-11
-2.79548e-11
-2.8709e-11
3.26211e-11
-1.22327e-11
-1.19475e-10
-1.32511e-10
-1.83809e-10
-1.499e-10
-1.01395e-10
-9.34576e-11
-3.65223e-12
1.61334e-11
1.04764e-11
-6.05257e-12
1.34674e-10
1.30006e-10
8.06177e-11
-3.69665e-11
1.29398e-10
-9.63062e-11
-1.14369e-10
-1.31698e-10
1.05622e-10
6.22266e-11
-8.57511e-12
-6.23777e-11
1.40811e-12
-7.49223e-11
-9.05362e-11
5.85956e-11
1.67199e-11
-7.66742e-11
-2.46572e-11
-4.17079e-11
-3.26921e-11
7.79897e-12
5.04778e-11
6.98187e-11
2.40278e-10
7.38147e-11
-8.38407e-11
-1.74271e-11
-6.88056e-11
-8.53646e-11
9.0632e-12
8.69757e-12
1.17161e-10
-8.20702e-11
-3.41958e-11
-1.60867e-11
-6.90433e-11
9.3825e-11
4.7772e-11
-1.57936e-10
-2.0472e-10
-2.47859e-10
-2.04471e-10
-2.1354e-10
-1.12267e-10
-9.80422e-12
4.72292e-11
-1.03107e-12
1.10446e-10
3.34005e-11
-3.58842e-11
-8.66735e-11
-1.19104e-11
3.21761e-11
3.44714e-11
2.38842e-10
1.62215e-10
1.03842e-10
5.40354e-11
1.2515e-10
4.3578e-11
7.43679e-12
5.94548e-11
-1.23586e-11
1.39655e-11
2.80497e-11
9.53596e-12
-1.05826e-10
-7.39428e-11
-1.56387e-10
-1.04836e-10
8.5555e-11
2.83864e-11
-4.47655e-11
-1.71682e-10
-1.80854e-10
-1.48107e-10
-2.12692e-10
-1.3151e-10
-1.39371e-10
-1.37826e-10
-2.92968e-11
-1.35776e-10
-1.76425e-10
-2.11289e-10
-1.77252e-10
-4.80082e-11
-7.39924e-11
-2.84247e-11
-1.60014e-10
-5.47355e-11
1.38457e-11
-1.70627e-10
-7.73461e-11
1.5445e-10
1.15754e-10
2.04042e-10
2.05378e-10
2.07796e-10
3.17629e-10
1.67962e-10
1.15437e-11
5.7281e-11
7.44746e-11
5.99407e-12
2.9869e-11
2.66536e-11
4.07719e-12
-4.88969e-11
-1.94713e-11
-3.02062e-11
4.17182e-11
1.65533e-10
1.53771e-10
2.05652e-11
5.15636e-11
5.07722e-11
1.67962e-10
2.13777e-10
1.92891e-10
1.21377e-10
1.4691e-10
8.49834e-11
7.33556e-11
1.57513e-10
2.44309e-11
5.78295e-11
1.15099e-10
1.00729e-10
8.12628e-11
2.03111e-10
1.04523e-10
6.42337e-11
2.016e-10
1.67864e-10
9.59114e-11
2.43782e-11
-2.09055e-11
-3.06687e-11
-1.67156e-10
-1.73082e-10
-2.011e-10
-2.11206e-10
-1.58458e-10
-1.94778e-10
-9.34398e-11
-2.01996e-10
-2.69315e-10
-1.10654e-10
-8.86963e-11
-2.68566e-10
-1.09904e-10
-1.76216e-10
-2.98753e-10
-3.12589e-10
-2.41751e-10
-2.21344e-10
-1.83156e-10
-1.58568e-10
-2.43623e-10
-2.63728e-11
-9.65934e-11
1.0891e-11
3.38108e-11
-7.0132e-11
3.96998e-11
9.70065e-11
5.97647e-11
5.85291e-12
3.86266e-11
-1.24942e-10
-5.29028e-11
-5.76572e-11
-1.64876e-10
-2.21192e-10
-1.95079e-10
9.62918e-12
-1.0951e-10
-1.80848e-10
-2.56274e-10
-2.53956e-11
-1.02576e-10
-7.75639e-11
-1.46859e-10
2.31052e-12
-4.81129e-11
2.43456e-11
-1.87529e-11
1.71535e-11
-4.50552e-11
-1.60986e-10
-3.89492e-11
9.29558e-11
1.12185e-10
2.17537e-10
1.85304e-10
5.92591e-11
1.63214e-10
1.25424e-10
1.60904e-10
1.47992e-10
-5.0848e-11
-5.686e-11
1.66705e-10
3.77651e-10
7.05961e-10
1.12042e-09
1.55341e-09
2.75875e-09
4.353e-09
6.58348e-09
1.06657e-08
1.73257e-08
2.76799e-08
4.4279e-08
7.10862e-08
1.13799e-07
1.82504e-07
2.9273e-07
4.70017e-07
7.54024e-07
1.21064e-06
1.94345e-06
3.12107e-06
5.01233e-06
8.05258e-06
1.2937e-05
2.07922e-05
3.34192e-05
5.37356e-05
8.64077e-05
0.000139001
0.000223613
0.000359867
0.000579107
0.000932167
0.00149985
0.00241311
0.00387675
0.00622286
0.00994266
0.0158349
0.0248655
0.0388526
0.0584643
0.0875994
-3.91081e-11
-8.22011e-11
-1.02065e-10
-3.01497e-13
2.50658e-12
-1.47169e-11
-1.78407e-10
-8.20925e-11
2.66853e-11
5.02364e-11
-2.16629e-10
-4.6984e-11
-1.03229e-10
-1.18713e-10
-1.50702e-10
3.66374e-11
-1.46164e-11
7.48027e-11
7.53142e-11
1.20849e-11
-4.88991e-11
1.0279e-10
2.1981e-11
6.58769e-11
-1.29352e-10
-1.62345e-10
-1.39316e-10
-9.96126e-11
-7.45418e-11
-9.33172e-11
1.06379e-11
-2.90192e-11
1.01547e-10
3.66747e-11
-1.56233e-11
-6.25401e-11
-6.23793e-11
-5.32591e-11
1.22929e-10
3.99473e-11
1.04607e-10
1.20097e-10
6.06734e-11
-3.79804e-11
9.70691e-11
1.08249e-11
1.13771e-10
3.17377e-11
1.49978e-11
3.22341e-11
3.45863e-11
1.65096e-11
1.33373e-10
5.1505e-12
-4.61366e-11
1.04746e-10
1.67324e-10
4.01225e-11
5.16927e-11
-3.90791e-11
-7.96127e-11
-5.99021e-11
-1.32451e-10
-5.51484e-11
-5.15548e-11
5.16648e-11
-8.32169e-11
-1.316e-10
3.72405e-11
3.85566e-11
3.689e-11
4.53499e-11
6.82816e-11
9.23175e-11
6.85468e-11
8.68969e-11
9.92257e-11
4.55571e-11
-9.86334e-12
-5.82711e-11
-4.29051e-12
4.70512e-11
-2.03746e-11
4.3189e-12
-3.98682e-12
9.38682e-12
4.60572e-11
5.87732e-11
3.42153e-11
6.08037e-11
5.27088e-11
1.05836e-11
-8.27525e-12
-1.66034e-11
2.76941e-11
1.92883e-11
4.6306e-11
-1.7341e-12
-8.99185e-11
1.16486e-11
1.59115e-10
8.18463e-11
2.12612e-11
-5.32676e-11
-6.36637e-11
-4.48106e-11
-9.85582e-11
9.91743e-13
-3.71817e-10
-1.58126e-10
-4.21173e-11
-1.42696e-11
-2.66255e-11
8.0089e-11
1.06327e-10
7.53589e-11
2.29339e-10
9.79777e-11
7.06994e-11
1.64856e-10
4.73008e-11
5.57024e-12
1.65806e-10
2.62299e-10
3.8687e-11
6.87079e-11
2.22409e-11
8.12575e-11
-9.90501e-11
8.93349e-11
2.3818e-10
1.00387e-10
1.94972e-10
6.06337e-11
-7.69783e-11
2.4722e-11
-7.06314e-12
-4.43024e-11
5.34228e-11
-5.74104e-11
9.40137e-11
7.19864e-11
2.21277e-10
7.75627e-11
2.94268e-10
9.79433e-11
8.58343e-11
-9.23356e-11
-9.12889e-11
-1.78623e-10
8.06403e-11
7.65195e-11
1.7364e-10
1.23005e-10
2.94034e-11
-6.74401e-11
-1.97357e-10
-2.36674e-11
-1.3109e-10
1.12378e-11
-9.38228e-11
9.78271e-12
-2.39433e-11
-4.38806e-11
8.92778e-11
-2.36544e-12
9.89322e-11
6.77647e-11
-3.86002e-11
-7.0181e-11
-6.93794e-12
-3.47778e-11
-1.15252e-10
2.01634e-11
5.82163e-11
-1.37687e-10
-1.72634e-10
-4.83858e-12
7.04963e-11
-7.53302e-11
-1.61732e-10
-1.49478e-10
-1.5295e-10
-1.04091e-10
1.37439e-11
5.91304e-11
4.63499e-11
1.59345e-10
2.82831e-10
1.84284e-10
-4.08207e-12
-6.16738e-11
-1.47174e-10
-1.01286e-10
-9.9403e-11
-2.32224e-10
-2.64666e-10
-1.96116e-10
-3.29304e-11
-1.22415e-10
-1.24141e-11
1.43011e-10
-4.0571e-11
-4.44029e-11
-1.96712e-11
4.44192e-11
2.34049e-10
9.42715e-11
9.63483e-11
3.36974e-11
-1.86193e-11
3.07425e-11
-2.46871e-11
-6.06233e-12
4.868e-11
5.07118e-11
1.5099e-11
3.24151e-11
1.04611e-10
5.01938e-11
7.27704e-11
1.18659e-10
9.28869e-11
1.07906e-10
1.72168e-10
2.03822e-10
1.26857e-10
6.2926e-11
2.14045e-10
1.34626e-10
1.6102e-11
9.47374e-11
2.13175e-10
1.75729e-10
1.66196e-10
1.26761e-10
6.37643e-11
1.89894e-11
6.44428e-11
7.39886e-11
1.16556e-10
1.40198e-10
8.05234e-11
1.71954e-10
5.23676e-11
1.79942e-10
1.07689e-10
1.02967e-10
-1.52473e-11
1.05234e-10
8.21936e-11
1.17106e-10
1.38445e-10
1.71062e-10
1.19481e-10
6.70806e-11
1.15523e-10
3.09591e-10
3.72574e-10
5.91547e-10
8.54725e-10
1.57258e-09
2.50853e-09
3.89419e-09
6.40945e-09
1.02421e-08
1.64986e-08
2.62162e-08
4.20945e-08
6.75327e-08
1.08457e-07
1.73876e-07
2.78523e-07
4.46455e-07
7.15602e-07
1.14739e-06
1.8392e-06
2.94947e-06
4.72907e-06
7.58431e-06
1.21627e-05
1.95102e-05
3.12936e-05
5.0206e-05
8.05406e-05
0.000129232
0.000207331
0.000332684
0.000533691
0.000856182
0.00137281
0.0022005
0.00352263
0.00563374
0.00898024
0.0142695
0.0224527
0.035158
0.0538431
0.082223
3.94008e-11
5.39589e-11
-7.92338e-11
-5.73805e-11
6.74963e-11
-1.61656e-11
-2.87523e-11
3.2289e-11
-2.60686e-11
-1.96597e-11
-2.89814e-11
4.23505e-12
2.97396e-12
-6.47942e-11
-2.02007e-11
-2.6505e-12
2.842e-12
3.32954e-11
3.42901e-11
8.44714e-11
4.43966e-11
6.68687e-12
-6.22292e-11
1.14801e-11
-2.2968e-11
-3.32519e-11
4.49557e-11
-3.60323e-12
1.42102e-10
8.46148e-11
1.31776e-10
1.41636e-10
8.8822e-11
1.26003e-10
6.26611e-11
1.73223e-10
-1.54789e-10
2.17501e-11
-1.13182e-11
-2.22364e-10
7.80997e-11
1.57603e-10
9.13143e-11
-3.52407e-11
-8.60843e-11
5.2362e-11
2.21524e-11
1.14059e-10
7.74585e-11
1.66353e-11
4.1067e-11
3.11809e-11
5.95235e-11
6.39893e-11
-2.17489e-10
-1.78582e-10
-1.72785e-10
8.29359e-12
3.81655e-13
-4.48436e-11
-6.54076e-11
-9.52706e-11
-4.69517e-11
7.2617e-11
1.25961e-10
1.54024e-11
-6.15987e-11
8.71603e-11
-5.41634e-11
-4.70112e-11
-3.73664e-11
-4.5298e-11
-5.67053e-12
-3.9673e-11
3.33921e-11
3.51743e-11
7.70658e-11
5.92001e-11
8.62391e-11
8.28089e-11
7.74105e-11
3.39691e-12
7.46388e-11
-9.4662e-11
9.38714e-11
9.6912e-11
7.08802e-11
1.51814e-11
-3.28015e-11
-7.00457e-11
7.31105e-11
7.77737e-11
-6.82007e-12
1.30267e-10
4.31925e-11
-6.09467e-12
-5.58542e-11
-2.39923e-10
-2.55973e-10
-7.11117e-11
9.84496e-12
-6.23975e-11
-1.23421e-10
3.27817e-11
1.40364e-10
-5.80964e-11
7.45034e-11
1.14818e-10
2.91509e-10
1.01311e-10
4.00379e-11
-1.12878e-10
-1.13083e-10
-8.37212e-11
-1.77717e-10
-1.63431e-10
-1.3612e-10
-1.9871e-10
6.84423e-11
8.96738e-11
6.95525e-11
2.20685e-11
1.09171e-10
5.5592e-11
5.67523e-11
1.55493e-10
-2.25528e-11
-2.95761e-11
-2.73073e-12
1.18217e-10
-5.14147e-11
-7.65164e-11
-1.07786e-10
-8.81697e-11
4.42063e-11
-8.72989e-11
-6.23555e-12
-4.19843e-11
1.39555e-10
3.43858e-11
2.50026e-11
9.31865e-11
6.74404e-11
-8.16398e-11
-7.67729e-11
-1.58685e-10
-1.4645e-10
-8.18667e-11
-5.57064e-11
-1.64426e-11
5.10438e-11
3.31837e-11
3.05213e-11
-1.33834e-10
-4.38929e-11
-7.36112e-11
-1.95727e-10
-2.09596e-10
-1.72431e-10
-8.32403e-11
-1.77403e-10
-9.57615e-11
2.80176e-11
7.97572e-11
-1.8182e-11
-3.52784e-11
2.08557e-11
-1.95801e-11
-3.34908e-10
-1.1979e-10
2.72318e-11
-5.59916e-11
-2.64391e-11
4.493e-11
1.65856e-11
7.46354e-11
-1.4282e-13
-8.16966e-12
-1.3347e-11
1.91499e-10
2.14781e-10
1.82605e-10
1.90419e-10
1.42953e-10
5.88532e-11
-2.62377e-11
-1.07326e-10
-1.52688e-11
1.13855e-11
1.24641e-10
1.65023e-10
1.19771e-11
3.74954e-11
1.09901e-10
1.02731e-10
8.92919e-11
4.46411e-11
1.04746e-10
1.44128e-10
7.67934e-11
-2.05883e-11
7.61996e-11
1.16849e-10
1.39592e-10
-7.76385e-11
-1.08547e-10
-1.19654e-10
-1.30338e-10
-4.34515e-11
2.08931e-11
-1.12376e-10
6.30268e-11
8.97644e-11
7.24771e-11
3.68858e-11
1.15427e-10
2.60147e-11
2.57765e-11
-4.01063e-11
-3.63556e-11
-5.36558e-11
1.50411e-11
8.65453e-11
-5.25667e-11
7.71865e-11
6.09579e-11
1.00069e-10
1.63935e-10
1.22022e-10
-4.70178e-11
7.98314e-11
1.47837e-10
1.68389e-10
1.678e-10
-1.15699e-10
4.84029e-11
4.07257e-11
4.9612e-11
5.74915e-11
-3.69917e-11
1.44899e-10
1.9605e-10
1.48084e-10
-1.24895e-10
-1.8557e-10
-1.75377e-11
-9.72434e-11
-2.40454e-10
-1.47341e-10
-1.11981e-10
-1.43896e-10
-1.3273e-10
-1.14017e-10
-3.38182e-11
-1.22359e-10
-5.53559e-11
2.0643e-10
1.77221e-10
2.71977e-10
6.14101e-10
7.29247e-10
1.34953e-09
2.12356e-09
3.62878e-09
5.67373e-09
9.23124e-09
1.50174e-08
2.41266e-08
3.86891e-08
6.18615e-08
9.91655e-08
1.58681e-07
2.53824e-07
4.05876e-07
6.4942e-07
1.03904e-06
1.66207e-06
2.65933e-06
4.25427e-06
6.80701e-06
1.08896e-05
1.74234e-05
2.78723e-05
4.45934e-05
7.13304e-05
0.00011411
0.000182498
0.000291889
0.000466681
0.00074611
0.00119213
0.00190424
0.00303795
0.00484382
0.00770099
0.0122222
0.0192289
0.0302302
0.0466146
0.0725502
1.0769e-10
3.00475e-11
-7.50872e-11
-2.89474e-11
-3.84964e-11
-1.78624e-11
-7.51878e-11
6.24648e-11
1.30198e-10
9.1096e-11
7.71248e-11
8.31357e-12
1.27042e-10
2.41861e-10
9.80179e-11
5.58486e-11
5.44076e-11
-1.09073e-10
-5.63327e-11
-3.6968e-11
1.38676e-10
-1.30001e-10
-1.52659e-11
1.05776e-10
-5.47487e-11
-1.10703e-10
9.31424e-11
8.25861e-13
-4.65824e-11
-4.7147e-11
-7.40785e-11
-5.20788e-11
-1.51729e-10
5.22463e-12
-2.75482e-11
-8.62099e-11
-1.4898e-10
-1.85168e-10
-1.55905e-10
-1.31562e-10
-6.967e-11
-3.96454e-11
4.71975e-11
-9.45704e-11
-2.21423e-10
-9.05837e-11
-1.64978e-11
1.6019e-10
2.20978e-10
1.69664e-10
1.04165e-10
8.74061e-12
-4.79653e-11
-4.29947e-11
-8.23303e-12
-7.86325e-11
-1.48012e-10
-9.65124e-11
-2.38236e-10
3.4887e-11
-8.08356e-11
-8.97364e-11
-1.02867e-10
-5.31351e-11
2.91268e-12
-1.40583e-11
-4.77409e-11
5.88963e-11
3.05637e-11
7.60448e-11
4.03878e-11
6.86901e-11
2.21253e-11
1.87062e-10
1.01322e-10
-1.1569e-11
5.16608e-11
2.90133e-11
7.46228e-11
7.359e-11
1.74292e-11
1.61543e-10
-2.13645e-11
6.50374e-11
-5.43415e-11
-2.69852e-11
-4.70755e-11
-5.66008e-11
9.43853e-11
7.32414e-11
-1.6609e-11
2.34893e-11
-4.833e-11
-1.38951e-10
-1.14399e-10
-1.12652e-10
-1.90369e-10
-9.35555e-12
-1.80381e-10
-1.82272e-10
-1.45446e-10
-3.62221e-11
-1.1449e-11
7.21632e-11
-8.61544e-11
-1.34508e-11
-5.4026e-11
-4.84509e-11
-1.50859e-10
-1.8308e-10
-9.70845e-11
-1.03428e-10
-2.02122e-10
-1.67948e-10
-2.10623e-10
-1.17517e-10
1.30546e-11
-2.48318e-12
-7.08191e-11
-1.70726e-10
-2.21354e-10
-1.24894e-10
-1.36513e-10
-5.41805e-11
4.06764e-11
8.47901e-11
7.7502e-11
1.07081e-10
1.79966e-10
1.75372e-10
-6.04842e-12
3.03583e-11
-1.99893e-11
2.07774e-11
-2.50789e-11
8.35781e-11
1.42649e-11
-2.36147e-10
-1.24955e-10
-3.65572e-11
-2.23304e-10
-1.73194e-10
-3.16739e-10
-1.06232e-10
-6.23295e-11
-5.55617e-11
7.33384e-11
8.64495e-11
4.18447e-11
3.92708e-11
8.03893e-11
-9.15758e-11
-1.09084e-10
-1.24402e-10
3.60551e-11
-5.14025e-11
-6.00873e-11
5.90915e-11
1.05553e-10
-2.73308e-11
-1.3078e-10
-1.14204e-10
2.01875e-11
-1.19197e-10
-5.70663e-11
-1.1066e-10
-4.1017e-11
-5.17261e-11
-2.39819e-10
-1.47885e-10
-1.42723e-10
-8.11386e-11
-1.07353e-10
-8.79961e-11
-1.47667e-10
-1.75495e-11
3.03488e-11
-1.22808e-10
-3.7152e-11
7.4223e-11
-6.04064e-11
-1.87029e-10
-4.4456e-11
2.18735e-12
1.30173e-10
4.82191e-11
3.68657e-11
3.32609e-11
-7.8209e-12
5.87469e-11
1.21776e-10
8.33412e-11
1.72921e-10
6.77889e-11
-7.49526e-11
-3.17572e-11
-8.50493e-11
2.84836e-11
-1.20523e-11
1.27964e-10
6.40129e-11
6.31111e-11
1.29138e-10
1.00064e-10
1.8127e-10
1.82353e-10
9.14896e-11
6.31789e-11
1.40228e-10
9.3301e-12
-5.84692e-11
8.98336e-11
1.89931e-10
1.69869e-10
1.66754e-10
1.06005e-10
1.03194e-10
5.56504e-11
1.36529e-10
1.06382e-10
6.46893e-11
8.26375e-11
1.09008e-11
-6.46652e-11
-1.96521e-11
1.60206e-11
-1.39275e-12
-1.2886e-10
1.46737e-11
-8.76034e-11
-1.76004e-10
-1.67163e-10
-1.46392e-10
1.67981e-11
4.97413e-11
3.74632e-11
5.39654e-12
8.3253e-11
1.79184e-11
1.20968e-10
6.98049e-12
-2.06721e-12
-2.53812e-11
-5.10409e-11
3.14838e-11
4.82397e-11
5.52741e-12
-1.96617e-10
-1.0859e-10
-1.74972e-10
-2.33053e-10
-1.26927e-10
4.31234e-11
-1.82192e-10
-1.37563e-10
6.15852e-11
9.86619e-11
2.64414e-10
2.61403e-10
4.70637e-10
9.08939e-10
1.34155e-09
2.13847e-09
3.25313e-09
5.40909e-09
8.49801e-09
1.36821e-08
2.16685e-08
3.43309e-08
5.48665e-08
8.75475e-08
1.39651e-07
2.22744e-07
3.55529e-07
5.67384e-07
9.05753e-07
1.44548e-06
2.30718e-06
3.6816e-06
5.87525e-06
9.37395e-06
1.49571e-05
2.38589e-05
3.806e-05
6.0696e-05
9.67969e-05
0.000154317
0.000246012
0.000392025
0.000624648
0.000994685
0.00158358
0.00251824
0.00400355
0.0063495
0.0100633
0.0158278
0.0249477
0.0386919
0.0610332
6.77945e-11
-4.06092e-12
6.27553e-12
-5.23865e-11
-4.73281e-11
-1.81579e-11
-1.45498e-10
2.77486e-11
-8.71218e-11
-1.63878e-10
-5.63249e-11
-8.19667e-11
-1.30771e-10
5.26514e-11
-1.17383e-10
-1.84004e-10
-1.43976e-10
-9.64361e-11
2.36789e-11
-6.88958e-11
-1.26077e-10
-1.58962e-10
-4.691e-11
-7.93723e-11
-2.98301e-10
-7.6674e-11
-6.50293e-11
-6.18101e-11
-2.95445e-11
-4.73881e-11
1.99854e-10
7.86964e-11
7.17535e-11
-4.2324e-11
-1.23169e-11
2.68935e-11
4.32309e-11
7.49074e-11
-9.51479e-11
-8.9952e-11
9.96531e-11
1.28113e-10
2.08537e-10
9.41143e-12
7.42114e-11
4.50029e-11
1.30055e-10
1.3661e-10
2.21588e-10
-1.99871e-11
-7.43316e-11
-1.21714e-11
-1.4196e-10
3.70499e-11
4.80599e-11
-1.40542e-11
-1.27459e-10
9.60205e-11
8.15597e-11
-1.27375e-10
-5.80119e-11
5.4491e-11
-2.53045e-11
-2.3662e-11
1.37727e-10
1.07667e-10
9.1341e-11
-1.76889e-12
-1.50367e-10
-1.33325e-10
-1.26437e-10
-1.15124e-10
-1.05291e-10
-4.21952e-11
6.66993e-11
2.30476e-11
6.21639e-11
7.69184e-11
1.8509e-10
2.27536e-11
-2.42933e-12
1.24402e-11
1.23375e-11
-3.93231e-11
-1.89424e-10
-1.77214e-10
-8.47257e-11
1.56033e-10
-6.533e-11
6.46977e-11
2.12143e-11
-1.25168e-11
6.41739e-12
1.15193e-10
-5.3651e-11
-1.41951e-10
3.66057e-11
7.13253e-11
1.44507e-10
8.88738e-11
-4.91492e-11
-1.10719e-10
-1.59988e-10
-1.59641e-10
-1.3986e-10
-6.99162e-11
-8.24402e-11
-1.53607e-10
6.10933e-13
-6.31899e-11
-9.40857e-11
2.20084e-11
-5.10438e-11
8.91489e-11
1.28926e-10
1.6457e-10
1.44869e-10
-9.41099e-12
1.12609e-10
8.42042e-11
6.15554e-11
-8.64953e-13
8.25517e-11
-3.50895e-11
-1.41003e-10
-1.24695e-10
-6.14857e-11
2.47288e-11
7.15856e-11
-5.18366e-11
9.99951e-11
5.12367e-11
-1.74166e-10
-1.14365e-10
-1.64652e-10
-5.03502e-12
-3.61368e-12
-8.32454e-11
7.46902e-11
-6.2504e-11
2.48708e-11
8.34874e-11
2.12582e-10
1.48298e-10
1.05378e-10
1.26013e-10
1.98444e-10
1.92357e-10
2.79756e-10
2.6176e-10
2.44789e-10
2.4697e-10
2.53881e-10
1.86372e-10
2.07668e-10
2.50107e-10
1.33261e-10
1.03208e-10
7.53834e-11
-3.33241e-11
-1.84841e-10
9.96357e-11
-1.12757e-10
-1.55234e-10
-1.40131e-10
-1.5137e-10
-8.28329e-11
-8.54493e-11
-8.45784e-11
-9.66369e-11
-1.80492e-10
-1.51332e-10
-8.64996e-11
-1.25122e-10
-1.25568e-10
-1.24503e-10
-1.84818e-10
-1.52769e-10
-2.65674e-10
-2.26117e-10
-1.73836e-10
-3.15476e-11
-4.39763e-11
-1.25306e-10
-8.55664e-11
2.13607e-11
-8.08789e-11
8.43683e-11
-8.07073e-12
-8.83963e-12
1.02176e-10
2.67992e-11
1.26385e-10
1.67191e-10
7.16738e-11
-1.28866e-12
-3.71967e-11
9.29212e-11
2.93952e-10
-4.58344e-11
-2.10674e-12
5.22489e-11
5.83212e-11
1.54514e-10
1.62463e-10
2.74189e-12
1.48589e-10
1.16174e-10
1.70072e-10
9.39462e-11
2.14402e-10
5.78445e-11
1.59337e-10
-8.44914e-12
-7.55382e-11
2.36716e-10
1.35491e-10
6.22474e-11
3.08767e-11
3.76863e-11
-2.36352e-11
4.63916e-11
-4.54178e-11
-6.52068e-11
-7.30787e-11
5.22342e-11
-6.59706e-11
3.12757e-11
-9.26023e-11
-9.60448e-11
-3.66963e-11
-1.20364e-10
-1.28136e-10
5.98749e-11
5.72591e-12
1.17058e-10
1.55294e-10
8.29217e-12
5.22963e-11
-1.23031e-11
8.80476e-12
-7.93104e-11
6.02115e-11
2.14249e-10
1.71823e-10
2.58903e-10
2.44451e-10
2.08253e-10
1.60619e-10
2.09209e-10
1.36622e-10
1.55732e-10
-2.22567e-12
1.16843e-10
2.37524e-10
2.54404e-10
2.19993e-10
3.48803e-10
3.75947e-10
4.22551e-10
7.10108e-10
1.06808e-09
1.91699e-09
3.00515e-09
4.48658e-09
7.51667e-09
1.15771e-08
1.84313e-08
2.93545e-08
4.68996e-08
7.48539e-08
1.19218e-07
1.89885e-07
3.02237e-07
4.81253e-07
7.66356e-07
1.22015e-06
1.94277e-06
3.09255e-06
4.92294e-06
7.83459e-06
1.24687e-05
1.98371e-05
3.15607e-05
5.01952e-05
7.98316e-05
0.000126918
0.000201768
0.000320621
0.000509444
0.000808991
0.00128448
0.00203738
0.00323167
0.00511549
0.00809827
0.012733
0.0201036
0.0313025
0.0498315
3.81104e-11
-6.02902e-11
2.43895e-11
3.71472e-11
-9.1403e-11
-1.22873e-10
6.49053e-12
-1.74627e-10
-7.43773e-11
2.5001e-11
-4.58363e-11
-1.38117e-10
-3.26678e-11
-1.6517e-10
-1.88575e-10
-1.64152e-10
-5.47657e-11
9.92669e-12
2.56539e-11
6.41952e-11
5.57621e-11
-4.01547e-12
6.41024e-11
1.93321e-10
1.97099e-10
8.9358e-11
4.84557e-11
1.75303e-10
1.73815e-10
2.38471e-10
1.40794e-10
7.44928e-11
1.91709e-10
8.38854e-11
1.19678e-10
1.57952e-10
2.42369e-10
7.72128e-11
2.17201e-10
-2.82131e-11
-8.07376e-11
3.50929e-11
-9.18464e-11
-1.7304e-10
-2.12934e-10
-9.87767e-11
-1.62711e-10
-2.10083e-10
-1.82487e-10
-1.68164e-10
-1.456e-10
-4.96559e-11
3.79789e-11
1.53206e-11
2.09861e-11
-9.78887e-11
-9.41483e-11
-5.13629e-11
3.34884e-11
6.82489e-11
4.404e-11
-4.19699e-12
-6.42126e-11
-2.10765e-11
-3.71712e-11
2.91745e-11
8.91407e-11
2.68208e-10
1.75055e-10
6.01655e-11
9.87307e-11
5.54932e-11
-1.41526e-12
3.04686e-11
2.66508e-11
1.00172e-12
-2.60761e-11
7.32453e-12
-1.97672e-11
1.33898e-12
-1.06666e-11
-9.14731e-11
-1.35356e-10
-1.3429e-10
5.2476e-11
-1.5739e-11
-4.81743e-11
-1.63255e-11
-9.665e-11
-4.15361e-11
-9.48223e-11
-1.23964e-10
-1.41969e-10
-8.89651e-11
-6.99744e-11
3.18921e-11
-1.59386e-11
4.62538e-11
-7.5377e-11
-7.24312e-11
1.73456e-11
-1.10993e-10
-5.60005e-11
6.4814e-11
1.48589e-10
1.69673e-10
7.18326e-11
3.06478e-11
-7.7085e-11
6.03366e-11
1.2853e-10
2.36117e-11
-1.49248e-11
5.35651e-11
5.74464e-11
1.41475e-10
1.92247e-10
1.21493e-11
4.73844e-11
-3.71534e-11
-2.93627e-11
1.11499e-10
1.259e-10
-9.92001e-11
2.52242e-10
8.4944e-11
8.26204e-11
-2.08942e-11
3.14394e-11
-1.06349e-11
3.81071e-11
-4.04564e-11
-8.96937e-11
-2.07461e-10
-1.42256e-10
-2.12082e-11
-1.09207e-10
-2.17881e-10
-1.27916e-10
-1.43842e-10
-1.51031e-10
-2.31241e-10
-3.37032e-10
-1.05144e-10
4.15893e-11
1.33633e-10
1.21257e-10
6.85306e-11
1.59544e-10
2.38168e-10
2.81464e-10
1.8509e-10
1.586e-10
2.25621e-10
6.21333e-11
8.37445e-11
1.75023e-10
1.49301e-10
8.08092e-11
1.6204e-11
-9.94953e-11
-1.72073e-10
-5.87262e-11
-4.65643e-11
-1.75763e-11
1.09981e-10
-1.18487e-10
1.75265e-11
-8.15779e-11
-3.14841e-11
-8.73065e-11
-9.58371e-11
-7.61505e-11
-1.87309e-10
-1.06384e-10
-1.21096e-10
-1.38197e-10
-3.7895e-11
3.05847e-11
1.18736e-10
-4.99767e-12
-2.36297e-11
2.12505e-11
-4.19614e-11
8.21241e-11
8.63762e-11
-6.7841e-11
4.72463e-11
4.33582e-11
3.22361e-11
-2.42278e-11
1.36783e-10
-4.4732e-11
-1.5694e-10
-1.32242e-10
-6.75949e-11
-9.90482e-11
-1.37469e-10
-1.0924e-12
-1.03849e-10
-1.39742e-10
-2.18034e-10
-1.61971e-10
-1.61114e-10
-1.93707e-10
-4.06069e-11
-2.77931e-11
-6.11021e-11
-1.38165e-10
-1.9089e-11
-5.29122e-12
-1.60277e-10
1.31596e-12
-1.95239e-10
-1.48454e-10
-2.48083e-11
-4.60947e-11
-7.6903e-11
-5.03364e-11
2.71132e-11
1.5269e-10
-1.23442e-11
1.55001e-10
6.11297e-11
-9.04008e-11
1.69178e-10
1.45906e-10
9.94643e-11
1.66896e-10
1.73591e-10
2.59531e-11
1.07621e-10
1.60863e-10
-1.31268e-11
1.33122e-10
2.73139e-11
1.79148e-10
-6.87289e-11
3.27019e-11
-3.28895e-11
-7.38486e-11
-6.17235e-11
-3.16232e-11
-2.16781e-11
-1.03017e-10
-2.5241e-11
1.75427e-11
-7.609e-11
-1.17429e-10
-1.32683e-10
6.24179e-11
1.16914e-10
1.1723e-10
2.92844e-10
2.92623e-10
1.45276e-10
1.58593e-10
1.24058e-10
1.76746e-10
3.13427e-10
5.37417e-10
9.99569e-10
1.5424e-09
2.44994e-09
3.98143e-09
6.23726e-09
9.74707e-09
1.56674e-08
2.48502e-08
3.9474e-08
6.26517e-08
9.92949e-08
1.57829e-07
2.50937e-07
3.98485e-07
6.33204e-07
1.006e-06
1.59829e-06
2.53865e-06
4.03226e-06
6.40242e-06
1.01662e-05
1.61375e-05
2.56159e-05
4.06472e-05
6.44976e-05
0.000102304
0.000162266
0.000257265
0.000407861
0.000646265
0.00102396
0.00162095
0.00256663
0.00405682
0.00641649
0.0100856
0.0159404
0.0248852
0.039857
9.07904e-12
5.15458e-11
-3.04197e-11
4.4375e-11
7.90287e-11
5.09213e-11
3.8292e-11
-9.93446e-12
-1.30558e-10
-4.92831e-11
-4.95434e-11
9.17431e-12
5.17029e-11
4.63161e-11
-1.29814e-10
-5.94141e-12
5.17615e-11
6.4113e-11
-1.42046e-11
-3.9762e-11
3.38716e-11
-5.27507e-11
-3.99863e-11
-4.40009e-11
-1.71862e-12
2.25889e-11
-1.8846e-10
-1.322e-10
-1.85867e-10
-3.02701e-11
-5.74661e-11
-5.28055e-11
-2.42668e-11
-1.97885e-10
-3.68348e-11
6.48936e-11
1.04168e-11
-2.9189e-11
9.25175e-11
1.39141e-10
1.10564e-10
1.66517e-10
5.53895e-11
7.67412e-11
-2.09455e-11
-1.11033e-10
-2.03216e-11
-1.21969e-10
-4.62838e-11
1.67551e-11
6.57722e-11
5.03599e-11
1.20288e-10
-1.69837e-11
2.49421e-11
1.55675e-11
8.40963e-12
-2.30685e-11
3.36622e-11
1.33722e-11
-1.80153e-10
1.7523e-11
4.53848e-11
3.66483e-11
4.86361e-11
2.94306e-11
4.02187e-11
4.9066e-11
5.18295e-11
-1.03522e-11
7.1543e-11
-3.52246e-11
1.01552e-10
1.35463e-11
-4.12929e-11
2.42867e-12
-2.9246e-12
3.18741e-11
1.63909e-10
7.60051e-11
7.50723e-11
1.03696e-10
3.28661e-11
2.27161e-11
-2.07168e-11
8.97486e-12
1.72652e-10
7.60067e-11
6.37483e-11
6.36427e-11
6.88607e-11
-3.63461e-11
-8.49544e-11
-1.42056e-10
-2.60876e-11
-1.04806e-10
4.45697e-12
9.09801e-11
6.52045e-11
4.03893e-11
-4.41721e-11
-2.01781e-11
-1.16496e-10
-7.06646e-11
-1.03481e-10
-2.3436e-11
3.24541e-11
1.74422e-10
2.52863e-11
7.50837e-12
-3.92274e-11
5.46908e-12
1.11775e-10
1.82713e-10
1.55526e-10
9.65576e-11
-4.28982e-11
-1.46277e-10
2.60502e-11
1.28563e-10
6.64237e-11
-7.26568e-11
8.39436e-11
-3.67371e-12
-7.59336e-11
3.2792e-11
1.51485e-10
1.57688e-10
1.21772e-10
3.72082e-11
3.19492e-11
3.62934e-11
-1.01703e-10
-8.30663e-11
-4.41504e-11
-1.07351e-10
-2.65136e-11
3.41084e-11
1.92709e-11
-5.13114e-11
-7.60959e-11
2.5295e-11
7.23656e-12
-8.92573e-11
2.63699e-11
-1.20667e-10
7.71999e-11
-6.81746e-11
-7.60649e-11
3.20334e-11
-9.89582e-11
-1.38809e-10
-8.24731e-11
-1.26372e-10
3.78526e-12
-6.38765e-11
1.36099e-10
2.23021e-10
1.06163e-10
9.13126e-11
1.52808e-11
8.1236e-12
-7.06213e-11
-5.7115e-11
-8.02242e-11
-1.3109e-11
-8.4763e-11
-1.4285e-10
9.27121e-11
-5.94327e-11
9.86221e-11
-1.30492e-10
-1.55345e-10
-1.0655e-10
-1.22212e-11
-1.94099e-11
-6.24791e-11
-6.87593e-11
-1.24738e-10
-1.88721e-10
-1.14328e-10
-1.68332e-10
-1.68539e-10
-2.02383e-10
-2.19114e-10
-1.15642e-10
-7.35116e-11
8.75339e-11
1.17208e-10
-1.15586e-12
8.58917e-11
2.87535e-11
7.03052e-11
1.85722e-10
2.22078e-10
2.04253e-10
3.78481e-10
3.2454e-10
2.16099e-10
1.28784e-10
-1.43769e-10
6.944e-11
3.24443e-11
1.32306e-10
-2.38876e-11
7.01403e-11
3.15486e-11
4.34064e-11
-1.6532e-11
1.39708e-10
-5.74182e-11
-8.27864e-11
-1.4401e-11
7.5147e-11
6.87923e-11
1.57085e-10
3.78844e-11
2.06891e-11
7.11522e-11
4.01583e-11
1.49861e-10
5.59139e-11
2.18729e-10
6.04692e-11
7.39307e-11
2.45844e-12
-9.57332e-12
-9.93052e-12
-1.10847e-10
-3.01234e-10
-1.0519e-10
7.00177e-11
-4.10123e-11
6.63876e-11
-4.09648e-12
3.41176e-11
-9.40466e-11
7.90151e-11
-6.55077e-12
1.55416e-10
1.00155e-10
1.64834e-10
7.28313e-11
2.64955e-11
2.67692e-11
-1.55352e-11
3.2767e-10
1.49012e-10
7.44551e-11
-1.30142e-11
2.44479e-11
1.15411e-10
1.62172e-10
7.47234e-11
6.07447e-11
9.85304e-11
5.89661e-11
1.31819e-10
1.3686e-10
3.91235e-10
4.54573e-10
7.48701e-10
1.1505e-09
2.01881e-09
3.37387e-09
5.17007e-09
8.04456e-09
1.28669e-08
2.01897e-08
3.21517e-08
5.09527e-08
8.10366e-08
1.28552e-07
2.04074e-07
3.23632e-07
5.13534e-07
8.14473e-07
1.29137e-06
2.04727e-06
3.24567e-06
5.14377e-06
8.15248e-06
1.29163e-05
2.04641e-05
3.24114e-05
5.13334e-05
8.12742e-05
0.000128676
0.000203646
0.000322294
0.000509823
0.000806484
0.00127477
0.00201579
0.00318261
0.0050301
0.00790387
0.0124993
0.019545
0.0314255
9.43662e-12
-2.82514e-11
5.07092e-11
6.90988e-11
-5.14494e-11
4.23786e-12
2.58216e-11
-1.02558e-11
-1.624e-10
-2.77668e-11
8.3883e-11
1.53357e-10
1.453e-10
2.90278e-11
1.27349e-10
-2.88787e-11
5.28396e-11
4.80186e-11
1.53838e-10
8.23649e-11
1.02529e-11
-2.06271e-12
4.56174e-11
1.72943e-10
-4.88939e-11
-4.28063e-11
-7.03038e-11
-1.03571e-10
-3.38248e-11
-5.26702e-11
-2.98099e-12
4.39059e-12
-2.79569e-11
-7.19596e-11
-7.29583e-11
-9.9265e-11
4.55478e-11
-5.10195e-11
-9.53955e-11
4.87536e-11
1.10233e-10
7.603e-11
-1.12247e-11
2.71532e-11
-8.95405e-11
-7.03752e-11
1.86619e-11
4.12591e-11
1.12132e-11
-6.14442e-11
-6.99899e-11
-3.34381e-11
5.99807e-11
7.41843e-11
-9.0899e-11
-3.1483e-11
-7.58204e-11
-6.03041e-11
8.78235e-12
-4.87525e-11
-1.57178e-10
-3.8469e-11
5.48045e-11
-1.27252e-10
-1.17643e-10
3.44113e-12
-8.78657e-11
-5.72048e-11
-4.47069e-11
-7.58064e-11
-7.34271e-11
-4.81285e-11
-7.50205e-11
-5.65448e-11
6.96124e-11
1.55038e-10
1.30184e-10
6.8091e-13
6.26513e-11
7.01409e-11
9.97586e-11
-1.38543e-11
-1.2826e-11
-9.49446e-12
4.61761e-11
7.28147e-11
-9.02994e-11
2.42528e-11
-4.04517e-11
5.30224e-11
-5.70924e-11
-1.7e-13
-1.95335e-12
8.85476e-11
9.96088e-11
1.28207e-10
1.2848e-10
2.21033e-11
1.61012e-10
4.35293e-11
1.09499e-10
1.97758e-10
4.83073e-11
-1.4673e-11
-1.25059e-10
7.48435e-11
3.14424e-11
1.42231e-11
-3.75093e-11
-9.17046e-11
-7.59388e-11
-1.59786e-11
9.59631e-11
-5.98466e-11
-3.36866e-11
-7.79789e-11
-1.32137e-10
1.25535e-10
-7.80809e-11
-2.05002e-10
-2.48665e-10
-5.9158e-11
-6.6249e-11
-1.40015e-10
1.89889e-11
-4.20292e-11
1.40271e-10
1.97021e-10
1.42402e-10
1.482e-10
2.43608e-10
1.77775e-10
-5.13674e-12
-6.93008e-11
-3.41103e-11
2.02121e-11
1.06233e-10
-1.1625e-10
1.139e-11
-1.59219e-11
9.96244e-11
8.03264e-11
-3.28027e-11
6.80032e-11
2.16025e-10
3.47232e-11
3.05514e-11
5.56784e-11
1.09506e-11
-8.95343e-11
-9.26605e-11
-7.07598e-11
-3.26484e-11
-1.76521e-10
-6.29299e-11
-9.41586e-13
-5.58567e-11
1.2743e-11
-1.69052e-11
1.27327e-10
5.01397e-11
1.02281e-10
9.32211e-12
7.65849e-11
3.71133e-12
-7.56494e-11
-1.48142e-10
-2.34559e-11
-5.43551e-11
-1.50461e-10
-1.86184e-10
-1.93175e-11
-1.49e-10
-1.06928e-10
-4.2406e-11
-1.8402e-10
-9.58361e-11
-9.20661e-12
2.78896e-11
5.43643e-11
-6.03133e-11
-8.85261e-11
8.4044e-11
-4.3e-11
-5.61021e-11
-9.34233e-11
-1.52557e-10
-8.36248e-11
-1.11185e-10
-1.83222e-11
2.54915e-11
1.42103e-10
2.38958e-12
9.81345e-11
2.09497e-12
-5.98096e-11
-1.11601e-10
-4.60002e-11
-6.43756e-11
-7.25523e-11
-1.44561e-10
3.6191e-11
-4.92327e-11
8.5813e-11
-5.19155e-11
-6.13735e-11
1.18692e-10
8.82056e-11
1.87179e-10
2.0142e-10
2.4728e-10
7.19432e-11
3.01851e-11
6.58333e-11
-7.39738e-11
-6.69759e-12
-5.19093e-12
3.72941e-12
-1.88783e-12
-1.57618e-11
1.13221e-10
1.53094e-10
1.08706e-10
8.79094e-11
-4.59379e-12
-6.51385e-12
9.18741e-11
1.06855e-10
1.03521e-10
2.17669e-10
1.98021e-10
2.28107e-10
1.49026e-10
7.49977e-11
6.19998e-12
1.09382e-10
8.09427e-11
-8.45859e-11
1.57543e-10
1.47992e-10
4.86132e-11
1.57319e-10
8.43414e-11
1.63319e-10
3.98268e-11
2.85546e-10
7.23114e-11
1.19538e-10
3.67088e-11
1.14365e-11
6.5795e-11
-8.87086e-11
-1.13705e-11
1.89194e-10
1.24283e-10
1.79429e-10
1.62077e-10
2.52579e-11
1.65925e-10
2.10461e-10
3.24437e-10
5.86137e-10
1.21481e-09
1.79296e-09
2.60953e-09
4.16695e-09
6.53754e-09
1.03887e-08
1.634e-08
2.59983e-08
4.12079e-08