/*--------------------------------*- C++ -*----------------------------------*\
| =========                 |                                                 |
| \\      /  F ield         | OpenFOAM: The Open Source CFD Toolbox           |
|  \\    /   O peration     | Version:  2412                                  |
|   \\  /    A nd           | Website:  www.openfoam.com                      |
|    \\/     M anipulation  |                                                 |
\*---------------------------------------------------------------------------*/
FoamFile
{
    version     2.0;
    format      ascii;
    arch        "LSB;label=32;scalar=64";
    class       volScalarField;
    location    "0.002";
    object      ddt0(rho,e);
}
// * * * * * * * * * * * * * * * * * * * * * * * * * * * * * * * * * * * * * //

dimensions      [1 -1 -3 0 0 0 0];

internalField   nonuniform List<scalar> 
180000
(
-1.10555e-05
-8.27648e-06
3.46702e-05
-2.64715e-05
-1.35637e-05
4.87772e-05
2.19771e-05
-1.3256e-06
3.363e-05
-2.45763e-05
1.48028e-05
-3.88424e-06
-3.56731e-05
5.57243e-06
-2.35136e-05
-6.27521e-05
-2.92827e-05
-4.46778e-05
4.89768e-05
-6.06666e-06
1.08834e-05
5.09093e-05
-1.41751e-05
3.39578e-05
1.56853e-05
3.28561e-05
6.05897e-06
-1.775e-05
4.80786e-05
7.45987e-06
-5.71494e-05
-5.26508e-06
-6.89626e-05
-1.27243e-05
9.06643e-05
8.55568e-05
0.000100619
8.95263e-05
-4.85774e-06
-2.27519e-05
8.67615e-06
-0.000101435
-6.48437e-05
-1.94118e-05
-1.95105e-05
4.45405e-05
4.00225e-05
9.07444e-05
-2.53055e-06
-5.75131e-05
-1.55882e-05
-0.000102446
-8.62834e-05
-1.23066e-05
3.0796e-05
6.0453e-05
5.58073e-05
-9.32159e-06
-1.88946e-05
2.04767e-06
-6.94338e-05
-1.03716e-05
3.39967e-05
-4.51621e-05
-1.21463e-05
-1.29299e-05
-9.6413e-06
7.64608e-05
6.19118e-05
9.81344e-06
1.34466e-05
-3.61349e-05
-5.53426e-05
-1.15601e-05
2.63651e-06
2.0685e-05
5.29645e-05
-0.000101306
-5.80638e-05
-5.5601e-05
-1.77938e-05
5.1288e-05
-3.77341e-05
-6.0263e-06
-3.3145e-05
4.90736e-05
8.41793e-05
-2.53938e-05
-6.92232e-05
-9.64811e-05
-7.51624e-05
-5.35738e-07
-2.93442e-05
-3.59487e-05
9.4333e-05
0.000109583
5.68808e-05
-4.24844e-06
8.08004e-05
7.78633e-05
9.4835e-05
-1.00197e-05
4.74013e-06
2.62947e-05
-8.81022e-06
6.12926e-06
-8.71362e-06
-1.4273e-05
-5.72162e-06
-2.10837e-05
-5.35673e-05
3.83138e-05
6.43924e-05
-4.87416e-05
3.24061e-05
8.52449e-05
5.16808e-05
6.88899e-05
8.95743e-06
-3.3123e-05
-6.99273e-05
-1.91645e-05
-5.07011e-05
-2.88724e-05
-9.23208e-06
1.47389e-05
-8.32903e-06
2.23553e-05
5.14166e-06
-2.38422e-06
-1.65922e-05
7.03398e-06
-4.27425e-05
-1.62468e-05
4.51146e-05
5.56881e-05
3.88571e-05
3.08077e-05
4.8798e-05
1.93801e-05
-2.14548e-06
-6.04496e-08
2.65081e-05
-1.26936e-05
1.49102e-05
2.05159e-05
9.85785e-06
4.82901e-05
-2.06825e-05
-8.45178e-05
-4.73452e-05
-5.98763e-05
-1.57681e-05
-1.67435e-05
1.45668e-05
6.11714e-05
3.35866e-05
2.64076e-05
-9.32847e-06
-7.34754e-06
-5.01484e-05
-5.06581e-05
-6.5165e-05
-0.000112414
-8.83389e-06
-3.72726e-06
2.96242e-05
4.20852e-06
5.50597e-05
2.54487e-05
7.7272e-06
-3.11474e-05
2.00508e-05
3.82602e-05
1.41975e-05
4.95087e-05
3.17249e-05
9.20322e-05
2.77044e-05
-4.7851e-05
-2.81943e-06
-1.33616e-05
-2.674e-05
-4.69293e-06
-4.51686e-05
3.87632e-05
7.27561e-05
-3.67391e-05
-2.27378e-05
-6.59862e-05
-0.000103083
-0.000102208
6.22951e-06
7.7446e-05
2.50884e-05
-3.42905e-05
4.77976e-05
7.5443e-06
0.000105772
5.34949e-05
-0.000132508
-3.4804e-05
1.55274e-05
-3.19658e-05
-1.47892e-05
2.93657e-05
6.09553e-05
9.26963e-05
0.000103572
6.85355e-05
2.5929e-05
-5.71373e-05
-7.69481e-05
-5.75388e-05
-9.61008e-06
-1.91925e-05
-7.2118e-05
-3.14235e-05
-0.000132892
-8.12786e-05
-1.81153e-05
2.8995e-05
2.11277e-05
8.00115e-06
-2.70963e-05
6.33252e-05
2.71026e-05
1.57454e-05
-8.97322e-05
-5.4488e-05
-7.23895e-05
-2.60188e-05
-1.78549e-06
6.03977e-05
1.67944e-05
-7.10777e-07
-4.79502e-05
-7.41368e-05
3.6733e-05
1.37138e-05
-3.80448e-06
2.62682e-05
4.09745e-05
2.44416e-05
-7.64037e-06
-7.43246e-05
-0.000104772
-3.15338e-05
2.08285e-06
-3.49961e-05
1.45136e-05
0.000111802
0.000307809
0.00057495
0.000868698
0.00125039
0.00192642
0.00299685
0.00475773
0.0074322
0.011412
0.0177665
0.0277418
0.0433606
0.0677684
0.105719
0.165125
0.257899
0.403065
0.63
0.985534
1.54141
2.41322
3.77745
5.91923
9.27342
14.5437
22.8064
35.8015
56.1925
88.2923
138.716
218.178
343.137
540.291
850.752
1341.35
2115.33
3341.42
5281.91
8370.87
13290.9
21210
33991.6
55094.6
89924.1
150244
250089
431016
677387
-5.72653e-06
1.15017e-05
1.24256e-05
1.17783e-05
1.60688e-05
-5.27088e-05
-1.27609e-05
1.509e-06
-8.79083e-06
-4.49035e-05
1.64241e-05
6.39235e-05
-3.76474e-05
-8.34991e-05
-1.0058e-05
-2.0683e-05
2.25618e-05
3.29451e-05
2.49652e-05
3.58405e-05
-2.88581e-06
-3.22004e-05
-0.000101056
-5.61291e-05
1.17872e-05
-2.40622e-05
-1.56949e-05
5.79513e-06
3.85166e-05
0.000100225
3.90146e-05
2.55963e-05
-1.35221e-05
-3.91643e-05
-2.27409e-05
-4.29803e-05
2.96073e-05
6.30192e-05
0.000111681
2.51998e-05
-4.12732e-05
-1.22152e-05
3.46921e-06
1.71084e-07
-6.01116e-05
2.22511e-05
5.90255e-05
-4.13203e-05
-0.00011664
-8.50698e-05
-2.50536e-05
3.78801e-05
2.70312e-05
2.05539e-05
-7.95163e-06
2.01372e-05
4.8604e-05
-5.31738e-05
-4.59091e-05
4.56539e-05
5.36744e-05
-1.07668e-05
-5.79069e-05
-0.000100821
1.63571e-06
8.78003e-05
-1.29054e-05
-2.63018e-05
-3.25611e-05
2.81945e-05
0.000108309
4.64247e-05
1.26453e-05
8.34862e-05
9.57863e-05
-6.0578e-05
-4.92782e-05
-6.18902e-05
-4.77352e-05
-2.99495e-05
2.293e-05
3.32467e-05
-1.05176e-05
-2.07963e-05
3.41402e-06
2.73189e-05
2.28985e-05
-2.22969e-05
-0.00012718
2.2674e-05
-2.65792e-05
4.09306e-07
2.05991e-06
-9.49597e-05
-1.4443e-06
-5.32034e-05
-2.31864e-05
2.38803e-05
2.67939e-05
-1.10716e-05
0.000105951
6.82797e-05
-2.30941e-05
1.8061e-05
7.56106e-05
-1.01985e-05
-1.73652e-05
-0.000151819
-0.000106637
8.60708e-06
6.33916e-05
4.39715e-05
0.000101378
1.6477e-05
2.61067e-06
-7.95693e-05
-1.76367e-05
6.20956e-05
8.813e-06
-5.77009e-05
-2.36978e-05
-2.68768e-05
-5.48466e-05
2.66293e-05
2.15303e-05
1.5237e-05
7.0242e-06
-8.21842e-05
-4.33894e-05
-2.65156e-05
6.28211e-05
1.96399e-05
8.33902e-05
4.24166e-05
-5.71129e-06
-1.61613e-05
0.000109136
0.000122554
8.08886e-05
2.47643e-06
-5.26836e-05
-3.45998e-05
-5.83133e-05
-2.4824e-05
-7.03301e-05
-7.29047e-05
3.3204e-06
-7.08378e-06
8.41158e-05
-2.82703e-05
3.15385e-05
0.000119612
3.75468e-05
-3.19729e-05
-6.82044e-05
-0.000112524
-6.86915e-05
-3.8092e-05
4.19254e-05
2.46804e-05
-4.18503e-05
-5.07039e-05
0.00011141
8.10318e-05
9.03415e-05
-1.88631e-06
-1.31988e-05
-6.44574e-06
-2.99893e-05
-1.69192e-05
3.92604e-05
-4.06624e-05
-0.000168928
7.36022e-05
6.24669e-05
5.95169e-05
2.73623e-05
4.92509e-05
3.41254e-05
-6.74892e-06
-0.000151365
2.69032e-05
7.92334e-05
7.01487e-05
3.34747e-05
7.65532e-06
3.18864e-06
-4.80575e-05
9.57472e-05
7.72269e-06
-9.67686e-05
-2.43318e-05
6.70414e-05
4.06277e-05
-4.93363e-05
4.72988e-05
2.37127e-05
-0.000102789
-0.000108011
-4.54776e-05
1.18711e-05
-1.62913e-05
-7.15003e-06
7.76476e-06
3.97798e-05
6.96916e-05
0.000105391
6.0981e-05
1.21051e-05
1.76594e-05
3.38311e-05
-8.14579e-05
-0.000125173
1.44514e-05
0.00013899
2.86049e-05
7.85191e-05
-2.13123e-05
1.50156e-05
2.42329e-05
-3.79143e-05
-0.000116566
-6.38433e-05
-1.05452e-05
-0.00013274
-0.000101918
3.20749e-05
2.44451e-05
-4.39919e-05
7.72427e-05
7.02142e-05
5.40945e-05
5.92589e-05
8.97612e-06
6.94422e-05
5.65451e-05
7.57186e-05
-3.49982e-05
5.95084e-05
-1.93696e-05
2.53412e-05
8.30219e-05
9.11482e-05
-7.98813e-05
-0.000100257
-4.81087e-05
-3.04727e-05
-2.23178e-05
-4.102e-05
2.49164e-05
0.000137606
0.000297866
0.000371563
0.000533651
0.000810202
0.00121447
0.00182413
0.00295739
0.00468433
0.00714589
0.0110111
0.0171184
0.0266616
0.0415813
0.0649588
0.101307
0.157973
0.246523
0.385224
0.601416
0.939772
1.46812
2.29605
3.58945
5.61684
8.78735
13.7608
21.5434
33.7599
52.8905
82.9406
130.029
204.044
320.11
502.68
789.2
1240.3
1949.01
3066.44
4825.35
7606.77
12002.1
19000.3
30150.2
48185.8
77320.9
125967
204681
342337
537769
1.21254e-05
-3.04971e-05
1.85597e-05
-1.52481e-05
-1.73356e-05
-2.92197e-06
-4.92338e-05
-2.72804e-05
9.46695e-05
2.96943e-05
5.79781e-05
-3.51743e-05
-3.23215e-05
3.68823e-05
-9.1638e-06
-2.90002e-05
-2.69867e-05
-3.11373e-05
-3.09525e-05
2.01216e-06
6.47851e-05
2.77909e-06
-8.20385e-05
-2.52656e-05
-5.69751e-05
9.72202e-05
2.74925e-05
6.55653e-05
9.92509e-05
1.99668e-05
-6.04003e-05
-7.80183e-05
-4.15834e-05
2.04286e-06
4.56781e-05
2.94655e-05
-1.64421e-05
-1.29442e-05
1.40563e-05
4.877e-05
2.74348e-05
-8.51778e-05
-3.74316e-05
-3.73899e-05
4.84144e-05
8.01809e-05
-9.41723e-05
-8.0563e-05
2.45929e-05
0.000111162
5.50117e-05
2.62337e-05
5.4203e-07
-3.71569e-05
-6.64944e-05
-1.25583e-05
-1.08293e-05
2.91809e-05
1.91893e-05
7.91917e-05
4.4522e-05
2.80177e-05
5.00181e-05
5.79036e-05
1.97169e-05
-9.6892e-05
-0.000129731
-5.6393e-05
5.69428e-05
7.2724e-05
4.42424e-05
4.15693e-05
0.000112452
1.23646e-05
3.8356e-06
-9.87849e-05
-9.7532e-05
-6.55519e-05
-5.09916e-05
1.5224e-05
4.77858e-06
7.5726e-05
4.24489e-05
2.42801e-05
1.52412e-05
-5.20567e-06
-2.54201e-05
-2.59309e-05
-3.45736e-05
-3.32118e-05
5.68586e-06
-6.23884e-05
-4.00054e-05
5.25696e-05
-3.64578e-05
-3.87544e-05
2.93657e-05
-4.80389e-05
3.7116e-05
-1.83557e-05
6.22177e-06
-1.87999e-05
-0.000125616
-3.41293e-05
9.89243e-05
0.000119927
5.15788e-05
8.42064e-05
9.4671e-05
3.84952e-05
8.8862e-05
-3.7859e-05
-0.00013551
2.29353e-05
4.7615e-06
1.11749e-05
-1.30977e-05
-8.24352e-05
-1.40427e-06
-1.11872e-05
-1.27818e-05
-9.50547e-05
-2.32699e-06
-9.8195e-06
-2.91341e-05
-4.4861e-05
5.26839e-05
2.06268e-05
2.87149e-05
4.31932e-05
5.2606e-05
2.18739e-05
4.80385e-05
2.01002e-05
5.821e-05
0.000105261
5.66533e-06
1.05101e-05
-4.02085e-05
-1.11161e-07
3.35222e-05
-0.000104853
-0.000195183
-6.34723e-05
5.29497e-05
2.00505e-05
3.80947e-05
6.21146e-05
-1.76237e-05
-2.62348e-06
-3.62266e-06
-7.51183e-05
1.81433e-05
3.25822e-05
-3.3554e-05
-4.63798e-06
2.74006e-05
-0.000100538
-7.66033e-05
-3.11682e-05
7.1973e-06
-4.30268e-06
2.20441e-05
1.74626e-05
7.23503e-06
0.000132328
8.49859e-05
9.85725e-06
-2.3641e-05
8.06648e-05
3.88846e-05
-1.49538e-05
5.76754e-05
1.73037e-05
-4.538e-05
-4.16977e-05
4.7206e-07
2.37368e-05
0.000172179
0.000128666
6.38313e-05
1.35373e-05
1.7812e-06
-4.84103e-05
-0.000147077
-0.000142682
-6.33354e-05
-6.1813e-06
-7.29609e-05
2.75057e-05
2.61929e-05
-3.46912e-05
1.59523e-05
3.78228e-05
0.000113728
0.000114844
-4.22621e-06
-1.60555e-05
2.51221e-05
1.76145e-05
-5.76189e-05
6.18272e-05
7.03501e-06
-3.76899e-05
-6.64156e-05
-4.2737e-05
-8.68802e-05
-6.56466e-05
1.31767e-05
-3.71321e-05
1.03567e-06
1.20062e-05
2.68044e-05
0.000101417
5.37539e-05
-1.12719e-05
-3.66587e-05
-2.36094e-05
8.45994e-06
-3.55093e-05
-4.51404e-05
-5.54652e-07
-1.86258e-05
-7.7562e-05
3.70079e-07
4.47307e-05
-2.29638e-05
-5.35144e-06
9.21192e-06
-2.99274e-05
1.52958e-05
0.000149676
6.21184e-05
-1.71516e-05
1.63788e-05
1.45047e-05
6.67821e-05
3.51671e-05
3.84792e-05
4.88657e-05
1.94016e-05
2.82674e-05
-7.45161e-05
-3.58405e-05
1.25473e-05
-2.52158e-05
-5.255e-05
-3.77514e-05
0.000120051
9.36779e-05
4.61136e-05
3.45091e-05
0.000205536
0.000495665
0.000782424
0.00117511
0.00177516
0.00272468
0.0042346
0.00653568
0.0102131
0.0159506
0.0247844
0.0384508
0.0598184
0.0932369
0.145359
0.226335
0.352922
0.550256
0.858455
1.33866
2.08949
3.26029
5.09147
7.94834
12.4189
19.3966
30.3206
47.3786
74.0945
115.829
181.217
283.404
443.564
693.957
1086.59
1700.75
2664.55
4173.7
6546.19
10269.1
16148.3
25414.1
40218.5
63688.8
102282
162922
269671
417376
1.51025e-05
5.65186e-06
-3.96488e-05
-3.16146e-05
1.12007e-05
4.06325e-05
4.88958e-06
-1.84707e-05
-1.16559e-05
1.03735e-05
-7.53224e-05
-1.26563e-05
5.8365e-05
5.10627e-05
1.5872e-05
-2.08619e-05
-5.33964e-05
-5.06205e-06
7.19362e-05
5.32577e-05
-2.00032e-05
-4.59066e-05
-2.55364e-05
-1.97943e-05
-2.76474e-05
-4.3702e-05
-5.07312e-06
-9.97308e-06
-3.81467e-05
-4.72118e-05
3.23663e-05
5.2287e-06
3.17267e-05
6.48865e-05
-3.97724e-05
-4.25632e-05
-3.34155e-05
1.98905e-06
2.29763e-05
0.000102763
-1.1401e-05
-9.27981e-05
-2.98549e-05
4.01276e-05
6.18545e-05
4.74246e-05
-8.27799e-05
-1.05504e-05
5.30513e-05
-1.33546e-06
-9.86638e-05
-8.13709e-05
4.01948e-05
-8.24615e-06
7.82847e-05
8.31794e-06
-4.28689e-05
-0.000100183
-6.86261e-05
4.02123e-05
1.88878e-05
-5.56945e-05
-1.03042e-05
1.21482e-05
9.20315e-05
0.000107893
9.20881e-05
-5.12728e-05
-3.76394e-05
1.3574e-05
-4.33095e-05
-9.46877e-05
4.805e-05
-3.02512e-05
3.54481e-05
8.15e-05
9.88022e-05
0.000141477
-4.81495e-06
-3.25118e-05
-2.29731e-05
2.04527e-05
1.23553e-05
-1.72615e-05
-3.89788e-05
1.61251e-05
3.8314e-05
-2.83797e-05
-0.000107881
-0.00012558
-1.20423e-07
5.42282e-05
5.43065e-05
4.31652e-05
-1.39267e-05
-3.00215e-06
5.75797e-05
2.47941e-05
3.27236e-05
3.48842e-05
-2.88719e-05
-6.34018e-05
4.96456e-05
4.51986e-05
-7.61443e-07
-6.89552e-06
-7.41149e-05
6.13434e-06
2.38976e-05
-2.21219e-05
3.28733e-05
-1.42927e-05
-4.01455e-06
3.13976e-05
1.77587e-05
-1.00107e-06
6.68652e-05
-3.99209e-05
-4.95614e-05
-5.19705e-05
-6.7757e-05
-2.58508e-05
4.38878e-05
-2.17819e-05
8.95711e-06
2.93977e-05
2.06513e-05
1.56236e-05
7.79707e-05
0.000108902
0.000147528
0.000110084
2.69906e-05
-2.34708e-06
-4.54412e-05
-0.000104114
-0.000172204
-8.09908e-05
-2.76935e-05
1.18054e-05
8.35333e-05
3.61553e-05
9.32819e-05
2.27861e-05
-4.32177e-05
-1.81155e-05
-6.69409e-05
2.64386e-05
-6.33099e-05
-6.54634e-05
-6.41059e-05
8.13931e-05
0.000102771
7.20402e-05
4.30503e-05
-3.33805e-06
-2.25364e-05
-7.30953e-05
-0.000106604
-3.80897e-05
-5.47027e-05
-3.78858e-06
9.48828e-05
6.78927e-05
-7.37427e-07
-4.30732e-05
4.75717e-06
2.2099e-05
5.86734e-05
0.000163847
0.000149575
3.15867e-05
-1.26198e-06
1.48191e-05
-3.89896e-05
6.22994e-05
8.59425e-05
9.83987e-05
9.68672e-05
1.88836e-05
-3.99166e-05
-0.00012923
-4.26781e-05
-3.6152e-05
-8.82215e-05
-7.31631e-06
4.4535e-06
-7.09496e-05
-5.27522e-05
-4.99607e-05
-2.76628e-05
-2.12491e-05
-4.84409e-05
-6.40627e-05
-6.03162e-05
6.12614e-05
7.12399e-05
8.5756e-05
5.33872e-05
8.18035e-05
5.79341e-05
0.000147786
8.47175e-05
2.00737e-05
-2.70528e-05
-2.39876e-05
-1.68538e-05
-2.08414e-05
-0.000117482
-0.000140782
-7.71501e-05
-5.65786e-05
-2.83017e-05
1.03354e-05
-2.27088e-05
-7.64172e-05
-2.12209e-06
2.11268e-05
-1.88248e-05
-3.25087e-05
9.68839e-05
0.000135601
0.000164889
7.21975e-05
7.48682e-05
2.96392e-05
1.31979e-05
-4.54677e-05
6.76641e-07
5.88018e-05
2.19362e-05
-0.00011066
-0.000129598
1.68111e-05
6.91453e-05
-5.01632e-06
3.2727e-05
5.26127e-05
0.000120963
3.20348e-05
4.74798e-05
0.000133863
1.00492e-05
1.40422e-05
-8.82683e-06
3.21498e-05
-4.89393e-06
-4.12889e-05
2.79881e-05
1.34578e-05
7.42623e-05
0.000172513
0.000264328
0.000470096
0.000702962
0.00105463
0.0015755
0.00237056
0.00377851
0.00585956
0.0092309
0.0143078
0.0220212
0.0342963
0.0533362
0.0829291
0.128865
0.200446
0.311931
0.485232
0.755529
1.17564
1.83101
2.85053
4.441
6.91578
10.7783
16.7899
26.1743
40.7842
63.5956
99.1156
154.583
240.966
375.878
586.01
914.238
1425.57
2224.55
3469.76
5417.47
8455.92
13223
20672.8
32466.5
50904.8
80878.3
126897
207975
316858
1.66747e-05
-2.03589e-05
-2.25289e-06
-2.76854e-05
4.07875e-05
4.28098e-05
-4.56279e-05
-2.94007e-06
1.48301e-05
-9.8111e-06
5.74813e-05
4.65912e-05
-3.43861e-05
-3.7985e-05
-2.38557e-05
1.09768e-05
9.21293e-06
1.20985e-05
-5.97046e-05
-6.57959e-05
-9.88724e-06
2.42156e-05
-1.42778e-05
-3.84709e-05
4.85338e-06
8.75282e-05
6.91837e-05
4.27439e-05
6.54201e-05
-6.69059e-05
-0.00012002
-5.13593e-05
-4.63766e-05
9.68514e-06
-3.86895e-06
5.67648e-05
4.05374e-05
8.70944e-05
4.97807e-05
-4.5167e-05
-2.61146e-05
2.46944e-05
3.61281e-05
-7.91727e-06
3.89565e-05
3.5835e-05
-3.28628e-05
-9.01819e-05
-3.19042e-05
1.34136e-06
-4.75348e-05
-2.45309e-05
1.26917e-05
-4.29508e-05
-3.99519e-05
2.16902e-05
6.76921e-05
5.57389e-05
-1.42312e-05
-6.9868e-06
1.14701e-05
1.75946e-05
-5.30467e-05
-0.000129816
-0.000148846
2.88782e-05
2.44811e-05
3.60232e-05
1.23285e-05
8.72175e-05
7.63721e-05
1.43375e-05
0.000142711
8.99985e-05
2.35885e-05
-1.05705e-05
4.73183e-06
8.60151e-05
-7.29774e-05
-0.000104984
-9.18851e-05
-0.000116748
-1.17153e-05
-8.10399e-05
-1.55074e-05
1.25216e-06
7.41627e-05
6.74566e-05
9.34451e-05
7.46323e-05
2.00386e-05
1.53535e-05
-5.24521e-06
-9.58991e-07
-3.3832e-06
-6.06282e-06
-2.0318e-05
-5.68239e-05
7.178e-06
-6.7488e-05
-4.93405e-05
2.01253e-05
-7.09526e-06
-7.23928e-06
1.42793e-05
0.000111695
3.07535e-05
4.41821e-05
2.16118e-05
3.44723e-06
4.48728e-05
-4.57507e-05
4.17294e-06
5.11055e-05
7.03251e-05
-7.83271e-05
-6.38864e-05
4.81071e-05
-4.35913e-05
-3.51476e-05
7.95049e-05
6.5202e-06
5.4335e-05
0.000100343
7.51932e-05
0.000106176
1.78281e-05
-4.39133e-05
-7.79864e-05
-5.42984e-06
-4.1727e-05
-4.80008e-05
-8.54805e-05
-1.0713e-05
4.02965e-06
2.09278e-05
7.57261e-06
-8.1005e-05
1.09138e-05
-9.94322e-05
-5.10315e-05
3.63756e-05
7.67117e-05
6.47511e-05
2.0453e-05
5.3955e-06
9.50213e-05
0.000106194
2.01101e-05
-4.46019e-05
-1.6689e-05
-9.55951e-05
3.63617e-06
-6.69601e-05
1.20508e-05
-1.91547e-05
-3.37528e-05
-7.18144e-05
-7.26659e-06
-5.0331e-06
-1.94007e-05
-5.93176e-05
5.50362e-05
2.70954e-06
2.95064e-06
1.32299e-05
8.28776e-05
0.000148022
0.000105483
3.7183e-05
0.000118205
2.49731e-05
-6.10052e-05
1.42182e-05
6.76278e-05
-2.97523e-09
-0.00013418
-3.61474e-05
2.029e-05
-7.24219e-05
-3.31573e-05
-8.69698e-06
-6.6716e-05
-2.92463e-05
-6.2524e-05
-7.02306e-05
4.83745e-05
-1.17697e-05
-8.11783e-05
-1.58355e-06
1.73822e-05
9.13489e-06
2.58834e-05
2.23363e-05
-1.99469e-05
-1.30796e-05
6.04669e-05
6.84156e-05
1.71369e-05
2.4118e-05
2.20674e-05
-1.79846e-05
-6.63536e-05
-5.26291e-05
-6.38879e-06
-4.66447e-05
-5.69071e-05
-2.4943e-05
0.000101125
3.68053e-05
-2.79839e-05
-5.56279e-05
6.3969e-06
1.79368e-05
1.09904e-05
4.31885e-05
1.36275e-05
1.88172e-05
-1.09543e-05
4.55816e-05
9.1882e-05
-3.46799e-05
-2.47168e-05
-2.64577e-05
6.6903e-05
-4.25081e-05
-2.93614e-05
-2.05469e-05
3.13037e-05
2.77202e-06
-2.4692e-05
-2.80395e-05
-3.5802e-05
-5.16747e-05
-1.85039e-05
0.000117627
0.000165873
5.38228e-05
6.22205e-05
2.32731e-05
-5.25333e-05
-8.94178e-05
3.45096e-05
5.56757e-05
6.63931e-05
9.13478e-05
6.06957e-05
4.56485e-05
3.37428e-05
-4.05604e-06
-1.21517e-05
0.000235772
0.000188903
0.000336714
0.000574517
0.000814716
0.00140959
0.00211457
0.00324585
0.00507434
0.00786471
0.0123153
0.0191261
0.0296385
0.0459821
0.0714757
0.110788
0.171939
0.267063
0.414533
0.644194
1.00037
1.55462
2.41459
3.75295
5.83041
9.06417
14.084
21.899
34.0319
52.9217
82.2507
127.915
198.817
309.21
480.613
747.482
1161.85
1807.1
2809.1
4370.38
6795.67
10583.1
16467.7
25725.9
40064.7
63196
98105.1
159527
239498
-1.94201e-05
-7.54511e-06
6.89843e-05
1.93832e-05
9.25045e-07
-2.22124e-05
-3.60309e-05
1.98828e-05
9.46409e-05
-9.28603e-05
-9.87072e-05
-1.29438e-05
1.28141e-05
3.55262e-05
-2.39697e-05
-6.48812e-05
2.83999e-05
2.7706e-05
4.48804e-05
2.01698e-05
2.63353e-06
6.47736e-05
-1.21312e-05
6.78397e-05
5.4632e-05
2.50426e-05
-7.55332e-05
-0.000113909
-8.27223e-06
0.000101058
-1.78874e-05
4.05852e-05
7.33221e-05
1.37679e-05
1.25147e-05
-9.2303e-05
-6.41374e-05
-4.214e-05
3.19808e-05
3.04347e-05
3.24359e-05
5.16319e-05
4.29378e-05
6.15925e-05
-1.25337e-05
-0.000131518
-1.93144e-05
-4.00938e-05
-5.61243e-05
1.21142e-05
8.46193e-05
1.70521e-05
1.0919e-05
-2.7401e-05
-2.55765e-05
3.52001e-05
-2.87737e-05
0.000105489
-2.88776e-05
-3.77681e-05
0.000105658
2.87844e-05
-0.000116145
7.87662e-06
-1.87105e-05
0.000131257
9.88628e-05
1.58828e-05
-2.28071e-05
-2.4303e-05
2.92152e-05
-9.27152e-05
-0.000118946
-3.13159e-06
-6.9076e-05
-1.67558e-05
-5.05176e-07
-0.000109493
-0.000107434
6.88719e-06
2.81141e-05
5.64168e-05
5.77789e-05
0.000130918
7.61063e-05
1.87372e-05
-4.94491e-05
-7.78316e-05
-9.69975e-05
-7.94066e-05
-3.24032e-05
0.000120656
2.77147e-05
-2.31805e-06
6.17843e-05
6.55208e-05
4.75974e-05
1.00347e-05
-6.6093e-05
-6.10631e-05
1.01215e-05
-1.1834e-06
-5.36857e-05
-4.56635e-05
-1.75885e-05
-2.60874e-05
-3.54853e-05
-1.99925e-05
9.62913e-05
0.000116024
6.88093e-05
1.28894e-05
8.91829e-05
7.25194e-05
-9.17739e-06
-2.6015e-05
1.44349e-05
4.80117e-05
3.94121e-05
2.84468e-05
5.26846e-05
5.36454e-06
-4.50531e-05
-7.70681e-05
-2.69526e-05
-0.00011519
-0.000112198
-6.54501e-05
4.66537e-05
-5.1446e-06
-2.63419e-06
0.000103289
3.77405e-05
-2.85758e-05
-1.5522e-05
4.97299e-06
0.000152721
4.59483e-05
-5.75133e-05
1.41544e-05
2.48715e-05
3.73495e-06
3.27292e-05
-2.31963e-06
3.35621e-06
9.40258e-05
1.5926e-05
1.8157e-05
3.10187e-05
-3.11411e-06
9.96799e-05
-3.99608e-05
-5.33744e-05
-5.7875e-05
-0.000125733
-0.000115875
-8.36852e-05
-1.78455e-05
-3.58305e-05
-7.22166e-06
3.37113e-06
-1.84377e-06
1.20032e-05
7.14062e-05
7.05032e-05
8.62545e-05
0.000118081
4.75396e-05
-2.33895e-05
-2.17553e-05
4.49325e-06
-7.83042e-06
4.8539e-05
5.75e-05
-6.39283e-05
-3.05423e-05
-7.80291e-06
-2.44591e-05
-0.000124972
-8.99174e-05
6.37382e-05
7.35381e-05
8.76078e-05
2.13328e-06
-1.16311e-05
-6.71001e-06
-9.89797e-05
-9.10206e-05
2.66029e-05
4.7262e-05
3.34582e-05
6.04436e-05
6.77925e-05
8.38284e-05
0.000112884
0.000143159
6.01318e-05
-4.23449e-05
2.05847e-05
-3.74494e-05
1.40622e-05
2.90347e-05
-1.84017e-05
2.85822e-05
-2.42947e-05
8.31767e-05
5.44434e-05
-3.35465e-05
4.24989e-05
5.78106e-06
-1.68416e-05
-0.000162835
-0.000107649
-5.67364e-05
-3.36102e-05
-1.07274e-05
1.09438e-05
4.05896e-05
1.60819e-06
-4.42432e-06
5.95813e-05
-9.97843e-05
-7.22348e-05
-2.23668e-05
-9.51999e-05
2.0759e-05
-1.96044e-05
-4.92871e-06
1.72918e-05
1.64814e-07
6.16687e-05
0.000134514
7.72685e-05
0.000137607
0.00011891
-3.52254e-05
-7.37529e-05
2.86014e-05
1.70884e-05
-1.91814e-05
-3.80253e-05
-4.32124e-05
-8.56947e-05
-0.000103638
3.84106e-05
0.000103118
1.61708e-05
-3.26198e-05
0.00010818
0.000110899
3.76571e-05
0.000164247
0.000210668
0.000315711
0.000427628
0.000749892
0.00119522
0.0017584
0.00279294
0.00434971
0.0066596
0.0104051
0.016095
0.0248734
0.0386527
0.0597998
0.092658
0.143583
0.222565
0.345002
0.53491
0.828962
1.28553
1.99265
3.09069
4.79107
7.4319
11.5217
17.8738
27.7119
42.9924
66.659
103.417
160.349
248.77
385.713
598.393
927.772
1439.35
2231.63
3462.74
5369.34
8337.28
12930.5
20127.4
31203.6
48978.5
75477.5
122002
180954
-4.27165e-06
1.1708e-05
2.6842e-05
1.81133e-05
-1.19172e-05
-7.57959e-05
-4.37384e-05
7.53396e-05
3.12413e-05
2.21612e-06
-2.44556e-06
-3.10256e-05
2.88919e-06
-4.16428e-05
-2.33977e-05
5.36026e-05
3.01649e-06
1.39046e-05
6.31541e-06
8.68719e-06
-4.93507e-05
2.53994e-05
2.11093e-05
-0.000105887
-8.05211e-05
-8.99996e-06
6.28508e-05
2.31921e-05
1.15987e-05
1.70463e-05
-1.55539e-06
4.69421e-05
1.35839e-05
-3.36673e-05
5.83639e-05
4.30444e-05
0.00010373
8.10369e-05
7.44829e-05
5.42941e-06
-4.47106e-05
-4.48762e-05
-0.000118972
-2.93468e-05
-9.493e-05
-4.04526e-05
6.51272e-05
-4.62406e-06
-4.65513e-05
-0.000128198
6.58238e-05
0.000166136
5.59548e-05
8.13628e-05
4.93241e-05
-6.404e-05
-4.17366e-05
-0.00012384
3.45731e-05
6.7685e-05
4.24544e-05
0.000116402
6.99209e-05
-4.11321e-06
-7.78953e-05
-4.03688e-05
-7.92165e-05
9.4032e-07
9.26801e-06
2.89978e-05
-5.99844e-05
-7.47088e-05
-5.33027e-05
-5.10793e-06
2.24317e-05
-3.52017e-06
1.92402e-05
9.6581e-05
7.71007e-05
1.76093e-05
-0.000113034
4.48165e-06
-7.73913e-05
-0.000106546
-1.14217e-05
2.87512e-06
-4.89227e-05
-3.62149e-05
-4.10749e-05
-4.8251e-06
6.35284e-05
7.66125e-05
6.68345e-06
4.42365e-05
5.73787e-05
-1.01172e-05
-3.09715e-05
3.69064e-05
-1.37481e-05
-2.53006e-05
-4.55575e-05
-3.87211e-06
1.85935e-05
0.00010454
3.16071e-05
-4.99998e-06
4.93114e-05
-1.14354e-05
3.76175e-05
3.96857e-05
4.27023e-05
-3.59749e-05
-5.77905e-05
-7.81802e-07
-3.74735e-05
-9.17112e-06
2.82233e-05
6.95317e-05
4.31687e-06
-7.32404e-06
-6.04622e-05
-5.37192e-05
-1.65636e-05
-3.74961e-05
4.15596e-06
5.8295e-05
7.51423e-05
9.60794e-05
2.13025e-05
-5.14819e-05
-6.77418e-05
-6.84325e-05
-6.86905e-05
-4.86711e-05
-3.30096e-06
-1.85088e-05
-5.67637e-06
-1.96097e-05
4.62805e-05
2.36079e-05
7.80819e-06
-3.38664e-05
-6.49692e-06
-4.30016e-05
5.64477e-05
0.000138153
2.05777e-05
-2.02621e-05
5.44038e-05
5.32424e-05
5.38383e-06
-1.4873e-05
-2.23177e-06
-3.55302e-05
-4.16503e-05
-2.58409e-05
-2.57747e-05
9.24799e-06
3.02655e-05
-6.3471e-05
2.2839e-06
-6.29214e-05
-7.99721e-05
-8.86488e-05
-4.85342e-05
3.36813e-06
-5.52058e-05
-2.49977e-06
-1.96505e-05
9.48035e-05
0.000136904
5.65397e-05
-2.83915e-05
4.41877e-05
1.84727e-05
9.03724e-08
1.87952e-05
6.12578e-05
7.86534e-05
-2.76214e-05
-1.56097e-05
-3.21883e-05
8.34169e-06
-5.57533e-05
-4.37948e-05
-1.21391e-07
-6.94319e-05
-2.00654e-05
4.7262e-05
5.98581e-05
0.00010558
2.58917e-05
-4.80973e-05
-3.84075e-05
-1.14638e-05
5.29771e-05
0.000145517
8.1786e-05
0.000139771
0.000130826
0.000111301
9.83536e-05
4.8749e-05
2.61423e-05
-5.75801e-05
-6.11526e-05
-4.8809e-05
1.33127e-05
-3.89907e-05
-3.02341e-05
2.73698e-05
6.47329e-05
-5.77727e-05
-6.84931e-05
-1.70818e-05
-4.24943e-06
-5.7204e-05
-3.87895e-05
-3.994e-05
-5.50408e-05
2.27462e-05
5.12047e-06
2.93959e-05
3.21715e-05
2.85257e-05
1.01259e-05
-3.33549e-05
4.32244e-06
-8.6946e-06
6.28971e-05
1.58943e-05
-2.15534e-05
-2.91563e-05
-1.27769e-05
2.68837e-05
9.75677e-05
3.93285e-05
2.49048e-05
-2.86087e-05
-6.09324e-05
-9.16083e-06
-9.07729e-05
-0.000109274
-0.000120846
-1.08574e-05
9.75362e-05
3.02922e-05
9.76825e-05
3.15499e-05
8.43123e-05
5.44009e-05
7.31981e-05
0.000264814
0.000281246
0.00042892
0.000579624
0.000890466
0.00144774
0.00235317
0.00360514
0.00553146
0.00855433
0.0132918
0.0204987
0.0316788
0.0488882
0.0757073
0.117214
0.181378
0.280492
0.434152
0.671727
1.03994
1.60894
2.49101
3.85447
5.96768
9.2342
14.2978
22.1251
34.2584
53.0143
82.088
127.031
196.696
304.383
471.304
729.326
1129.3
1747.56
2706.33
4188.1
6489.61
10042.2
15593.3
24101.1
37707.2
57819
93052.3
136745
1.60594e-05
-3.95947e-05
-7.56433e-06
1.08624e-05
-8.88166e-06
3.14148e-05
-1.32539e-05
3.19333e-06
2.78101e-05
-4.42212e-05
-1.54239e-06
1.61014e-05
3.72054e-05
3.9161e-05
3.15023e-05
-6.9418e-05
-4.18676e-05
-2.09338e-05
-4.1137e-06
3.76632e-06
3.29258e-05
1.19484e-05
-2.55319e-05
-1.30617e-05
-6.49976e-06
-1.74827e-05
6.67479e-05
4.05953e-05
-1.01368e-05
2.69945e-05
7.2213e-05
8.31661e-05
0.000117797
4.19716e-05
-0.000132585
-0.000189156
-5.76536e-05
1.93502e-05
-3.87287e-05
-9.94166e-05
3.77345e-05
7.04397e-05
4.15478e-05
4.51385e-05
8.70189e-05
5.25073e-05
-3.63619e-05
-6.00689e-05
-4.76381e-05
-2.20507e-07
-4.20051e-06
2.89511e-05
3.17538e-05
4.42074e-05
-6.7159e-05
1.48661e-05
2.42329e-06
7.90153e-05
4.22463e-05
7.84456e-06
-2.78739e-05
-6.8017e-05
-1.41027e-05
4.36072e-05
7.48892e-05
4.84543e-05
1.79225e-05
-2.57521e-05
5.80645e-05
-7.29339e-06
-5.84282e-05
-8.87272e-06
-4.70627e-05
4.05722e-06
-3.47949e-05
3.06716e-05
2.34523e-05
9.62723e-06
8.6709e-05
1.9543e-05
-0.000104702
-0.000116187
-0.000151222
-7.40912e-05
-5.43988e-05
-5.52908e-06
3.43026e-05
5.39712e-05
0.00013983
0.000149098
9.4555e-05
0.000116083
-1.89065e-05
-0.000112576
-0.000140856
-0.000102287
-0.000118287
1.40625e-05
4.37204e-05
4.54655e-05
7.35627e-05
5.25666e-05
4.16335e-05
2.9347e-05
-5.94908e-05
-5.0849e-05
-5.90353e-05
-2.17089e-05
-2.57784e-05
-2.58314e-06
0.000145937
2.89642e-07
-2.55024e-05
9.5772e-05
7.07349e-05
-6.34212e-06
-4.50801e-05
-5.36748e-05
3.94879e-06
7.69567e-06
3.77379e-05
1.03989e-05
2.6899e-05
-1.62471e-05
1.04824e-05
-2.5779e-05
-0.000109324
6.73726e-06
9.10594e-05
5.97791e-05
0.000133738
5.7568e-05
-1.18776e-05
-5.77254e-05
-5.23549e-05
-5.16214e-05
-3.18593e-05
-2.97846e-05
2.3166e-06
-1.14589e-05
2.07763e-05
-9.55937e-05
-3.02907e-05
-3.87087e-05
3.18358e-05
4.77765e-05
-3.71784e-05
-2.24983e-06
1.52615e-05
0.0001163
0.000142174
1.51967e-05
1.12535e-06
6.64407e-05
-3.01127e-05
-1.31516e-05
3.03469e-05
-7.30441e-05
1.69524e-05
3.41382e-07
-8.94128e-05
-5.50332e-05
-8.21496e-05
-6.57371e-05
-4.19035e-05
-2.71429e-05
3.22372e-05
2.58829e-06
-1.2577e-05
2.05664e-06
2.80776e-05
-2.08465e-05
1.63966e-05
-2.61711e-05
4.84605e-05
9.94776e-06
-3.12391e-05
3.3219e-05
-1.21529e-05
2.75855e-06
5.33772e-05
1.51849e-05
-3.11258e-05
2.77493e-07
4.0281e-05
6.24987e-05
5.97355e-05
8.12288e-05
-5.87221e-06
-9.93916e-06
-6.76306e-05
-3.58885e-05
-3.78483e-05
4.09512e-05
3.31214e-05
3.88562e-05
-3.16356e-05
-4.98474e-05
2.59728e-05
0.000113098
6.84805e-05
4.32159e-05
-2.84452e-05
-9.99554e-06
0.000150628
9.0771e-05
9.23544e-06
2.87728e-06
-5.04302e-05
-0.000102041
-0.000103014
5.01227e-05
6.84246e-05
-7.69669e-05
-5.01264e-05
-6.45731e-05
-4.37557e-05
-1.55784e-05
-1.71521e-05
-6.72498e-05
-6.54549e-05
-8.37404e-05
1.78502e-05
6.2417e-05
2.79154e-05
9.09724e-05
0.000110388
7.36232e-05
6.31699e-05
9.88145e-05
-5.52265e-08
-8.38024e-05
-3.37117e-05
-5.83717e-05
-9.12607e-05
-9.9352e-05
-6.33794e-05
-8.86311e-05
-6.90735e-05
-0.000105828
1.19395e-05
8.08325e-05
0.000134377
2.27997e-05
9.59941e-05
0.00016773
9.21942e-05
9.62903e-05
7.81497e-05
3.4056e-06
-3.98657e-05
4.86368e-05
4.63429e-05
0.000107762
0.000396724
0.000610618
0.000830201
0.00121241
0.00189026
0.00296804
0.00454365
0.00690297
0.0105564
0.0163284
0.0252537
0.0390912
0.0605645
0.0935917
0.144711
0.223694
0.345845
0.534282
0.82588
1.27592
1.97226
3.047
4.71034
7.27735
11.2507
17.3834
26.8753
41.5259
64.2023
99.2039
153.38
237.006
366.446
566.25
875.552
1352.99
2092.36
3233.37
5002.97
7729.63
11982.4
18482.2
28851.8
44090.7
70738.5
103256
2.68999e-06
4.19326e-06
1.69628e-05
-1.73434e-05
-2.20236e-05
-6.59987e-05
4.84248e-06
1.03439e-06
-8.03415e-06
6.35734e-05
3.1576e-05
1.29962e-05
2.803e-05
-4.12706e-05
1.35997e-05
6.81479e-05
-9.51868e-06
-5.76672e-05
-0.000104138
-1.6226e-05
7.24826e-05
8.89263e-05
6.13947e-05
-1.14759e-05
-3.33987e-05
1.1461e-05
-3.61571e-05
-6.5127e-06
-2.10505e-05
-9.0318e-06
5.8619e-05
5.2925e-05
2.38678e-06
-2.60123e-05
3.09243e-05
-7.48318e-05
-0.000114848
-5.76299e-05
-8.64473e-06
-1.45955e-05
-1.52249e-05
0.000131051
-1.17849e-05
-4.48566e-05
-3.23742e-05
-1.09515e-05
-5.28387e-05
6.62932e-06
6.29665e-05
6.42798e-05
9.96499e-05
5.6908e-06
-8.73368e-05
-7.83923e-05
-4.89608e-05
-0.000102141
-3.19727e-05
3.24572e-05
2.02067e-05
3.97622e-05
-7.26272e-06
5.17206e-05
0.000107684