/*--------------------------------*- C++ -*----------------------------------*\
| =========                 |                                                 |
| \\      /  F ield         | OpenFOAM: The Open Source CFD Toolbox           |
|  \\    /   O peration     | Version:  2412                                  |
|   \\  /    A nd           | Website:  www.openfoam.com                      |
|    \\/     M anipulation  |                                                 |
\*---------------------------------------------------------------------------*/
FoamFile
{
    version     2.0;
    format      ascii;
    arch        "LSB;label=32;scalar=64";
    class       volScalarField;
    location    "0.002";
    object      ddt0(thermo:psi,p);
}
// * * * * * * * * * * * * * * * * * * * * * * * * * * * * * * * * * * * * * //

dimensions      [1 -3 -1 0 0 0 0];

internalField   nonuniform List<scalar> 
180000
(
3.60368e-11
-2.59364e-11
-1.26278e-10
1.29857e-11
-1.11522e-11
-2.412e-10
-6.43917e-11
2.56156e-11
-1.62343e-10
1.13378e-10
-9.73825e-11
-2.46305e-11
5.00924e-11
-1.07782e-11
3.98052e-12
1.52815e-10
1.1795e-10
1.05181e-10
-1.10502e-10
9.24005e-11
2.82088e-11
-1.22945e-10
3.62364e-11
-1.12333e-10
3.41576e-11
-3.83867e-11
-4.69065e-11
8.9602e-11
-1.00914e-10
6.99297e-11
1.81771e-10
-1.2858e-12
1.75129e-10
-2.80942e-11
-2.16394e-10
-1.58965e-10
-1.04467e-10
-4.80719e-11
1.55594e-10
1.7555e-10
8.76783e-13
2.69315e-10
1.04241e-10
5.88776e-11
3.77811e-11
-6.9175e-11
3.08193e-11
-2.10774e-10
6.53751e-11
1.68132e-10
-7.20904e-12
9.70635e-11
9.07887e-11
-1.19553e-11
-1.20022e-10
-1.43049e-10
-5.60115e-11
-1.6751e-12
3.9221e-11
-8.59418e-11
1.70609e-10
-2.94798e-11
-9.42022e-11
1.38207e-10
3.48459e-11
1.12652e-10
1.23038e-10
-1.12794e-10
-1.79839e-10
1.58224e-11
-2.91733e-11
7.27623e-11
6.49383e-11
-7.3237e-11
-1.92222e-11
-6.65546e-11
-1.71107e-10
1.38731e-10
3.47313e-11
1.26864e-10
2.88815e-11
-2.04867e-10
3.22734e-11
5.99418e-12
1.30438e-10
-1.00203e-10
-1.13841e-10
1.60638e-10
1.13419e-10
1.67942e-10
7.27709e-11
-1.10169e-10
-4.54726e-11
4.55762e-11
-1.89158e-10
-1.3944e-10
-1.59189e-10
-4.94484e-11
-2.69251e-10
-1.54969e-10
-1.48203e-10
6.05837e-11
-1.78673e-12
1.71373e-11
9.01728e-11
4.88705e-11
1.65349e-11
1.07713e-13
-4.43653e-12
-1.2831e-10
4.65837e-11
-1.26388e-10
-1.7848e-10
6.18629e-11
-4.91593e-11
-1.17635e-10
-6.89544e-11
-6.1386e-11
1.18364e-10
9.45455e-11
1.18775e-10
-6.82156e-11
5.33753e-11
-6.58822e-12
8.32774e-11
-4.58404e-12
5.96462e-11
-8.93837e-11
-6.06372e-11
-7.46214e-11
5.02769e-12
4.43908e-11
1.52465e-10
3.89493e-11
-9.93116e-11
-1.14389e-10
-5.57639e-11
-7.35919e-11
-2.87152e-11
-1.36946e-11
-3.86979e-11
-1.41118e-11
-1.69089e-10
4.36473e-12
-1.24391e-10
-3.10037e-11
9.00775e-12
-5.91638e-11
4.43143e-11
1.34197e-10
7.7416e-11
5.10636e-11
-1.28783e-11
3.80841e-11
1.43524e-11
-1.44079e-10
-2.08938e-11
8.35278e-11
8.51257e-11
6.84115e-11
1.52832e-10
1.57734e-10
1.25877e-10
2.7314e-10
3.20892e-11
6.11748e-11
-1.5078e-10
2.63669e-11
-1.32984e-10
-2.33035e-11
-3.24642e-11
1.47095e-10
-6.08946e-11
4.47585e-11
-1.73906e-11
-7.2891e-11
-5.16295e-12
-2.25502e-10
-8.62522e-11
6.6908e-11
9.61975e-11
6.1237e-11
5.03306e-12
2.37207e-11
9.6265e-11
-1.42184e-10
-1.6717e-10
1.33724e-10
-2.47687e-11
7.46784e-11
9.77855e-11
1.28656e-10
-1.26756e-10
-2.13518e-10
-6.98918e-11
7.73286e-11
-1.18653e-10
8.2724e-11
-2.20766e-10
-9.88127e-11
3.19801e-10
9.22053e-11
-3.99736e-11
1.21682e-10
3.8621e-11
-3.67134e-11
-4.62683e-11
-8.20171e-11
-1.81399e-10
-7.67892e-11
5.65731e-11
2.47584e-10
1.693e-10
9.15103e-11
6.50891e-12
7.79779e-12
1.28692e-10
-4.82637e-11
2.27854e-10
1.29519e-10
9.89326e-12
-1.83302e-11
-7.79362e-11
-2.0708e-11
7.7858e-11
-1.12659e-10
4.15e-11
1.03502e-10
2.72764e-10
1.66622e-10
1.66962e-10
1.34549e-11
7.87482e-11
-2.88635e-11
6.91729e-11
2.88406e-11
8.52286e-11
2.45398e-10
-9.97822e-11
8.10047e-11
6.69736e-11
2.63453e-12
3.04158e-11
2.2404e-10
2.24054e-10
3.32967e-10
4.40146e-10
5.27041e-10
7.61676e-10
1.26569e-09
1.83166e-09
2.77169e-09
3.91295e-09
6.02615e-09
9.47358e-09
1.49171e-08
2.3148e-08
3.61302e-08
5.61475e-08
8.75386e-08
1.36784e-07
2.13182e-07
3.32628e-07
5.18847e-07
8.09516e-07
1.26433e-06
1.97467e-06
3.08621e-06
4.82368e-06
7.54438e-06
1.18009e-05
1.84719e-05
2.89165e-05
4.52993e-05
7.09697e-05
0.00011127
0.00017447
0.000273768
0.000429626
0.000674717
0.00105975
0.00166574
0.00261855
0.00411946
0.00648142
0.0102051
0.0160695
0.0253213
0.0398987
0.062901
0.099129
0.156234
0.245897
0.386602
0.605146
0.943713
1.45206
2.21646
3.24611
4.75251
2.06496e-11
-8.63719e-11
-1.35844e-11
6.64136e-11
-1.02435e-11
8.87892e-11
8.88895e-12
-4.82598e-11
2.13218e-11
9.88583e-11
2.65278e-11
-7.02813e-11
1.27509e-10
2.70037e-10
4.89939e-12
7.60841e-11
-5.85927e-11
3.58774e-11
1.17365e-10
-1.18429e-11
6.34977e-11
1.02559e-10
2.28786e-10
9.43136e-11
-2.18871e-11
5.314e-11
5.32422e-11
1.36619e-11
-2.14651e-11
-2.0515e-10
3.95656e-11
-1.02972e-11
-2.72307e-11
1.00318e-10
3.2936e-11
1.87225e-10
-5.42105e-12
-8.76606e-11
-1.4867e-10
7.57861e-11
1.64134e-10
8.88131e-11
5.55685e-12
-4.69698e-11
1.82873e-10
-1.0391e-12
-1.19883e-10
-1.23046e-11
1.02859e-10
-2.23735e-11
-6.05259e-11
-1.23744e-10
-7.98704e-12
-2.66617e-11
8.12376e-11
2.13943e-11
-2.22055e-11
7.76875e-11
8.275e-11
-4.77286e-11
-2.90183e-11
1.17662e-10
7.36675e-11
2.32978e-10
-1.94276e-12
-1.77514e-10
2.07635e-11
1.99206e-11
-4.8709e-11
-1.54474e-10
-2.6333e-10
-2.349e-11
6.20257e-11
-1.02411e-10
-1.60383e-10
1.38182e-10
9.85688e-11
1.15442e-10
-1.87975e-11
6.59575e-11
-8.97034e-11
-2.73149e-11
1.28972e-10
-2.99737e-11
-4.15099e-11
-7.53012e-11
-4.86525e-11
-3.79581e-11
3.12087e-10
-1.17456e-10
1.31397e-10
-9.40382e-11
-7.29109e-12
2.59329e-10
-1.04406e-10
7.20368e-11
5.3926e-12
-1.46391e-10
-7.90871e-11
6.77757e-11
-2.88103e-10
-4.7171e-11
1.91296e-10
-5.0911e-12
2.32886e-11
1.35677e-10
4.18815e-11
2.82372e-10
1.09161e-10
-1.08663e-10
-2.06612e-10
-9.7051e-11
-2.26791e-10
5.16107e-11
3.63791e-11
2.67209e-10
8.92722e-11
-6.57822e-11
7.68602e-12
1.3414e-10
-1.59599e-11
5.73771e-11
6.61744e-11
-1.42666e-10
-9.95475e-12
-1.15562e-11
6.42125e-12
2.21606e-10
6.36937e-11
3.03635e-11
-1.54075e-10
7.57319e-11
-1.92954e-10
-1.68414e-11
8.06255e-11
1.53173e-10
-1.38113e-10
-1.53877e-10
-1.11842e-10
5.83594e-11
1.55807e-10
7.59425e-11
1.25955e-10
-3.91752e-11
1.41288e-11
8.13568e-11
-9.34077e-11
-7.26939e-11
-2.71276e-10
1.5666e-10
7.01295e-12
-1.52909e-10
-2.72372e-11
1.05777e-10
1.04615e-10
2.52958e-10
1.13293e-10
4.22377e-11
-5.64828e-11
-3.20082e-11
7.95269e-11
1.1264e-10
-1.44681e-10
5.0246e-11
-2.43705e-11
1.31383e-10
3.05544e-11
-5.11029e-11
5.53436e-11
7.37032e-11
-1.28878e-10
-1.41452e-12
4.34288e-10
-2.23086e-10
-1.40088e-10
-1.79864e-10
-1.19843e-11
-1.53668e-10
-1.23401e-11
-3.13082e-11
3.13108e-10
-9.70302e-11
-1.24364e-10
-1.57463e-10
4.55546e-11
7.14658e-11
6.52663e-11
1.8055e-10
-1.99335e-10
1.13918e-10
1.5564e-10
9.18387e-11
-2.38922e-11
-5.01261e-12
1.55837e-10
-3.88634e-11
8.55441e-11
2.13028e-10
2.30615e-10
4.79766e-11
-4.47715e-11
4.60373e-11
-2.62932e-11
-6.26694e-11
-1.0243e-10
-2.00944e-10
-2.02266e-10
-5.8323e-11
6.27074e-11
1.3035e-12
-5.57005e-11
1.61026e-10
3.00577e-10
-1.04463e-10
-3.04815e-10
9.00968e-12
-1.63627e-10
1.16742e-10
-1.45217e-12
-4.47449e-11
9.49068e-11
2.19607e-10
8.83396e-11
-1.62781e-10
1.72224e-10
1.10195e-10
-1.45466e-10
-1.83441e-10
1.25174e-10
-1.78953e-10
-2.48776e-11
3.03083e-11
-8.93107e-11
8.84777e-12
-9.25028e-11
-4.23236e-11
-8.36387e-11
1.34736e-10
-9.05767e-11
1.31042e-10
5.56377e-11
3.25411e-11
3.12043e-12
3.49241e-10
3.60239e-10
2.39245e-10
3.13518e-10
5.11149e-10
6.59035e-10
9.73651e-10
1.40171e-09
2.14363e-09
3.62246e-09
5.84269e-09
9.13031e-09
1.43866e-08
2.25339e-08
3.4762e-08
5.39649e-08
8.4439e-08
1.31707e-07
2.0525e-07
3.19906e-07
4.9892e-07
7.77842e-07
1.21389e-06
1.8947e-06
2.9586e-06
4.61992e-06
7.21962e-06
1.12823e-05
1.76431e-05
2.75896e-05
4.31734e-05
6.75606e-05
0.000105793
0.000165665
0.000259591
0.000406775
0.000637821
0.00100011
0.00156917
0.002462
0.0038652
0.00606792
0.00953139
0.0149705
0.0235249
0.0369599
0.0580863
0.0912421
0.143312
0.224804
0.352275
0.550119
0.856411
1.3205
2.02296
3.01079
4.47403
-4.28378e-11
6.73158e-12
-4.55812e-11
-6.02663e-12
5.5961e-11
1.73812e-11
8.69904e-11
4.10929e-11
-2.57397e-10
-4.08066e-11
-1.39465e-10
1.00932e-10
9.39052e-11
-7.81213e-11
2.2814e-11
9.10658e-11
1.69214e-11
1.16664e-10
1.85649e-10
1.42892e-10
-3.59779e-11
2.0155e-11
1.89441e-10
-2.59776e-12
1.04453e-10
-2.47551e-10
1.05281e-10
-2.97392e-12
-1.18738e-10
1.87612e-11
1.40649e-10
1.10628e-10
2.36855e-11
2.31057e-11
-5.78012e-11
-3.53001e-11
1.12789e-10
7.29249e-11
9.01218e-11
-9.68929e-11
-3.62659e-11
8.99972e-11
-4.96994e-11
1.41967e-11
-1.6082e-10
-2.15932e-10
1.96285e-10
5.86635e-11
-1.30483e-10
-2.8111e-10
-9.53878e-12
-7.08649e-11
-3.52334e-11
3.14724e-11
1.31568e-10
-6.78381e-11
-8.29938e-11
-2.16978e-10
-1.30248e-10
-2.26156e-10
-1.16165e-10
-2.0656e-11
1.78502e-11
4.8548e-12
9.45869e-11
3.0848e-10
2.73281e-10
1.91806e-10
-4.47459e-11
-5.43986e-11
4.19914e-11
1.41577e-11
-6.88489e-11
1.31224e-10
1.63955e-11
2.30334e-10
1.73141e-10
9.67235e-11
3.03958e-11
-1.48153e-10
-6.06429e-11
-2.60024e-10
-1.77448e-10
4.75683e-12
7.87833e-11
9.35758e-11
1.29223e-10
2.95268e-11
4.08202e-11
-1.13815e-12
-1.46715e-10
5.34078e-11
1.02411e-10
-1.36449e-10
8.07442e-11
-6.88838e-12
-1.24897e-10
1.03847e-10
-7.80112e-11
6.07442e-11
-6.24729e-11
4.82239e-11
2.50779e-10
-1.26069e-11
-2.07994e-10
-3.13471e-10
-7.62281e-13
-1.43996e-10
-9.82641e-11
7.55056e-11
-6.17531e-11
1.64422e-10
2.80092e-10
-4.39453e-11
-2.19059e-11
-3.6217e-11
8.23637e-11
1.82851e-10
-5.57496e-11
-3.90703e-11
-7.90496e-11
2.39974e-11
-1.51555e-10
-3.06593e-11
-8.24777e-11
5.13203e-11
-1.39645e-10
-7.88055e-11
-1.17095e-11
1.14179e-11
-2.52609e-11
5.23428e-11
-3.77154e-11
8.4355e-11
-3.77e-12
-1.19785e-10
5.37402e-11
-4.15985e-11
1.28365e-10
-6.3178e-11
-1.00629e-11
1.40902e-10
3.90926e-10
9.1984e-11
-1.48332e-10
-2.38025e-11
-8.0332e-11
-1.21993e-10
1.79028e-10
-4.95467e-11
7.38072e-11
2.54464e-10
-1.37659e-10
4.14992e-11
1.34313e-10
-2.06394e-11
-1.62526e-10
2.15977e-10
1.284e-10
8.41175e-11
-6.48201e-11
1.02565e-10
3.92122e-13
1.04667e-11
-2.25992e-11
-2.24788e-10
-5.69668e-11
5.79421e-11
1.11593e-10
-1.6573e-10
1.08976e-11
1.33269e-10
-7.10005e-11
1.72942e-11
1.11133e-10
7.61171e-11
-4.78249e-12
4.18401e-11
-2.90507e-10
-1.37964e-10
-4.32872e-11
1.30509e-10
1.11048e-10
1.59945e-10
2.23833e-10
2.18795e-10
7.33922e-12
-5.84672e-11
1.5582e-11
-1.92035e-10
-2.05115e-10
4.12206e-11
-6.01047e-11
-2.75549e-11
-2.00508e-10
-1.59272e-10
1.70419e-10
2.03817e-10
2.66925e-11
8.43557e-11
2.39251e-10
-8.6851e-11
7.04643e-11
5.43755e-11
1.61994e-10
6.83578e-11
1.80862e-10
3.39703e-11
-1.15582e-10
4.68634e-11
-8.64994e-11
2.2823e-11
-3.80052e-11
-1.43215e-10
-9.59782e-12
-3.1771e-12
1.02731e-10
1.90373e-11
-1.27149e-10
-2.29416e-11
4.59019e-11
-1.1846e-10
-1.06401e-10
5.17272e-11
-1.59134e-10
-1.90576e-10
-9.91515e-12
1.31545e-11
6.77256e-11
6.29043e-11
1.25317e-11
-2.69029e-10
3.32094e-11
2.07886e-10
5.4304e-11
1.8351e-10
3.84444e-11
1.52384e-10
2.03638e-10
1.50816e-10
2.26905e-10
1.0014e-10
2.97005e-10
2.43841e-10
1.31223e-10
2.57156e-10
3.41706e-10
5.0547e-10
3.9498e-10
9.62689e-10
1.56908e-09
2.45984e-09
3.64243e-09
5.38391e-09
8.51174e-09
1.33467e-08
2.08099e-08
3.24078e-08
5.03479e-08
7.86665e-08
1.22374e-07
1.90476e-07
2.96455e-07
4.62178e-07
7.19989e-07
1.12183e-06
1.74834e-06
2.7269e-06
4.25235e-06
6.63496e-06
1.03523e-05
1.61623e-05
2.52309e-05
3.94115e-05
6.15587e-05
9.6207e-05
0.000150347
0.000235086
0.000367557
0.000574986
0.00089939
0.00140755
0.00220254
0.00344823
0.00539759
0.00845266
0.0132341
0.0207277
0.0324539
0.050825
0.0795499
0.1245
0.194615
0.304013
0.473515
0.736272
1.13558
1.74794
2.62233
3.97616
-5.30898e-11
-8.85939e-11
1.40862e-10
1.04438e-10
1.59574e-11
-7.21644e-11
-2.35659e-13
1.73014e-11
1.84565e-11
-1.51712e-10
1.7548e-10
-4.36942e-11
-1.20054e-10
-1.11837e-10
-5.29976e-11
6.72145e-11
4.82472e-11
-1.11463e-10
-1.53436e-10
-1.1493e-10
4.86278e-11
8.21234e-11
3.06715e-11
9.74337e-11
1.61603e-10
2.01639e-10
-1.92287e-12
-7.09324e-11
3.71423e-11
1.09566e-10
-1.47488e-10
2.32036e-11
-9.49005e-11
-1.17142e-10
1.17458e-10
1.84901e-11
1.24772e-10
-1.05855e-11
6.70316e-12
-1.98408e-10
7.06854e-11
1.68707e-10
9.58928e-11
-3.00989e-11
-9.11701e-11
-3.38966e-11
2.57177e-10
6.95209e-11
1.30917e-11
-3.38568e-11
1.44882e-10
1.6263e-10
-1.27765e-10
-1.13075e-11
-1.58487e-10
-7.11936e-12
6.06438e-11
1.22289e-10
8.00064e-11
-1.89464e-10
-1.7594e-10
1.48845e-11
-7.02458e-11
-7.70768e-12
-2.81101e-10
-1.65139e-10
-1.52749e-10
2.03414e-10
1.16086e-10
-4.44398e-11
1.33161e-10
2.36586e-10
-5.92512e-11
2.34175e-10
-6.42337e-11
1.23809e-11
2.18244e-11
-4.15921e-11
1.47353e-10
1.14912e-10
6.55544e-11
2.26893e-11
2.89452e-12
6.23327e-11
1.07427e-10
9.34484e-12
-1.44825e-10
1.16169e-11
1.00389e-10
5.21264e-11
-8.89182e-11
-1.46186e-10
-1.05913e-10
-5.86586e-11
3.77976e-11
-5.33544e-11
-5.24995e-11
7.37285e-11
-9.26202e-12
-1.42529e-10
4.07984e-11
2.09654e-10
-5.16052e-11
-7.39503e-11
-4.1659e-11
-2.4089e-11
1.4641e-10
-1.73172e-11
-5.17606e-11
2.35675e-11
-1.08073e-10
6.22236e-11
-9.66195e-11
-8.59914e-11
-2.45125e-11
-3.43282e-11
-1.439e-10
3.45712e-11
6.03184e-11
9.86494e-11
9.3137e-11
-5.25633e-11
-1.51788e-10
-3.60248e-11
-8.76347e-11
-5.06774e-11
-1.72818e-11
4.39861e-11
-1.59596e-10
-1.03103e-10
-1.45439e-10
-2.39512e-11
1.47345e-10
1.17406e-10
1.68518e-10
2.07188e-10
3.18118e-10
7.14683e-11
-7.17692e-11
-1.01467e-10
-2.11706e-10
-1.52501e-11
-1.58762e-10
5.69222e-11
1.65452e-10
5.38329e-11
1.06796e-10
-1.07089e-10
1.51087e-10
9.96299e-11
1.53422e-10
-1.66098e-10
-1.94926e-10
-4.44806e-11
8.06168e-13
1.10375e-10
1.2684e-10
1.75271e-10
1.31027e-10
-9.26461e-11
-1.80897e-11
-1.70078e-10
-2.126e-10
-1.42779e-10
2.7431e-11
8.37382e-11
-1.19959e-10
-3.42628e-11
-2.9981e-11
-3.39439e-10
-2.20699e-10
5.97732e-11
9.72331e-11
1.80382e-11
2.56786e-10
-6.97532e-11
-1.68896e-11
-5.95887e-11
-8.96451e-11
1.23631e-10
1.36054e-10
3.4797e-10
1.04034e-10
1.27061e-10
1.95027e-10
-2.78068e-11
-4.96045e-11
1.56123e-10
-2.54497e-11
7.69347e-12
-1.68088e-11
-1.02937e-11
-3.50137e-11
1.3061e-11
7.32172e-11
-1.73513e-10
-1.96947e-10
-2.1169e-10
-1.5709e-10
-2.48709e-10
-3.92007e-11
-2.99403e-10
-1.17149e-10
4.43102e-11
3.07657e-11
5.9582e-11
1.81368e-10
2.75777e-11
2.10357e-10
1.84742e-10
1.08897e-10
5.99239e-11
-9.81923e-11
-1.36415e-10
-6.54568e-11
4.8769e-11
-1.47824e-10
-1.17003e-10
-5.92749e-11
1.6548e-11
-2.04445e-10
-1.98494e-10
-2.30856e-10
7.70095e-11
4.16398e-11
9.74657e-11
1.65179e-10
2.52528e-10
8.00318e-11
-8.63365e-11
2.80515e-11
2.46384e-10
2.74817e-10
-1.36502e-10
-1.80651e-10
1.10198e-10
-1.17573e-11
-3.15685e-11
-2.6561e-10
4.75191e-11
-8.21543e-11
-1.76944e-10
6.58123e-11
4.05322e-11
1.96581e-10
2.26656e-10
2.49121e-10
4.66304e-10
5.20184e-10
1.04312e-09
1.3574e-09
2.00993e-09
3.19655e-09
4.81756e-09
7.68915e-09
1.20576e-08
1.8917e-08
2.9463e-08
4.55488e-08
7.0847e-08
1.0985e-07
1.70941e-07
2.66247e-07
4.13905e-07
6.43652e-07
1.00164e-06
1.55891e-06
2.42661e-06
3.77741e-06
5.88322e-06
9.16166e-06
1.42752e-05
2.22396e-05
3.4665e-05
5.40262e-05
8.42429e-05
0.00013134
0.000204866
0.0003195
0.000498505
0.000777656
0.00121364
0.00189365
0.00295582
0.00461262
0.00720057
0.0112371
0.0175413
0.0273714
0.0427174
0.0666279
0.103919
0.161908
0.252169
0.39178
0.60833
0.938106
1.44841
2.1859
3.36006
1.68036e-11
3.11875e-11
-1.01839e-11
1.38925e-10
-6.41603e-11
-1.36846e-10
1.41403e-10
-6.55253e-12
-1.02712e-10
4.38376e-11
-8.97475e-11
-1.74524e-11
1.56483e-10
4.1614e-12
-2.37675e-11
-7.36673e-11
-3.45805e-11
-5.74144e-11
9.5415e-11
9.11319e-11
-6.82308e-11
-9.47754e-11
-1.78864e-14
5.36423e-11
3.6409e-12
-1.48094e-10
-8.20498e-11
-1.08892e-11
-1.56167e-10
6.9384e-11
8.31918e-11
-5.16477e-11
-1.87888e-11
-1.31005e-10
-5.14156e-11
-1.73477e-10
7.79006e-13
-1.09999e-10
-1.96906e-11
1.00171e-10
2.43007e-11
6.4148e-11
3.93963e-11
5.67696e-11
4.45962e-11
-1.45143e-11
4.39394e-11
6.81574e-11
5.97928e-11
-4.74285e-11
1.10928e-10
1.84598e-11
-1.47956e-10
9.69415e-11
-1.764e-12
-9.45144e-11
-1.95418e-10
-1.21087e-10
6.87521e-11
-9.80269e-12
-7.20959e-12
-2.85123e-11
4.75775e-11
2.84653e-10
2.43115e-10
-2.00267e-10
-1.40318e-10
-1.66305e-10
-5.83088e-11
-2.60426e-10
-9.50958e-11
8.69425e-11
-2.24759e-10
-4.65885e-11
1.34158e-11
5.78139e-11
6.50006e-11
-1.27602e-10
2.39032e-10
2.73446e-10
2.01519e-10
2.4833e-10
-2.59148e-11
2.05801e-10
-3.24928e-11
2.9876e-11
-1.23188e-10
-9.07201e-11
-1.05363e-10
1.93341e-11
5.84015e-11
-2.41129e-12
3.21981e-11
2.41646e-11
6.86126e-11
2.06698e-11
5.33962e-11
1.55397e-10
-3.15956e-11
1.99303e-10
7.32182e-11
-8.18903e-11
2.73218e-11
-4.40965e-11
1.48514e-12
-3.13815e-10
-2.17055e-11
-8.11208e-11
-3.165e-12
5.39561e-11
-1.92785e-11
1.26929e-10
-2.26496e-11
-1.26288e-11
-1.41053e-10
1.98065e-10
4.93173e-11
-2.33748e-10
1.87211e-11
-1.39606e-11
-2.32568e-10
1.16827e-10
-1.0164e-10
-4.36177e-11
2.69071e-11
3.44056e-11
2.22443e-10
1.28281e-10
2.3225e-10
1.28295e-11
-2.49775e-11
-1.5426e-11
4.97547e-11
-1.43653e-10
-1.18274e-10
-1.02731e-10
-1.22711e-10
1.90024e-11
-1.29655e-10
1.45183e-10
-3.66799e-11
-1.5288e-10
-8.89781e-11
-1.44862e-10
1.45183e-11
2.70012e-11
-1.459e-10
-6.21933e-11
1.7616e-10
2.47468e-10
2.42018e-11
2.88806e-10
2.73824e-11
2.75474e-10
3.67875e-11
9.2068e-11
-3.96713e-11
4.81235e-11
-3.53339e-11
-8.7601e-11
-8.0355e-11
6.67412e-11
-2.46618e-10
-4.82043e-11
7.01684e-12
2.82786e-11
-6.40226e-11
-2.73381e-10
-6.00003e-11
2.29181e-10
-6.81394e-11
1.60977e-10
2.57698e-10
1.28309e-10
-1.14132e-11
1.69911e-10
4.12744e-10
9.63697e-11
-2.92477e-11
1.23025e-10
-5.82102e-12
-2.60277e-11
8.04086e-11
2.03356e-11
1.05988e-10
1.54454e-10
-1.28968e-10
2.80038e-11
2.03607e-10
2.02934e-11
2.28869e-11
2.50402e-11
-3.24073e-11
-6.39664e-11
8.53174e-11
1.25898e-10
-1.1907e-10
1.7299e-11
1.95271e-11
6.88171e-11
1.0446e-10
6.45816e-11
4.78846e-11
7.09711e-12
-9.05297e-11
1.0566e-11
1.515e-11
1.32535e-11
-2.95462e-10
-1.66726e-10
-1.7685e-10
-4.48427e-11
-2.47887e-10
-1.45255e-10
-1.16048e-10
-2.41814e-10
-5.25645e-11
-5.78903e-11
1.26267e-11
-3.73529e-11
-8.38137e-11
2.4405e-10
1.13046e-10
1.5355e-10
-6.47648e-11
2.49959e-10
2.29612e-10
2.42869e-10
9.6907e-11
1.57851e-10
1.94713e-10
1.75401e-10
1.97648e-10
1.20589e-10
8.61355e-11
-2.48163e-10
-3.35152e-10
4.75461e-11
-4.36478e-11
6.47325e-11
1.52641e-10
1.36222e-10
-8.67715e-11
-6.52578e-11
3.38344e-11
-1.80383e-11
1.59989e-10
3.47422e-10
5.07652e-10
9.42301e-10
1.40067e-09
1.55683e-09
2.99519e-09
4.44619e-09
6.77264e-09
1.07628e-08
1.62948e-08
2.5559e-08
3.99062e-08
6.17715e-08
9.61714e-08
1.49124e-07
2.31426e-07
3.59605e-07
5.58609e-07
8.67406e-07
1.34774e-06
2.09432e-06
3.25403e-06
5.05857e-06
7.86151e-06
1.2224e-05
1.90037e-05
2.95572e-05
4.59632e-05
7.15054e-05
0.00011122
0.000173064
0.000269237
0.000419017
0.000651967
0.00101479
0.00157911
0.00245806
0.0038251
0.00595414
0.00926507
0.0144205
0.0224355
0.0349109
0.0542932
0.0844405
0.131205
0.203856
0.316081
0.490204
0.755748
1.1692
1.77184
2.74932
4.30124e-11
3.68135e-11
-8.10251e-11
-7.77523e-12
-4.74294e-11
2.32941e-11
3.95592e-11
2.76995e-12
-2.29676e-10
2.3347e-10
1.30986e-10
-2.33811e-11
-7.30283e-11
-7.8412e-11
-1.79808e-11
1.08055e-10
-1.21663e-10
-1.50304e-10
-1.31005e-10
2.04035e-11
7.69682e-12
-1.37102e-10
1.18874e-10
-6.47723e-11
1.30784e-11
-3.75333e-12
9.69825e-11
1.98643e-10
-6.87049e-12
-2.58654e-10
1.38459e-10
-6.98484e-11
-1.16349e-10
1.94709e-11
2.28862e-11
2.29734e-10
1.73396e-10
6.48784e-11
-9.43419e-11
-1.13201e-10
2.83319e-11
-8.13786e-11
7.61429e-12
-1.45218e-10
-1.06442e-11
2.68509e-10
-1.00933e-10
6.80029e-11
1.20703e-10
-6.33401e-11
-1.89602e-10
-4.97516e-11
-3.92617e-11
5.5511e-11
-1.38913e-11
-1.11274e-10
7.78468e-11
-3.14734e-10
8.53428e-11
7.97821e-11
-1.49078e-10
-2.06085e-11
2.56873e-10
-1.39402e-10
3.81612e-11
-2.4149e-10
-1.55862e-10
-2.57073e-11
1.11245e-10
1.65773e-10
-8.73351e-11
1.83542e-10
2.58452e-10
-1.2355e-10
7.92332e-11
-1.06884e-10
-1.24649e-10
6.05579e-11
8.07281e-12
-2.11304e-10
-1.82236e-10
-1.21648e-10
-1.1478e-10
-1.39888e-10
-1.97971e-11
8.79757e-11
2.23144e-10
2.09264e-10
2.2105e-10
2.05259e-10
2.20045e-10
-2.22069e-10
-2.98194e-11
9.39441e-11
-1.20511e-10
-7.452e-11
-5.49642e-11
-1.44444e-11
1.30095e-10
1.44698e-10
-3.28622e-11
-1.26827e-11
1.07733e-10
3.29178e-11
-1.06253e-10
6.93177e-11
2.40422e-11
1.34583e-11
-1.66872e-10
-1.82266e-10
-3.8067e-11
4.37776e-12
-1.56078e-10
-1.57906e-10
6.41103e-11
1.02124e-10
6.79285e-12
-5.60787e-11
-1.34915e-11
7.28285e-11
-1.13557e-11
5.83284e-11
1.40426e-10
1.80929e-10
5.93673e-11
2.09409e-10
1.37625e-10
-2.20844e-11
-2.5749e-10
-5.62048e-11
-7.58922e-11
-3.08583e-10
-2.13346e-10
-3.93693e-11
-3.54328e-11
2.85821e-11
-3.11875e-10
-5.69879e-11
1.20484e-10
-1.00216e-10
-4.50734e-11
-6.52539e-12
-7.65693e-11
-1.37425e-11
-1.72622e-11
-2.06223e-10
9.36429e-11
4.26759e-11
3.57569e-11
1.00038e-10
-1.12068e-10
1.00311e-10
1.10195e-10
1.45503e-10
2.41789e-10
1.19843e-10
3.33188e-11
-1.25832e-10
-2.7708e-11
-3.15362e-11
-1.96245e-11
-4.21363e-11
-7.48372e-11
-2.4419e-10
-1.42727e-10
-8.98834e-11
-4.67589e-11
9.90071e-11
2.72085e-10
1.51225e-10
1.09736e-10
8.94547e-11
3.29659e-11
1.28503e-11
1.77579e-10
8.682e-11
-8.44944e-11
-5.10109e-12
2.33116e-10
1.64492e-10
-2.01461e-10
-1.62777e-10
-2.23579e-10
4.90861e-12
9.29622e-11
-1.1683e-10
6.97404e-11
6.04544e-11
-1.9474e-10
-2.53324e-10
-1.23016e-10
-2.20033e-10
-1.8769e-10
-1.66985e-10
-2.06349e-10
-2.02806e-10
-1.04576e-11
3.0409e-10
5.26722e-11
1.45334e-10
-1.40958e-12
-6.25902e-11
-5.681e-11
-1.43456e-10
6.09408e-11
-2.43413e-10
-1.24581e-10
1.45943e-10
-5.28696e-11
2.19088e-11
-2.70732e-11
3.58106e-10
1.38015e-10
7.41083e-11
1.41256e-10
5.59462e-11
-7.01323e-11
-9.72735e-11
4.52579e-11
1.23227e-10
-1.27961e-10
3.46665e-10
1.49117e-10
4.56428e-11
1.94672e-10
-8.59015e-11
-4.02147e-11
-1.10756e-10
-5.01237e-11
4.50627e-11
-7.63158e-11
-3.23667e-10
-1.14611e-10
-2.74934e-10
-1.75347e-10
1.66851e-10
2.09843e-10
-5.53884e-11
2.38582e-11
5.57232e-11
6.84567e-11
2.97499e-11
1.19946e-10
1.19317e-10
-9.27083e-11
-2.87233e-11
2.29557e-10
4.72471e-10
2.30519e-10
5.45433e-10
1.1152e-09
1.61142e-09
2.48225e-09
3.7811e-09
6.00803e-09
9.09256e-09
1.40316e-08
2.2023e-08
3.39376e-08
5.26176e-08
8.17442e-08
1.26417e-07
1.96084e-07
3.04281e-07
4.71552e-07
7.31776e-07
1.13475e-06
1.76022e-06
2.73013e-06
4.23563e-06
6.57063e-06
1.01968e-05
1.58207e-05
2.4556e-05
3.8106e-05
5.91559e-05
9.18118e-05
0.000142548
0.000221266
0.000343576
0.00053335
0.00082822
0.00128574
0.00199662
0.00309956
0.0048131
0.00747138
0.0116006
0.0180048
0.0279498
0.0433662
0.0672952
0.104344
0.161819
0.25051
0.388138
0.598229
0.92667
1.4082
2.1987
7.99894e-11
-3.01746e-11
1.47306e-11
-1.02793e-12
8.88214e-11
2.35232e-10
1.7185e-10
-1.39189e-10
-2.26302e-11
9.60918e-11
-1.86753e-11
1.47714e-11
4.35893e-12
8.12839e-11
8.31096e-11
-1.29507e-10
1.54045e-11
-3.92358e-11
-3.5818e-11
-2.29971e-11
1.72684e-10
-9.73683e-13
-5.79426e-11
3.20863e-10
2.08355e-10
-2.93546e-11
-1.08781e-10
-5.39032e-11
2.10184e-11
6.55877e-13
4.86986e-11
-9.26307e-11
4.14823e-11
9.32061e-11
-1.51095e-10
-1.04295e-10
-1.57672e-10
-9.91876e-12
-2.82122e-11
4.61013e-11
1.48903e-10
1.07994e-10
2.7102e-10
-1.58439e-10
1.87349e-10
5.13812e-11
-2.70127e-10
-4.3082e-11
-5.92159e-11
2.34229e-10
-1.78008e-10
-2.79298e-10
6.40514e-11
-6.55549e-11
-6.67617e-11
1.48243e-10
2.74908e-11
2.50849e-10
-1.45956e-10
-2.14382e-10
8.75484e-12
-2.53543e-10
-8.63866e-11
2.58175e-11
1.98454e-10
1.02726e-10
9.54343e-11
-4.44958e-11
8.74229e-11
-1.76194e-11
1.17406e-10
1.40758e-10
2.46716e-11
-7.02764e-11
-9.75084e-11
-3.15286e-11
-8.86229e-11
-1.8434e-10
-7.98206e-11
2.48381e-12
2.87195e-10
-8.52587e-11
1.1058e-10
6.82049e-11
2.85516e-11
-1.25092e-10
5.26293e-11
-2.53925e-12
2.87742e-11
-7.73371e-11
-1.55595e-10
-1.56851e-10
6.6255e-11
-3.36315e-11
-9.39566e-11
9.65856e-11
8.24021e-11
9.99919e-12
9.24576e-12
-1.04661e-11
4.40964e-11
-4.62849e-11
-6.90624e-11
-1.69385e-10
7.81744e-12
4.57851e-11
-5.62762e-11
6.70535e-12
-5.07806e-11
1.94607e-11
-6.91156e-11
5.23178e-11
2.41178e-10
6.04292e-11
1.69341e-10
1.14362e-10
3.52725e-11
1.37628e-11
1.78001e-10
1.37097e-10
2.0684e-10
1.64765e-10
1.16741e-10
8.37433e-11
7.60643e-11
-1.28584e-10
-8.1491e-11
-8.85499e-11
9.50527e-11
8.89146e-11
5.65153e-11
5.07133e-11
1.13274e-10
6.75521e-11
-6.6011e-11
-3.47994e-11
-3.28704e-11
1.96362e-11
-1.66095e-10
8.33738e-12
-3.75991e-11
1.14844e-10
4.60773e-12
1.21864e-10
-3.59861e-11
-1.59626e-10
1.24773e-10
1.03319e-10
-5.51844e-11
1.4031e-11
-8.06273e-12
1.23147e-10
1.67211e-11
7.20857e-11
8.24082e-11
2.56865e-11
1.08642e-11
-1.20536e-10
-1.2336e-10
1.84657e-10
-2.06576e-11
9.58896e-11
4.77659e-11
9.94308e-11
-3.3172e-11
-8.46218e-11
1.4517e-10
-6.06267e-12
1.21472e-10
-1.71991e-10
-2.74998e-10
-1.93578e-11
1.33806e-10
-1.33165e-10
-3.94574e-11
-6.68725e-11
-1.2278e-10
-1.80685e-10
-2.38661e-10
1.09022e-10
3.98897e-12
1.00455e-10
-1.12875e-11
1.6432e-10
3.66976e-11
-1.14987e-10
7.01066e-11
-8.27541e-11
-1.68791e-10
-1.48597e-10
-2.3215e-10
-2.59525e-11
1.13511e-10
6.99949e-11
2.47052e-11
-7.0433e-11
-2.99311e-10
-2.12506e-11
-1.88166e-10
-2.73554e-11
4.69019e-11
9.71886e-11
2.03803e-10
1.44095e-10
2.47153e-10
2.69105e-10
1.18445e-10
-1.00776e-10
3.63242e-11
4.61963e-11
-1.04066e-10
-1.76197e-10
2.21114e-10
1.44176e-10
3.09283e-11
-5.26227e-11
1.09854e-10
-4.26774e-11
1.11576e-11
3.15588e-11
-1.40493e-10
-6.6986e-11
-6.76199e-11
-3.19418e-11
4.031e-11
-5.77559e-11
1.13025e-10
1.04966e-11
1.09921e-10
-1.2047e-10
-2.00804e-11
4.70463e-11
8.55149e-11
1.31464e-11
-4.2223e-11
-1.85246e-10
-1.57971e-11
-3.29572e-11
-1.86721e-11
3.50709e-11
-2.95235e-11
1.35293e-10
1.57103e-10
1.48972e-10
2.60417e-11
-1.58203e-10
1.33774e-10
-8.63783e-12
3.49268e-10
4.50736e-10
9.63315e-10
1.4022e-09
1.77932e-09
3.12403e-09
4.8983e-09
7.73375e-09
1.1919e-08
1.82873e-08
2.81063e-08
4.367e-08
6.76778e-08
1.04831e-07
1.62193e-07
2.51332e-07
3.89251e-07
6.03066e-07
9.33646e-07
1.44586e-06
2.2389e-06
3.46821e-06
5.37078e-06
8.31997e-06
1.28855e-05
1.9964e-05
3.09231e-05
4.7915e-05
7.42256e-05
0.000115023
0.000178197
0.00027616
0.000427861
0.000663103
0.00102739
0.00159227
0.002467
0.00382331
0.0059234
0.00917934
0.0142199
0.0220334
0.0341251
0.0528642
0.0818379
0.126735
0.195965
0.303391
0.46747
0.724645
1.10315
1.72932
-1.09653e-10
9.57542e-11
-4.50851e-11
-6.43226e-11
5.63006e-11
-2.42036e-11
6.82651e-11
9.07663e-12
-8.53295e-11
1.41176e-10
1.39664e-10
-5.42212e-11
-9.32965e-11
-1.6905e-10
-1.50002e-10
2.20274e-10
6.17727e-12
-4.24464e-11
-4.41781e-11
2.95887e-11
-1.18312e-10
-1.84577e-11
3.59638e-11
2.61219e-11
-1.83563e-11
8.41984e-11
-1.06581e-10
-3.37427e-11
7.80122e-11
-1.337e-11
-4.53442e-11
9.73359e-12
-9.9593e-11
-6.80849e-11
1.83634e-10
3.52148e-10
3.54577e-11
-1.53609e-10
-5.28507e-11
1.09126e-10
-1.69956e-10
-1.40453e-10
-1.60576e-11
-9.65742e-11
-1.91048e-10
-5.73654e-11
1.05973e-10
1.2691e-10
1.5502e-10
2.00242e-11
8.46441e-11
2.73576e-11
-7.22043e-11
-1.16273e-10
1.86357e-10
-7.29104e-11
-6.47863e-11
-2.21198e-10
-1.44437e-10
-1.82889e-11
-6.47211e-11
2.11465e-11
-1.34802e-12
-1.43662e-10
-1.17425e-10
-2.3839e-11
2.00196e-11
1.039e-10
-1.50848e-10
1.08067e-10
1.74089e-10
1.40162e-11
1.14621e-10
-3.2946e-11
1.08043e-10
-9.80589e-11
-1.85178e-11
6.98825e-12
-1.66832e-11
4.68968e-11
1.2842e-10
1.08967e-10
1.71382e-10
1.78867e-11
-1.77822e-11
-5.07368e-11
-1.13489e-10
-1.56427e-10
-2.62435e-10
-2.38969e-10
-1.83143e-11
-1.30443e-10
1.3912e-10
3.46461e-10
2.31233e-10
8.71319e-11
2.01598e-10
-4.6164e-11
-8.00821e-11
-4.29456e-11
-1.26156e-10
-7.31103e-11
1.74435e-11
3.21762e-11
1.89166e-10
1.08183e-10
3.93419e-11
-1.06268e-10
-2.27299e-11
-5.49959e-11
-3.98253e-10
3.89157e-11
7.46766e-11
-5.88677e-11
3.26404e-11
1.0212e-10
2.26277e-10
2.14582e-10
3.07568e-11
5.38991e-11
-6.715e-11
-3.4231e-11
-1.36906e-10
2.9583e-11
-1.34735e-10
-2.29077e-11
2.21769e-10
-6.08155e-11
-1.44885e-10
-1.38074e-11
-1.51778e-10
9.81128e-11
1.32588e-10
1.10983e-10
6.08762e-11
4.1419e-11
1.21282e-10
1.2517e-10
4.92192e-11
3.82175e-11
-7.33959e-11
2.48519e-10
4.02625e-11
2.00281e-10
-4.75971e-11
-6.05172e-11
1.22006e-10
-1.58285e-11
3.84699e-11
-1.58661e-10
-2.12106e-10
8.91855e-11
1.4493e-10
-1.79792e-11
1.4914e-10
1.19262e-10
1.79412e-11
2.61243e-10
-4.46115e-11
-5.00406e-11
2.30436e-10
7.46598e-11
1.6357e-10
1.95433e-10
1.04183e-10
1.04962e-10
-5.61666e-11
3.405e-11
1.00399e-10
6.14879e-11
-8.40869e-12
1.78508e-10
3.20016e-11
1.38756e-10
-7.25547e-11
6.34535e-11
1.08899e-10
-1.26694e-10
-4.1e-11
-2.43364e-11
-1.14326e-10
-4.26517e-11
9.97556e-11
-6.12551e-11
-9.28676e-11
-1.41949e-10
-9.38818e-11
-1.05686e-10
8.70321e-11
8.26489e-12
1.43878e-10
1.40022e-11
7.41722e-11
-1.12614e-10
-3.46531e-11
-1.32774e-10
7.639e-11
6.10089e-11
-1.33523e-10
-2.27384e-10
-1.04773e-10
-5.94803e-11
1.06389e-11
-1.0028e-11
-3.52287e-10
-8.00655e-11
9.76375e-11
-2.20033e-11
1.21438e-10
2.20386e-10
1.87335e-10
-1.09688e-10
-1.00166e-10
1.13533e-10
-3.03474e-11
7.47076e-12
-3.1319e-11
6.39414e-11
-8.38893e-11
9.15825e-11
4.5044e-11
1.36758e-10
-8.26498e-11
-8.02305e-11
8.03555e-11
-7.00448e-11
-5.43893e-11
-1.15739e-11
5.66898e-11
3.46604e-12
2.13128e-10
3.6927e-10
9.68036e-11
1.80942e-10
1.39422e-10
1.59611e-10
2.23373e-11
6.46167e-11
-5.74869e-11
3.87217e-11
-1.75946e-10
-1.81413e-10
-3.46746e-10
1.79851e-11
-1.43859e-10
-1.90789e-10
2.6594e-10
1.87676e-10
3.65673e-10
6.62145e-10
9.73352e-10
1.10741e-09
1.79554e-09
2.83157e-09
3.80625e-09
6.06854e-09
9.56245e-09
1.48829e-08
2.29724e-08
3.54877e-08
5.48594e-08
8.52415e-08
1.31812e-07
2.03659e-07
3.14984e-07
4.87121e-07
7.52783e-07
1.16436e-06
1.80044e-06
2.78453e-06
4.30588e-06
6.66057e-06
1.03003e-05
1.59339e-05
2.4643e-05
3.81246e-05
5.8966e-05
9.12316e-05
0.000141114
0.000218343
0.000337744
0.000522608
0.000808431
0.00125096
0.00193516
0.00299446
0.00463223
0.00716775
0.0110876
0.0171556
0.0265343
0.0410521
0.0634757
0.0981946
0.151698
0.234714