/*--------------------------------*- C++ -*----------------------------------*\
| =========                 |                                                 |
| \\      /  F ield         | OpenFOAM: The Open Source CFD Toolbox           |
|  \\    /   O peration     | Version:  2412                                  |
|   \\  /    A nd           | Website:  www.openfoam.com                      |
|    \\/     M anipulation  |                                                 |
\*---------------------------------------------------------------------------*/
FoamFile
{
    version     2.0;
    format      ascii;
    arch        "LSB;label=32;scalar=64";
    class       volScalarField;
    location    "0.002";
    object      ddt0(rho,e);
}
// * * * * * * * * * * * * * * * * * * * * * * * * * * * * * * * * * * * * * //

dimensions      [1 -1 -3 0 0 0 0];

internalField   nonuniform List<scalar> 
180000
(
-3.58309e-06
-3.79198e-05
2.18029e-05
-9.42993e-06
-2.14137e-05
-3.46943e-06
1.94564e-05
8.73709e-06
2.40035e-05
-2.56137e-06
-1.00007e-05
-2.55938e-05
-2.33538e-06
2.47642e-05
-1.4586e-05
1.38795e-05
3.71113e-05
3.82553e-05
7.55655e-05
5.0664e-05
3.88258e-05
1.35092e-05
-7.63131e-06
-3.78009e-05
-2.32108e-05
1.83552e-06
-7.8963e-06
-2.85772e-05
-1.80077e-06
1.15002e-05
9.41223e-06
-5.82853e-05
-4.49467e-05
-7.00759e-05
-3.66439e-05
4.25784e-05
5.07947e-07
-1.30936e-07
-8.34314e-07
-1.19562e-05
7.0375e-07
1.25697e-05
-2.38977e-06
6.91605e-06
1.91357e-05
3.05831e-05
4.29659e-05
5.44461e-05
1.18451e-05
2.52583e-05
-1.07764e-05
-1.18317e-05
1.41824e-06
-1.30182e-05
-6.38317e-05
-4.68335e-05
-1.64228e-05
1.13738e-05
-6.14354e-05
-2.71808e-05
-1.57216e-05
-3.13775e-05
-5.9318e-05
-3.05745e-05
-1.5556e-05
-2.4592e-05
-2.34772e-06
2.17218e-05
1.10368e-05
-2.69971e-05
-8.70806e-06
-1.88211e-05
-4.71418e-05
-2.58088e-05
-2.93653e-05
-7.89747e-06
-1.38145e-05
-3.21009e-06
-4.71706e-05
-1.74572e-05
2.36924e-05
2.88476e-05
3.33949e-06
2.02019e-05
6.59064e-07
-2.82597e-05
-6.11889e-05
-1.09671e-05
6.26123e-06
-2.02993e-05
-3.02574e-06
-3.30773e-05
8.75971e-06
5.29359e-05
4.01756e-05
4.45345e-05
5.72791e-05
5.78765e-05
3.21675e-06
-3.3093e-06
-5.73992e-06
-3.43715e-05
-2.48846e-05
-8.3577e-06
7.66121e-06
4.84997e-05
-2.69627e-06
-5.78227e-07
1.65604e-05
-2.96325e-05
-1.51015e-05
-1.44175e-05
4.26045e-06
-3.01023e-05
6.53168e-06
-5.75636e-06
-5.35385e-05
-2.32532e-05
1.08888e-05
-5.59842e-06
1.52309e-05
2.25364e-05
-1.36425e-05
1.87792e-05
1.09311e-05
-9.65862e-06
1.62132e-05
6.42464e-05
7.52081e-05
7.52595e-05
7.00232e-05
6.14378e-05
1.81983e-06
2.42583e-05
5.40622e-05
3.87148e-05
6.45273e-05
8.63179e-05
8.16772e-05
5.59671e-05
1.79034e-05
2.89226e-05
5.74347e-06
6.16977e-05
3.0962e-05
8.1291e-06
7.02189e-05
3.67948e-05
-4.09913e-05
-3.45628e-06
-8.33775e-06
-2.02235e-05
-2.14494e-05
-5.4499e-05
-2.0759e-05
-8.06969e-06
-4.42957e-05
-5.06129e-05
-3.74501e-05
-1.79692e-05
-5.40281e-05
-4.23101e-05
-4.89443e-05
-3.98444e-05
-6.31652e-05
-3.95437e-05
-4.82148e-05
-2.14904e-05
1.11652e-05
3.69223e-06
-4.9826e-05
-6.2304e-05
-6.12793e-05
-6.77976e-05
-4.05753e-05
-1.68122e-05
6.06629e-06
1.51166e-07
-2.39082e-05
2.76266e-05
-1.36672e-05
-5.45448e-05
-5.92826e-05
-3.76496e-05
-5.46536e-05
-2.62543e-05
2.05451e-05
-5.34142e-05
-3.20618e-05
-2.4834e-06
1.12599e-05
6.89174e-06
-8.91455e-06
2.97392e-05
3.45648e-07
3.13994e-05
3.32518e-05
7.55588e-06
9.62816e-06
-2.32924e-05
1.79729e-05
3.09232e-05
1.21953e-05
2.20205e-05
2.36181e-05
-4.55206e-05
-2.45334e-06
2.66545e-05
2.24576e-05
4.32734e-05
3.41018e-05
3.9227e-05
1.93736e-05
4.2001e-05
3.48177e-06
2.30422e-05
-1.84416e-06
-7.17985e-07
1.35808e-05
1.85165e-05
-6.00444e-06
-2.54796e-06
3.05672e-05
1.27162e-05
3.44046e-05
-9.2414e-06
1.70973e-05
3.97152e-05
4.80184e-05
2.14464e-05
9.22679e-06
4.90548e-05
4.63714e-05
3.74653e-05
1.41563e-05
3.66292e-05
4.84447e-05
4.40793e-05
-6.10321e-06
-2.01415e-06
-6.30647e-06
-7.1588e-06
7.93187e-06
1.06575e-05
4.8807e-05
-3.83149e-06
-5.41744e-05
-4.04428e-05
-3.44612e-05
-1.32317e-05
-1.63352e-05
-2.36344e-05
1.4329e-05
-1.35864e-06
-5.14318e-06
5.0579e-05
4.25384e-05
1.52298e-05
5.28099e-05
3.55293e-05
5.62064e-05
0.000142332
0.000111889
0.000238614
0.000506814
0.000773191
0.00115129
0.00188631
0.003117
0.00498402
0.00802905
0.0128586
0.0206385
0.0330945
0.0532282
0.0853529
0.13718
0.220327
0.35414
0.569064
0.915241
1.47142
2.36759
3.80867
6.1326
9.87276
15.9117
25.645
41.3964
66.8532
108.263
175.588
286.473
469.014
778.842
1301.73
2241.77
3820.41
6789.28
11131.7
1.75662e-05
3.49926e-05
3.25042e-05
-1.16947e-05
-2.18141e-05
-2.38775e-05
1.57149e-05
-3.1108e-05
-3.88238e-05
3.36618e-06
4.65911e-05
1.17044e-05
2.1542e-05
1.46521e-05
1.78559e-05
-8.2589e-06
3.58256e-05
2.92876e-05
-2.94478e-06
1.4588e-05
1.8376e-05
-9.28463e-06
1.43651e-05
1.3668e-07
2.18984e-05
1.7089e-05
3.12085e-05
-1.52111e-05
-2.29917e-05
-1.35279e-05
-9.23916e-06
1.3703e-05
-1.75173e-05
3.25096e-09
4.40452e-06
3.10648e-05
3.82214e-05
1.36e-05
-4.07922e-05
-1.63081e-05
5.17037e-06
9.09215e-06
-2.06243e-05
2.94273e-06
-2.51864e-05
-3.01789e-05
-2.7835e-05
1.64772e-05
2.42744e-05
8.48404e-06
3.54874e-05
2.57835e-05
-1.03683e-05
5.02536e-06
-4.94108e-06
-3.70978e-05
-1.70681e-05
-2.88654e-06
1.59357e-05
5.57945e-05
4.12998e-05
1.39659e-05
4.3462e-05
4.95775e-05
3.86367e-05
-1.48317e-06
5.06144e-05
3.90093e-05
-1.92972e-05
-2.05528e-05
6.40101e-07
5.9635e-06
-3.43323e-06
-1.22697e-05
1.21596e-05
-1.27158e-05
-4.38604e-05
-2.81955e-05
-3.70143e-06
3.82733e-07
-3.12033e-05
-4.91501e-05
-4.90655e-05
-5.29398e-05
-5.96684e-05
-5.78501e-05
-1.76524e-05
5.22826e-06
1.30305e-05
-2.02051e-05
-3.97974e-05
-1.44429e-05
-4.84507e-07
-1.03283e-05
-2.65732e-05
-1.60417e-05
4.66056e-06
1.93116e-05
4.41345e-05
4.27421e-06
-8.17031e-06
-2.02555e-05
1.65985e-05
3.81891e-05
3.23702e-05
2.90489e-05
4.20147e-05
1.46137e-05
7.17838e-05
2.28936e-05
-3.17754e-05
-4.07492e-06
1.09198e-06
-3.85004e-05
-5.64245e-05
-4.08541e-05
-6.45237e-05
-2.08053e-05
1.54343e-06
-2.67693e-05
2.3566e-06
-5.53103e-06
-4.41375e-05
-4.06391e-05
4.4947e-07
-1.55568e-06
-2.96708e-05
-1.78099e-05
8.66402e-06
-3.81795e-05
-4.32481e-05
4.58922e-06
-2.72336e-05
-9.06492e-07
2.17884e-05
-3.87329e-05
-1.32414e-05
1.5485e-05
2.81957e-05
4.28385e-05
2.43053e-05
-4.25096e-06
-5.70477e-05
-6.3252e-05
-9.01058e-05
-4.15271e-05
4.41847e-06
6.24258e-05
5.87684e-05
7.97458e-05
5.50904e-06
-1.02191e-05
-2.18629e-05
1.47445e-05
1.97956e-05
3.33206e-05
6.61094e-05
2.70591e-05
8.58426e-06
-1.49639e-05
-2.07798e-05
-1.70012e-05
-2.45222e-06
1.11515e-06
-7.97451e-06
-1.47138e-05
-3.28038e-05
-3.06245e-05
-4.0329e-07
1.63254e-05
-2.92299e-06
-3.75383e-06
-1.36937e-05
-3.77016e-05
-6.07527e-05
-2.13261e-05
-1.66341e-05
-5.95787e-05
-5.95032e-05
-2.3799e-05
-1.44994e-05
3.93646e-06
-7.4536e-06
-5.00162e-05
-4.94043e-05
-2.40888e-05
-3.29801e-05
-4.74321e-05
-5.95623e-05
-2.28393e-05
1.03756e-05
1.81265e-05
2.55003e-05
2.25199e-06
1.86417e-05
4.46427e-05
4.22956e-05
3.77724e-05
-2.21801e-05
4.2739e-05
5.76564e-05
-6.48927e-06
2.56822e-05
2.0712e-05
-4.31284e-05
-2.38293e-05
-9.01597e-06
2.50706e-05
3.61637e-05
1.48102e-05
6.72289e-05
4.19032e-05
1.53611e-05
1.10159e-05
3.0791e-06
3.26525e-06
1.25443e-05
1.64837e-05
-6.67854e-06
1.33475e-05
1.17205e-05
-2.29863e-05
-2.05278e-05
-5.16398e-05
-5.24186e-05
-4.56728e-05
-4.61501e-05
-4.11195e-05
-7.47707e-05
-2.63693e-05
-1.04315e-05
-7.80219e-05
-0.000114602
-0.000100961
-5.68545e-05
-3.52343e-05
-1.54421e-05
-2.17476e-05
-5.95072e-05
-5.32904e-05
-2.40434e-05
-2.00478e-05
8.72267e-06
-1.77039e-05
1.76746e-05
-1.90077e-05
-4.16286e-05
-2.99112e-05
5.54459e-06
-5.3176e-06
-1.52293e-06
7.11468e-06
-2.68722e-05
-2.6812e-05
1.62648e-06
4.71388e-05
3.34352e-05
-1.33836e-05
1.07334e-05
3.45682e-05
7.25449e-05
9.87583e-05
0.00018357
0.000261666
0.000386909
0.000684458
0.00116376
0.0018778
0.00299857
0.00478029
0.00760424
0.0121797
0.0195499
0.0313837
0.050266
0.0805345
0.129248
0.207137
0.332357
0.533068
0.855372
1.37185
2.20175
3.53198
5.66995
9.09796
14.6102
23.4541
37.691
60.5656
97.4946
157.046
253.893
411.199
671.553
1102.17
1843.53
3061.68
5221.59
8469.57
-3.7261e-05
-4.22119e-05
1.92735e-05
2.23454e-05
-4.06275e-06
6.17984e-06
-5.1035e-06
-2.37299e-05
-1.80679e-05
-1.60013e-05
-4.02361e-06
-2.83162e-05
1.54297e-05
2.70744e-05
1.71288e-05
-7.25045e-06
1.22599e-05
-1.90955e-06
-4.07332e-05
-5.78697e-05
-2.22869e-05
1.93847e-06
3.63061e-05
8.80298e-06
-6.84121e-06
-4.52745e-06
-1.35242e-05
-5.55596e-06
-1.76008e-05
2.8034e-05
1.49298e-05
3.21901e-06
2.3217e-05
1.34855e-07
-4.22746e-05
-5.63642e-05
2.57368e-05
-3.29043e-05
-2.64435e-05
4.35843e-05
-4.31246e-05
-1.75675e-05
-8.2843e-06
2.9048e-05
5.81264e-05
5.07417e-05
2.43992e-05
-1.70297e-05
-2.01539e-05
-1.51282e-06
-3.49276e-05
-2.51772e-05
-2.86225e-05
-2.30972e-05
4.55727e-05
3.91941e-05
5.07648e-05
3.32525e-05
3.37261e-05
1.96384e-05
1.35975e-05
2.87469e-05
1.10264e-05
-1.15779e-05
-1.42943e-05
2.93808e-05
3.03273e-05
1.83785e-05
9.18864e-06
-2.5656e-06
-3.02594e-06
-2.13213e-05
-7.95982e-06
-3.74364e-05
-3.36191e-05
-2.13385e-05
-3.35142e-05
-3.8006e-06
3.15337e-06
5.89256e-06
-7.5076e-07
2.43296e-06
-3.24765e-05
2.76414e-06
-2.98063e-05
-2.74513e-05
-2.61033e-05
-3.34933e-05
-3.09634e-05
-2.04647e-05
-6.0199e-05
-6.69249e-05
-4.01656e-05
-4.05819e-05
-2.93127e-05
-7.71957e-06
1.40612e-05
4.22451e-05
3.63382e-05
2.36769e-06
-1.82372e-05
4.75641e-05
5.75163e-05
-1.8593e-05
-2.88383e-05
6.2104e-06
-1.65683e-05
-5.03396e-05
-7.59152e-05
-1.22331e-05
6.3831e-06
3.12108e-05
4.89613e-05
2.87193e-05
4.87071e-05
5.68296e-05
2.41972e-05
3.11394e-05
-1.98078e-05
-1.21985e-05
6.37668e-06
2.40507e-05
2.15735e-06
2.09987e-05
1.72716e-05
2.17188e-06
3.70747e-05
1.31315e-05
-1.11347e-05
-1.11118e-05
5.41928e-05
4.28973e-05
2.85433e-05
1.73345e-05
-1.69748e-05
1.75865e-05
-1.5274e-06
1.15147e-05
-4.96645e-05
-1.22118e-05
-3.46648e-05
-4.88637e-05
-2.6129e-05
2.11351e-05
3.12286e-05
2.07834e-05
2.22031e-05
6.42611e-07
-6.62628e-06
-3.71096e-05
-3.98146e-05
-3.75989e-05
-2.44867e-05
1.57956e-05
-5.02805e-06
3.68868e-05
6.89561e-05
8.57096e-05
4.75918e-05
4.0884e-05
5.25814e-05
2.86932e-05
3.33654e-06
-6.67212e-06
-5.85023e-06
-2.94276e-06
1.54787e-06
3.24753e-05
8.7188e-05
4.23469e-05
2.06982e-05
6.41613e-06
6.63409e-06
-1.97073e-06
-3.17391e-05
-5.30528e-05
-2.17296e-05
-1.67749e-05
-3.08342e-05
-8.95663e-05
-7.16204e-05
-5.23957e-05
-6.00622e-05
-3.55115e-05
-2.31961e-05
1.91461e-05
3.18122e-05
-7.08067e-06
-3.66208e-05
-6.00758e-05
-2.86235e-05
-3.6526e-05
-4.19624e-05
-3.24251e-05
-3.50204e-05
-2.78205e-05
-3.54953e-05
-2.83453e-05
-2.93154e-05
-1.42049e-05
3.76486e-07
-3.23825e-05
-7.617e-05
-6.97598e-05
3.5893e-07
1.72121e-05
2.72694e-05
3.60213e-05
7.55598e-06
6.42625e-06
2.04006e-05
-4.57942e-06
4.0515e-06
4.19904e-05
3.5259e-05
3.10619e-05
4.74652e-05
4.36152e-05
3.8241e-05
2.73728e-05
1.9259e-05
-4.81459e-05
-5.31536e-05
-6.64798e-06
-1.71567e-05
-2.10824e-05
-5.12825e-05
-5.70966e-05
-2.29976e-05
-8.27104e-07
-4.0155e-05
-4.48248e-05
-4.39078e-05
-2.47427e-05
3.98178e-05
2.48459e-06
-1.85558e-05
3.17059e-06
3.37608e-05
1.24325e-05
-5.26534e-05
-3.7672e-05
-1.0607e-05
5.07869e-05
4.18928e-07
-3.74e-05
2.94402e-05
8.33829e-05
4.96317e-05
3.14423e-05
3.1364e-05
2.45175e-05
4.5091e-05
2.71628e-05
3.58146e-05
4.19425e-06
-1.59409e-05
1.70595e-05
6.07867e-05
5.55997e-05
0.000105908
0.000115191
0.000180229
0.000275217
0.000471025
0.000701077
0.00108021
0.0017334
0.00275902
0.00439438
0.00692561
0.0110589
0.0177241
0.0283577
0.0453417
0.0725385
0.11611
0.185685
0.297102
0.475142
0.760329
1.21594
1.94566
3.11145
4.97858
7.96137
12.7392
20.3727
32.6063
52.1633
83.5622
133.851
215.007
345.364
558.566
904.248
1491.38
2425.68
4086.61
6501.15
-2.14373e-05
2.99983e-06
-5.8952e-06
-3.32231e-06
1.24035e-05
4.72293e-07
1.05171e-06
-4.59621e-05
-3.83278e-05
2.52046e-06
6.17281e-06
-1.66452e-05
-5.05481e-05
-5.75705e-05
-1.77084e-05
-2.633e-05
-4.58113e-05
-1.54984e-05
-2.95081e-05
-7.45565e-06
-1.67086e-05
3.88785e-05
1.74345e-05
-3.98868e-05
-3.17159e-06
1.73229e-05
-6.74944e-06
-2.69333e-06
2.62447e-06
-9.85065e-06
1.2254e-05
1.19921e-05
1.22243e-05
-2.4969e-05
-5.3191e-06
1.46795e-05
3.70515e-05
3.14954e-05
3.94012e-05
6.21042e-05
3.57062e-05
3.19794e-05
1.94075e-05
6.56446e-05
9.42431e-05
5.20153e-05
3.48436e-05
-3.15343e-05
-5.3875e-05
-7.56209e-05
-5.78659e-05
-4.42546e-05
-5.61978e-05
-4.36861e-05
-1.62095e-05
6.01644e-06
3.15253e-05
3.3442e-05
3.51043e-05
2.50116e-05
7.07383e-05
4.37441e-05
3.16669e-05
2.24809e-05
-8.5529e-06
-1.30585e-05
8.48965e-06
-2.33865e-05
-1.33457e-05
-9.65065e-06
2.64033e-05
-2.27809e-05
4.60976e-06
-4.79606e-05
9.39284e-06
3.65114e-05
-3.18617e-06
5.84479e-06
-2.6068e-05
-4.03683e-05
-1.1422e-05
-1.23233e-05
-2.12966e-05
-6.06613e-05
-4.48648e-05
-2.85728e-05
-1.54956e-05
-4.91294e-05
-7.68771e-05
-3.511e-05
-8.06176e-06
-1.8997e-05
8.25354e-06
2.41283e-05
-1.84954e-05
-6.87322e-06
2.34305e-05
-1.88445e-05
2.04999e-06
2.3236e-05
1.00822e-05
-2.4904e-05
-4.49332e-06
-2.18717e-05
1.6969e-05
-1.34061e-05
-1.18687e-06
2.35932e-05
4.14948e-05
5.38251e-05
6.50107e-06
1.69732e-05
4.66018e-05
3.48481e-05
3.61414e-05
-7.38836e-06
-3.66977e-05
1.58254e-05
2.76078e-05
6.2227e-05
6.33324e-05
3.17414e-05
2.72956e-05
9.87897e-06
2.80482e-07
-2.23446e-06
-2.91459e-05
-5.14981e-05
-4.19492e-05
-1.22713e-05
-3.71731e-06
-2.32148e-05
-1.40816e-05
-2.40122e-05
-9.13256e-06
-3.78085e-05
7.3858e-07
4.80424e-05
2.00901e-05
-8.48335e-07
3.42747e-05
1.25628e-05
3.78824e-05
4.88939e-07
2.93419e-06
1.42888e-05
-3.6208e-05
3.13977e-07
-7.76337e-07
-6.20622e-06
2.94312e-06
5.82041e-05
1.03779e-05
8.99324e-06
-2.96359e-05
-4.87237e-06
-7.376e-06
-4.33076e-05
-5.23328e-05
8.01584e-06
2.86879e-05
3.69071e-05
1.9013e-05
2.37278e-05
1.8463e-05
4.41453e-05
1.8376e-05
1.36734e-05
4.99113e-05
2.12016e-05
-6.94901e-07
-4.17821e-06
2.66087e-05
2.89095e-05
1.58348e-05
-4.71544e-05
-3.1509e-05
2.25936e-05
-2.09071e-05
-7.11309e-05
1.01957e-06
5.49034e-05
2.1524e-06
1.98131e-05
1.68562e-05
2.70488e-05
5.24604e-06
2.52645e-05
3.28573e-05
9.87385e-07
-1.9784e-05
-1.67917e-07
-1.74922e-05
2.24293e-05
4.18256e-05
2.52656e-05
4.94686e-05
1.89822e-05
3.38129e-06
-3.20844e-05
6.71574e-06
-5.60469e-06
3.41631e-06
-1.46339e-05
-2.38743e-06
-7.83985e-06
5.39923e-06
-2.80173e-05
-2.56095e-05
-1.04296e-06
5.82393e-06
-3.67784e-05
-1.61354e-05
1.13408e-05
1.77429e-05
1.71523e-06
7.28095e-07
1.61761e-05
6.38539e-06
2.66454e-06
1.6039e-05
-1.25588e-05
7.50656e-06
1.60573e-05
-1.75506e-05
-1.42188e-05
-7.15256e-06
1.62014e-05
-1.77332e-05
1.07125e-05
2.07504e-05
3.0312e-05
2.75515e-05
7.31645e-06
4.01598e-06
-3.27074e-07
-2.67866e-05
-3.1042e-05
-3.20777e-05
-1.45328e-05
2.64956e-05
2.1309e-05
5.65106e-05
-2.45629e-06
-4.26327e-05
-5.30435e-05
-3.40113e-05
3.67157e-06
3.68904e-06
2.62581e-05
4.31966e-05
4.26422e-05
-7.09799e-06
3.32512e-05
1.02182e-05
1.36012e-06
2.66248e-05
-3.51563e-06
4.67502e-05
3.75313e-05
4.15372e-05
0.000104475
0.000147165
0.000242635
0.000341501
0.000569303
0.000884096
0.0014463
0.00237792
0.00375972
0.0060194
0.0096413
0.0154192
0.0246108
0.039338
0.0627686
0.100238
0.159891
0.255174
0.406975
0.649355
1.03529
1.65149
2.63258
4.19837
6.69067
10.6678
16.9968
27.0975
43.1708
68.8498
109.739
175.301
279.687
448.792
718.928
1172.47
1875.79
3117.85
4855.42
-1.9874e-05
-3.89313e-06
-6.27257e-06
2.03713e-05
1.05533e-05
6.36045e-07
3.47479e-05
-5.58944e-06
4.47493e-05
4.43853e-05
-1.48693e-06
-4.01568e-06
-1.32262e-05
-3.79384e-05
5.09792e-06
4.00082e-05
8.7575e-06
-9.69872e-06
-2.36759e-05
4.64693e-05
5.54247e-05
4.8079e-05
2.86351e-05
3.93931e-05
8.13218e-05
1.4803e-05
-4.5472e-06
-1.43074e-06
-1.51356e-05
8.38308e-06
-5.28144e-05
1.44526e-06
-1.69306e-05
-8.02515e-06
-1.31724e-05
-2.76343e-05
-5.51325e-05
-5.23473e-05
7.15902e-07
-2.14191e-05
-6.8939e-05
-6.63336e-05
-7.5476e-05
-2.29806e-05
-5.23395e-05
-2.48333e-05
-5.2896e-05
-6.68676e-05
-3.17687e-05
2.44329e-05
1.85104e-05
-2.52867e-06
4.18251e-05
2.54497e-05
6.4989e-06
-1.70319e-06
2.17463e-05
-2.5179e-05
-6.04259e-06
6.70798e-05
5.61735e-05
2.15353e-05
1.3136e-05
-1.41018e-05
-7.66608e-05
-7.19135e-05
-5.17615e-05
-1.87682e-05
1.9524e-05
-1.69758e-05
-1.41396e-05
1.40774e-05
-1.90214e-05
-3.02852e-05
-3.52044e-05
-3.86086e-05
-2.45905e-05
-5.0674e-06
-1.62999e-05
1.76932e-05
-1.35159e-05
-2.84144e-05
-4.62294e-05
-3.71823e-05
6.0862e-06
-9.35798e-06
-2.94971e-05
-6.67712e-05
-2.51029e-06
-3.11131e-05
-1.75228e-05
-4.88837e-05
-7.57286e-05
-8.13544e-05
-1.60012e-05
1.12793e-05
-2.25344e-05
-3.87259e-05
-5.71572e-05
-6.26166e-05
-2.85425e-05
-7.39366e-06
2.6343e-05
4.16901e-05
6.00399e-05
4.31983e-05
5.24922e-05
5.53264e-05
2.91799e-05
3.24977e-05
1.59127e-05
8.64543e-06
4.28631e-05
2.25053e-05
-2.62238e-06
-5.11825e-05
-5.28683e-05
6.9099e-06
-5.82817e-05
-2.6147e-05
-1.53257e-05
-1.65272e-05
-3.37622e-05
-7.78923e-07
3.34754e-05
3.08838e-05
5.95301e-06
-2.24398e-05
-2.94206e-05
-2.49916e-05
-6.18631e-05
-1.54788e-05
4.70279e-05
2.10285e-05
-2.81951e-05
-1.70559e-05
-6.15357e-07
1.47686e-05
-1.97527e-05
-2.92527e-06
-3.91128e-05
-2.47527e-05
-2.23204e-05
1.82689e-06
1.16586e-05
-6.49321e-06
-7.24416e-07
-2.58675e-05
-5.7764e-05
-3.21375e-05
-5.98734e-05
-5.10987e-05
-3.0813e-05
-3.03829e-05
-4.14978e-05
-7.45163e-05
-3.88554e-05
-2.09975e-05
9.16701e-06
3.49619e-05
4.6336e-05
2.07051e-05
6.06453e-05
5.20652e-05
3.20189e-05
5.3346e-05
2.50239e-05
2.22113e-05
2.77961e-05
2.47675e-05
3.70517e-05
2.14402e-05
1.231e-05
2.70783e-05
1.84857e-05
3.9217e-05
1.98049e-05
2.60798e-05
8.62013e-05
7.36666e-05
3.87819e-05
5.72402e-06
2.89297e-06
1.92274e-05
2.64845e-05
7.60689e-06
-8.02276e-06
-3.7377e-05
-1.55523e-05
-2.06558e-05
-5.08134e-05
-3.72088e-05
-6.2211e-05
-5.46074e-05
-2.2806e-05
1.15007e-05
3.61284e-07
-4.99983e-05
-5.71942e-05
-1.08456e-05
-5.96903e-06
5.60167e-08
-2.70455e-05
-7.92333e-06
1.52917e-05
2.43911e-05
-1.69484e-05
-3.25826e-05
-5.02035e-05
-2.62237e-05
-5.70939e-05
-6.49029e-06
-5.17274e-05
-3.55172e-06
1.1235e-05
-4.17012e-05
-2.34587e-05
2.09342e-05
3.62267e-05
2.23203e-05
2.15508e-05
1.52301e-05
4.83162e-05
3.44915e-05
1.92135e-05
9.83065e-06
1.89484e-05
-3.90585e-05
-1.28397e-05
-2.83192e-06
3.50003e-06
2.28215e-05
3.97445e-05
-1.82195e-05
-1.85667e-05
-1.63944e-05
-1.24087e-06
2.44846e-05
-7.84506e-06
1.12298e-05
1.62263e-05
3.01636e-05
-4.28547e-05
-7.54509e-05
-5.30675e-05
-6.62799e-05
-8.06731e-05
-4.8813e-05
-3.46074e-05
-2.67569e-05
-3.04396e-05
-2.95523e-05
4.77226e-06
-4.24845e-05
-3.80342e-05
-8.35186e-06
2.31385e-05
2.30506e-07
2.48537e-05
7.77224e-05
5.70981e-05
0.000106706
0.000111017
0.000185824
0.000357451
0.000449618
0.000814665
0.00129438
0.00208533
0.00324503
0.00511153
0.00819787
0.0130434
0.0208063
0.0331729
0.0527991
0.0840629
0.133707
0.21283
0.338581
0.538769
0.856668
1.36287
2.16639
3.44514
5.47436
8.70283
13.8245
21.972
34.893
55.4616
88.0793
140.148
222.56
355.234
565.084
914.757
1446.84
2380.02
3635.77
6.26585e-06
1.15948e-05
-2.68113e-05
-3.81454e-06
5.73288e-06
7.29629e-06
-9.64405e-06
4.51283e-05
-1.978e-05
-6.6761e-06
-5.70186e-06
6.75728e-06
-2.31146e-05
2.23442e-06
2.38153e-05
3.08072e-05
-4.57813e-06
-4.15165e-06
-1.04027e-05
-7.07936e-05
-3.90992e-05
-7.2927e-06
-1.80928e-05
-4.14431e-05
-5.14774e-05
-1.79699e-05
-2.48946e-05
-7.1674e-05
-6.15645e-05
-8.41327e-05
-2.71523e-05
-5.53923e-06
-4.70176e-05
-1.32079e-05
2.20553e-05
1.14904e-05
-4.34323e-05
9.35738e-06
-1.73967e-05
3.63608e-05
2.42412e-05
2.01008e-05
2.19342e-05
1.99376e-05
2.54047e-06
2.38748e-06
2.75959e-05
4.9582e-05
4.56124e-05
5.3122e-05
5.09707e-05
7.74149e-05
2.88636e-05
3.79154e-05
4.36512e-05
8.89034e-05
6.99372e-05
5.09105e-05
3.99618e-05
2.96113e-05
-7.12863e-07
9.69234e-06
1.48826e-05
2.17352e-05
5.55775e-05
2.23602e-06
-1.89125e-05
-4.89282e-05
-1.92136e-05
-1.37724e-06
-3.04974e-05
-1.54187e-05
3.46308e-06
-7.97484e-06
1.39618e-05
1.70078e-05
6.91275e-05
4.01423e-05
4.23095e-05
3.92628e-05
3.61582e-05
5.00552e-05
5.11123e-05
2.38327e-05
1.0836e-05
1.26014e-05
1.4009e-05
2.09824e-05
1.50792e-05
-8.5409e-06
1.77163e-05
1.03294e-05
-5.54586e-06
3.31117e-05
1.54706e-05
4.12558e-06
-4.1434e-06
-4.52416e-06
2.47632e-05
-1.18389e-05
-1.7798e-05
2.78809e-05
2.27912e-05
-1.52592e-05
-5.86363e-05
-5.35626e-05
3.20325e-06
3.70637e-05
3.29302e-05
8.40967e-06
-1.63728e-05
2.94415e-05
3.02194e-05
2.31272e-05
2.92096e-05
1.54499e-05
1.07645e-05
1.72806e-05
5.74246e-06
3.64464e-05
1.35106e-05
-1.65701e-05
-2.24713e-05
9.83431e-06
-2.4666e-05
-1.57938e-05
-5.33672e-06
3.58728e-06
6.43361e-07
1.90138e-05
-1.84081e-05
-6.98599e-06
1.48215e-05
4.97956e-05
3.34268e-05
-1.99775e-05
1.55179e-05
4.93865e-05
1.27723e-05
3.04405e-05
5.9747e-05
8.12054e-05
9.69462e-05
5.40254e-05
3.12531e-05
7.3779e-06
4.16985e-05
2.39003e-05
1.25186e-06
1.77612e-07
-1.45339e-05
1.18838e-05
-9.22108e-06
-4.50737e-05
5.82705e-06
-1.72964e-05
-7.53676e-05
-8.96963e-05
-8.51192e-05
-5.57192e-05
-1.4477e-05
1.69374e-05
4.41474e-05
6.26929e-05
2.48132e-05
-1.69295e-05
2.82762e-05
8.72724e-06
3.2552e-05
7.34596e-07
2.01973e-05
2.70395e-05
2.66016e-05
2.793e-05
4.34021e-05
4.6332e-05
4.288e-05
1.93229e-05
-2.51593e-05
-4.08853e-05
-1.41457e-05
-3.73507e-05
-4.8506e-05
-3.95789e-05
-6.15667e-05
-4.48262e-05
-1.01843e-05
-3.05172e-06
-1.08911e-05
2.67318e-05
2.92213e-05
-3.75205e-06
4.31998e-05
3.71094e-05
2.41618e-05
3.70621e-05
2.99375e-05
4.22634e-05
1.15057e-05
1.02085e-05
3.19854e-05
1.87075e-05
1.74734e-05
3.19318e-05
4.5701e-05
1.85389e-05
2.69601e-05
5.75978e-05
5.93167e-05
6.98853e-06
7.56768e-06
4.56141e-05
4.2397e-05
6.25987e-05
3.14581e-05
3.74262e-05
7.42045e-05
7.452e-05
2.76975e-05
3.55005e-07
-2.3415e-07
8.35507e-07
-2.67065e-05
-2.06599e-05
9.75617e-07
-8.34699e-05
-6.34546e-05
-5.68684e-05
-4.78702e-05
-4.95974e-05
-2.05737e-05
-2.46382e-05
-2.75661e-05
-2.96537e-05
-5.53223e-05
-5.48296e-06
-4.09002e-05
4.36565e-06
1.29139e-05
4.19991e-06
7.00014e-06
-1.72131e-05
-2.71432e-05
-7.43993e-06
8.68257e-06
-1.0696e-05
7.6418e-06
3.90373e-05
4.28058e-05
6.43819e-05
3.80102e-05
-8.62219e-06
-1.21021e-05
-6.72509e-05
-7.83671e-05
-1.61212e-06
4.89386e-05
5.32752e-05
4.08385e-05
4.91662e-05
5.81043e-05
6.96585e-05
9.21738e-05
0.000145578
0.0002267
0.000428875
0.000680405
0.001043
0.00165543
0.00264887
0.00426411
0.00681522
0.0108117
0.0171633
0.0273215
0.04337
0.0688682
0.10931
0.173581
0.275515
0.437507
0.694063
1.10155
1.74698
2.77169
4.39399
6.96898
11.044
17.511
27.741
43.9837
69.6669
110.542
174.979
278.29
440.618
709.728
1113.8
1818.09
2734.16
4.6685e-06
-1.06276e-05
-3.85722e-06
-1.23239e-05
-1.16298e-05
-1.44093e-06
4.69894e-06
7.66109e-06
2.15427e-05
-1.07508e-05
-2.94215e-06
-9.63669e-06
-4.48941e-05
-1.32983e-05
8.92099e-06
-6.60667e-06
-6.33966e-06
-1.63991e-05
6.33935e-06
-2.57923e-05
-2.19295e-05
-1.57265e-05
-9.17201e-06
3.07001e-05
3.9013e-05
2.06603e-06
2.4537e-05
1.76055e-05
2.17187e-05
-9.05142e-06
2.91433e-06
2.07961e-06
-4.28248e-06
9.25175e-07
-3.97129e-05
-1.68337e-05
-3.34321e-06
1.28923e-06
-1.99712e-05
1.4732e-05
1.79689e-05
2.30981e-05
1.95089e-05
1.32849e-05
4.10819e-05
6.19405e-05
1.11493e-05
2.47998e-05
3.55429e-05
3.13757e-05
4.60555e-05
5.01661e-05
2.43218e-06
1.91306e-05
-6.79211e-06
-6.94222e-06
-1.08773e-06
-2.71687e-05
-2.94268e-05
-1.46162e-05
4.90932e-05
6.35257e-06
-8.01785e-06
-1.34436e-05
-1.20427e-05
-2.09934e-05
-1.63703e-05
-3.46597e-06
6.36978e-06
2.41293e-05
-7.39994e-06
9.2209e-07
-3.56756e-05
-2.28625e-05
-1.32989e-05
-2.86875e-05
-1.48306e-05
-8.75167e-06
-4.90538e-05
-2.19742e-05
-3.65891e-05
-4.7341e-05
-2.5801e-05
-1.95937e-05
1.25644e-05
-1.42507e-05
-2.63364e-05
9.31115e-07
-6.49388e-06
7.81152e-06
1.87233e-05
4.04297e-05
2.54056e-05
4.23445e-06
-1.88865e-05
3.61973e-06
-1.6207e-05
-3.69549e-05
-1.62809e-05
-8.31325e-06
4.01831e-05
4.92007e-05
6.78568e-05
3.1051e-05
1.11026e-05
-3.0258e-05
-2.44193e-05
-1.6233e-05
3.20365e-05
4.35449e-05
3.0012e-05
-1.59811e-05
-3.31656e-05
-2.81771e-05
-7.8598e-06
9.92055e-06
3.34993e-05
4.55979e-05
-1.48387e-05
-2.046e-05
1.60043e-05
9.12147e-06
-2.84765e-05
-1.49712e-05
1.27833e-05
2.29677e-05
-1.77784e-05
-3.66719e-05
-3.80068e-05
-3.8438e-05
-1.51092e-05
2.76697e-06
3.65828e-05
1.14849e-05
1.78098e-05
2.42671e-05
1.79571e-05
-7.25104e-06
4.06224e-06
2.27222e-05
-1.0054e-05
-3.397e-05
-3.21634e-05
4.5923e-06
-6.38637e-06
1.31992e-05
-3.68729e-05
-1.22868e-05
1.50194e-05
4.54665e-06
4.32078e-05
5.42312e-05
4.58166e-05
2.55988e-05
1.32654e-07
4.53517e-06
-6.60821e-05
-8.70287e-05
-5.87983e-05
-4.49153e-05
-2.23073e-05
-1.25756e-05
-3.86366e-07
-1.99985e-05
-3.82402e-05
-2.7704e-05
1.36325e-05
3.27771e-05
-5.14593e-06
1.16458e-05
-4.26164e-05
5.78439e-06
4.35355e-05
3.9667e-05
5.65524e-06
-5.56653e-06
3.80809e-06
1.41224e-05
-1.20885e-05
1.05258e-05
-1.48924e-05
4.76481e-05
3.08289e-05
5.48045e-05
5.84951e-05
2.41051e-05
4.18799e-05
3.21868e-06
6.27509e-07
8.63373e-06
-1.51819e-05
2.14454e-05
6.24464e-06
-3.15369e-05
-3.87504e-05
-5.34575e-05
-0.000118707
-7.29887e-05
-3.0207e-05
-1.1682e-05
1.11877e-05
-2.35031e-05
-4.04548e-05
-4.26309e-05
-8.28503e-06
-4.45819e-05
-1.15565e-05
4.04778e-05
2.75869e-05
-2.54809e-05
5.21858e-05
5.01926e-05
1.17479e-05
-1.27381e-05
-1.79076e-05
-2.49318e-05
1.7737e-05
-2.3129e-06
-1.54741e-05
1.63633e-06
-4.17077e-05
-3.08207e-05
-5.76633e-05
-5.35325e-05
-2.80132e-05
-2.29755e-06
-1.99872e-06
7.17946e-06
6.10359e-05
9.32806e-05
3.03063e-05
5.58474e-06
1.4922e-05
-5.83238e-05
-1.23769e-05
9.01363e-06
1.66604e-06
-2.21175e-05
-5.11297e-07
-2.69794e-06
1.08175e-05
-4.85061e-05
-3.96128e-05
-5.9806e-05
-2.96371e-05
-2.63005e-05
-7.89103e-05
-1.1351e-05
-5.35288e-06
-1.35047e-05
-4.68543e-05
-7.19741e-05
-5.98659e-05
-7.7451e-06
1.72338e-05
-3.38317e-06
7.07565e-06
1.73904e-05
4.98279e-05
3.3052e-07
3.55914e-05
4.07846e-05
9.05503e-05
7.70389e-05
0.000194523
0.000345206
0.000541812
0.000839439
0.0014013
0.00223212
0.00352872
0.00553384
0.00877676
0.0138931
0.022044
0.0349394
0.0554173
0.0878963
0.139313
0.220645
0.349648
0.553593
0.877007
1.38823
2.19847
3.47895
5.50746
8.71211
13.7887
21.8046
34.5085
54.5559
86.3943
136.454
216.49
341.702
548.57
856.354
1390.07
2065.82
1.00796e-05
2.53141e-05
-5.73962e-07
-1.53246e-06
2.28024e-05
4.16636e-05
-9.66404e-06
2.97401e-05
4.68192e-05
4.06739e-05
2.36254e-05
-9.93905e-06
-2.65295e-05
-6.323e-06
-6.20048e-05
-2.13125e-05
-3.36212e-05
-3.06778e-05
-3.60098e-05
-6.5311e-06
5.49961e-06
-1.74901e-05
-4.63495e-05
-3.97677e-05
2.69424e-05
1.2775e-05
-9.87177e-07
3.4236e-05
1.7098e-05
-8.33405e-08
3.39338e-06
-7.55056e-06
1.87197e-05
2.01336e-05
4.75455e-05
3.03622e-05
-3.70611e-06
3.52406e-05
2.92739e-05
-2.04468e-06
4.69259e-05
7.89067e-05
5.40368e-05
2.99348e-05
4.49555e-05
1.89675e-05
8.07744e-06
-2.63005e-06
2.54761e-07
-5.85835e-06
-2.32003e-05
-2.64179e-05
9.26602e-06
2.08421e-05
5.02639e-05
1.15449e-05
1.97317e-05
8.46392e-06
-1.64523e-05
-1.86539e-05
-2.11484e-05
-5.50819e-05
-4.17467e-05
-4.06667e-06
-2.39154e-05
-3.7403e-06
2.97977e-05
-1.69343e-05
1.47282e-05
1.2618e-05
2.44763e-05
4.32767e-05
3.29321e-05
2.53346e-05
-1.54004e-05
-4.11804e-05
-3.14605e-05
-2.11315e-05
-2.51855e-05
-1.09398e-05
-3.44914e-05
-1.12702e-05
-1.2906e-05
1.55059e-05
-6.0121e-06
-3.5595e-05
-5.98899e-06
-1.19714e-05
4.32542e-06
-2.04842e-05
-1.73951e-06
-3.81568e-06
-9.40303e-06
-2.75105e-05
-5.45007e-05
-2.97186e-05
-1.28546e-05
1.81219e-05
-1.80925e-05
-5.21877e-06
-6.66179e-05
-5.5438e-05
-5.29224e-06
1.40323e-05
3.05699e-05
-1.96531e-05
-5.94412e-06
3.71448e-06
1.41091e-05
1.05013e-05
-1.22232e-05
-1.58e-05
-4.25974e-05
-8.00326e-06
-2.8621e-05
-4.97884e-05
-3.53289e-06
-2.22597e-05
5.36807e-05
6.73241e-05
4.71169e-05
1.97099e-05
1.76352e-05
1.14222e-05
-3.48234e-06
1.06591e-05
-5.75248e-05
-4.29101e-05
-8.6817e-06
-2.26626e-05
-7.83132e-05
-6.69739e-05
2.27183e-05
1.34011e-05
-2.92739e-05
-5.65039e-06
-1.01199e-05
4.66743e-05
1.52221e-05
2.93689e-06
1.07507e-05
9.86111e-06
-1.07254e-05
-2.72723e-05
-4.86163e-05
2.95895e-06
-4.05838e-06
-1.57424e-05
-8.83667e-06
2.35053e-05
8.40549e-06
4.99748e-07
1.67523e-08
2.21804e-05
3.15122e-06
-1.96625e-05
-1.7447e-05
-1.32812e-05
1.88195e-06
-3.90634e-05
-1.78886e-05
-1.38939e-06
1.29018e-05
-7.19533e-06
-9.14559e-06
2.04223e-05
3.61738e-05
6.9627e-06
1.58121e-06
2.40944e-05
6.51982e-05
1.71425e-05
4.98218e-05
5.37811e-05
1.4754e-05
4.37947e-05
-3.80958e-06
-1.18454e-05
-2.99515e-05
-1.76237e-05
9.3081e-06
3.42725e-05
-1.88409e-05
3.5226e-05
1.48545e-05
4.17328e-05
4.05544e-05
4.6859e-05
1.96341e-05
-1.08555e-06
-1.06255e-05
-1.94718e-05
3.27364e-05
2.45541e-06
1.76738e-05
5.24006e-05
6.63726e-05
3.20007e-05
7.15909e-06
1.84733e-05
2.45272e-05
-2.48455e-05
1.06132e-05
-1.44442e-05
4.69196e-05
4.17432e-05
-1.25148e-05
3.88446e-06
1.30653e-05
9.02455e-07
-1.71049e-06
4.45775e-05
5.18036e-05
2.63526e-05
1.74177e-05
1.00918e-05
-1.09934e-06
-5.70896e-06
6.79431e-06
1.37825e-05
-2.17084e-05
-2.74222e-05
-2.49896e-05
1.0027e-05
4.8986e-05
3.66689e-05
-6.22266e-06
-2.86436e-05
-1.88136e-05
-2.06552e-05
-1.43115e-05
-4.9093e-05
-1.24231e-05
-9.44546e-06
3.12146e-05
1.94726e-06
2.44384e-05
4.31315e-05
-5.77043e-06
-6.82916e-06
1.49591e-06
-1.38693e-05
-1.49851e-05
-4.54981e-05
-2.22109e-05
-8.74683e-05
-4.58293e-05
-6.0479e-05
-1.35217e-05
-9.01043e-06
-9.55035e-07
2.61609e-05
-1.47899e-05
-5.43326e-05
-8.11728e-06
1.21203e-08
-8.30911e-06
1.76993e-05
4.30683e-05
5.59662e-05
7.39293e-05
8.28146e-05
4.6023e-05
8.3418e-05
0.000201378
0.000290429
0.00046769
0.000687537
0.00110966
0.00174477
0.00273711
0.00441632
0.00703743
0.0110944
0.0175659
0.0278287
0.0439995
0.0696923
0.110317
0.174463
0.276078
0.436473
0.690312
1.09115
1.72549
2.72649
4.31035
6.8089
10.7617
16.9949
26.86
42.4055
67.0579
105.748
167.489
263.794
422.519
657.22
1062.61
1565.7
1.72682e-05
-1.54433e-06
2.51262e-05
1.08558e-05
7.11083e-06
4.25546e-05
8.01807e-06
-1.11109e-05
3.07765e-06
-1.13499e-05
8.05219e-07
-5.70637e-05
-2.35932e-05
-4.0628e-06
6.89643e-06
-3.05315e-05
-1.98593e-05
2.28369e-05
1.20006e-05
-3.67528e-05
-1.61268e-05
8.7318e-06
-1.94633e-05
5.17771e-06
1.16712e-05
1.9907e-05
-4.90023e-06