/*--------------------------------*- C++ -*----------------------------------*\
| =========                 |                                                 |
| \\      /  F ield         | OpenFOAM: The Open Source CFD Toolbox           |
|  \\    /   O peration     | Version:  2412                                  |
|   \\  /    A nd           | Website:  www.openfoam.com                      |
|    \\/     M anipulation  |                                                 |
\*---------------------------------------------------------------------------*/
FoamFile
{
    version     2.0;
    format      ascii;
    arch        "LSB;label=32;scalar=64";
    class       volScalarField;
    location    "0.002";
    object      ddt0(rho,K);
}
// * * * * * * * * * * * * * * * * * * * * * * * * * * * * * * * * * * * * * //

dimensions      [1 -1 -3 0 0 0 0];

internalField   nonuniform List<scalar> 
180000
(
1.16434e-05
-1.30901e-06
-2.37318e-05
-1.18864e-05
1.69122e-05
-3.70903e-05
-1.65124e-05
-6.23187e-06
-3.66963e-05
-4.37035e-06
-4.14643e-05
1.67907e-05
-1.69318e-06
5.18098e-05
-2.62992e-05
2.93644e-05
8.22065e-05
-1.93259e-05
2.9151e-06
1.22399e-05
2.61057e-05
-7.22822e-06
1.32353e-05
-1.52035e-05
-1.00735e-05
-2.8615e-05
5.84017e-07
-2.59689e-06
-7.44199e-06
1.29492e-05
5.01432e-05
9.15347e-06
6.76387e-06
7.1636e-07
-5.33609e-06
-7.0934e-05
-4.98535e-05
2.10722e-05
6.37147e-05
3.62591e-05
2.35016e-05
4.81846e-05
4.19127e-05
2.66105e-05
1.88558e-05
-1.42157e-05
-4.44935e-05
-9.46358e-06
2.93562e-05
2.77236e-05
4.25069e-06
6.1131e-06
-1.10526e-05
4.7108e-06
-2.95611e-05
-1.76485e-06
-4.96018e-07
-2.01402e-05
3.38072e-06
1.99979e-06
1.15874e-06
2.72303e-05
-3.65714e-06
2.32465e-05
3.94594e-05
2.84206e-05
3.60663e-05
-1.87662e-05
-1.31566e-05
-2.90966e-05
2.30519e-06
6.4033e-06
6.73655e-06
2.73653e-05
-2.90865e-05
-1.06139e-05
-2.17389e-05
-4.65004e-06
3.76122e-05
-1.4632e-05
1.83182e-05
-5.58896e-05
1.01765e-05
2.12193e-05
1.24084e-05
-1.79917e-05
-4.99975e-06
5.5673e-05
3.03982e-05
3.1014e-05
1.82542e-05
-4.03398e-05
-5.07577e-05
1.05734e-07
-1.22326e-05
-5.41847e-05
-2.7387e-05
7.06153e-06
-7.17345e-05
-4.19925e-05
-7.83863e-06
-1.49325e-05
3.79361e-05
2.96616e-06
3.45649e-05
4.28136e-07
-8.84175e-06
4.68855e-06
-1.96664e-05
-2.96341e-05
1.19576e-05
-1.98084e-05
-6.37566e-05
-1.80148e-05
3.33529e-05
-4.31142e-05
-4.58484e-05
-9.31959e-06
-8.39473e-07
7.7219e-06
7.11971e-06
4.72695e-06
-1.28699e-05
9.05344e-06
1.07014e-05
1.46723e-06
2.46383e-05
-9.37066e-06
-3.96699e-05
-2.05849e-05
1.30734e-05
1.66401e-05
1.05495e-05
2.64516e-05
8.87707e-06
-5.58985e-05
-1.44605e-05
-4.78741e-06
8.33663e-06
-2.04524e-05
-1.69747e-05
-1.0996e-05
-2.97842e-05
-4.38251e-05
-2.55266e-05
-4.76995e-06
5.09291e-06
1.17166e-05
4.14861e-05
1.14969e-05
4.61836e-05
2.39834e-05
1.46397e-05
-3.35383e-06
-2.16963e-05
-1.80435e-06
-3.8398e-05
7.10974e-05
1.82419e-05
1.54075e-05
2.91288e-05
3.77893e-05
2.8596e-05
3.20431e-05
-2.39528e-05
4.81745e-06
-1.57517e-05
-1.59545e-05
-1.13532e-05
-2.26398e-05
-1.30897e-05
1.47034e-05
2.19508e-05
-2.44108e-05
-1.01453e-05
-4.38341e-06
-1.12089e-05
-5.35487e-05
-3.0852e-05
1.04312e-05
2.41404e-05
-1.55067e-05
3.70427e-05
-7.54813e-06
1.64871e-05
-2.58476e-05
-1.57976e-05
-3.23987e-05
1.91204e-05
1.20288e-05
2.16104e-05
3.25126e-05
-1.00973e-05
-4.57879e-05
-4.61461e-06
3.22398e-05
-1.37426e-05
3.02191e-05
-1.27107e-05
-3.7617e-05
4.60005e-05
4.75816e-05
-2.19999e-05
5.39781e-05
1.17699e-05
-4.47006e-05
-3.63106e-05
1.33697e-05
-4.23829e-05
3.01235e-06
5.14252e-06
6.49929e-05
8.11003e-05
1.21144e-05
-1.55316e-05
1.43205e-05
6.62646e-05
1.79937e-05
2.63764e-05
8.40871e-05
9.28209e-06
2.25022e-05
-3.42637e-05
9.86051e-06
8.64814e-06
1.77808e-05
-9.92057e-06
0.00010795
3.96698e-05
4.83347e-05
5.22808e-05
4.94823e-06
3.35134e-05
-2.28453e-06
-6.66551e-07
1.11783e-05
5.69655e-05
3.91295e-05
4.4097e-06
6.68604e-06
5.02593e-05
2.1542e-05
-1.46294e-05
5.15305e-05
3.2037e-05
5.2193e-05
2.51624e-05
2.27583e-05
1.42493e-05
9.25488e-05
6.12974e-05
8.8177e-05
1.98342e-05
6.61116e-05
8.35202e-05
0.000216877
0.000304782
0.000444053
0.000761844
0.00112956
0.00181302
0.00277548
0.00436648
0.006774
0.0105035
0.0165532
0.0258504
0.0406392
0.0635527
0.100002
0.156439
0.246327
0.385774
0.607618
0.951997
1.50034
2.35179
3.70744
5.81312
9.16669
14.3764
22.6692
35.5446
56.0172
87.7383
137.995
215.368
336.725
520.067
799.137
1195.98
1740.8
2333.69
2708.32
1596.89
-3585.08
-21935.1
-66389.9
-183097
-361365
8.75336e-06
-7.47421e-06
-6.1003e-06
1.21634e-05
-2.36591e-05
1.97883e-05
2.13512e-06
-1.26573e-05
-1.64713e-05
1.69793e-05
2.8245e-05
-2.75425e-05
-1.56335e-05
5.89731e-05
2.71678e-05
-1.32317e-05
-1.57039e-05
-3.56058e-06
4.27061e-05
7.63547e-06
3.15518e-05
2.09729e-05
5.50918e-05
7.78228e-06
-1.38292e-05
1.17995e-05
1.63349e-05
-2.45093e-07
-1.4204e-05
-1.66625e-05
1.19681e-06
5.35897e-05
-5.52244e-05
3.08513e-05
2.5063e-05
2.84556e-05
-6.25108e-06
-5.27233e-06
-1.39588e-05
4.38437e-06
3.98199e-05
3.02905e-05
-3.74225e-05
-5.31695e-06
3.90287e-05
-7.45683e-08
-3.91629e-05
-2.44588e-06
2.31715e-05
-2.42133e-05
-2.61409e-05
-1.61437e-05
-1.05794e-05
2.72119e-05
-2.20094e-05
1.61516e-05
3.80539e-05
1.96637e-05
3.09904e-05
-7.06514e-06
-2.19985e-05
2.55047e-05
1.52374e-05
9.73279e-06
4.56941e-05
-4.63949e-05
-2.99146e-05
5.66801e-06
-1.43634e-05
-3.2598e-05
-3.18657e-05
-7.06716e-06
1.52267e-05
-1.90843e-05
-2.2762e-05
1.62966e-05
4.75485e-05
2.553e-05
-5.3008e-05
5.1843e-06
-1.84779e-05
-2.47221e-05
1.83718e-05
-3.90105e-05
-2.08518e-05
-3.01413e-06
-5.28176e-05
-5.01508e-06
4.33447e-05
-2.85334e-05
1.76919e-05
3.53305e-06
4.65017e-06
7.56723e-05
-1.03228e-05
-2.56984e-05
4.03382e-05
-3.30036e-05
-2.99746e-05
2.4455e-05
-4.04209e-05
-2.85933e-05
3.61587e-05
-2.63204e-05
1.72153e-05
4.10261e-05
1.96711e-05
-3.38936e-06
6.83624e-05
1.08346e-05
-8.61301e-05
-6.89397e-05
-3.91879e-05
2.93251e-05
-9.41014e-07
4.25927e-05
6.50459e-05
1.28673e-05
-3.73335e-05
3.74842e-05
1.30785e-05
-2.46422e-05
3.39069e-05
-5.29452e-07
-4.9177e-05
-1.34786e-05
-1.05076e-05
-6.80673e-06
1.06307e-05
4.68273e-05
-4.95562e-05
-2.03558e-05
-2.8545e-05
1.77934e-05
3.51192e-05
-4.262e-06
-2.28577e-05
-2.73119e-05
-1.30985e-05
5.30546e-06
6.78901e-05
-2.09495e-05
-1.68552e-05
1.40521e-05
-2.85016e-06
3.47206e-05
-2.45361e-05
-5.95111e-05
-6.36801e-05
6.78965e-06
2.1305e-05
-3.88023e-05
-1.32711e-05
5.76556e-05
9.48618e-06
5.31002e-05
4.81071e-05
-2.45837e-05
-8.34198e-07
-6.45913e-06
2.50459e-05
3.51944e-06
-2.43231e-05
-2.06187e-05
-6.76541e-06
5.29004e-05
2.9469e-05
-2.47411e-05
1.35076e-05
1.22613e-05
-3.39895e-05
2.07015e-05
1.9162e-05
-3.09813e-05
-4.4253e-05
-5.35719e-05
-2.33678e-05
-3.51458e-05
-1.61757e-05
1.41503e-05
4.95699e-05
1.59957e-05
-3.71134e-05
-3.0763e-05
1.99796e-05
-3.23781e-05
1.267e-05
2.98416e-05
-3.5357e-05
-7.64045e-06
3.62431e-05
8.50217e-06
-1.06779e-05
1.03586e-05
7.28482e-06
3.02051e-05
2.52133e-05
5.53116e-05
2.55137e-05
2.562e-05
-1.57699e-05
9.02426e-06
-1.26126e-05
-1.17213e-05
-3.85396e-05
-5.76196e-05
-7.91728e-05
5.47578e-08
5.32489e-05
-2.8031e-05
-3.48322e-05
4.45911e-05
6.35021e-05
-6.46341e-05
-7.10514e-05
-1.77635e-05
-4.25114e-05
-2.68614e-05
7.88859e-07
-2.21554e-05
3.0001e-05
2.68042e-05
2.67958e-05
-1.00361e-05
-2.07383e-05
2.66927e-05
-1.36167e-05
-6.62817e-05
7.12289e-06
-2.1275e-05
-3.12148e-05
4.18399e-05
1.40442e-05
-3.00793e-06
-1.9374e-05
-2.57344e-05
1.34386e-05
-6.18158e-06
3.30499e-05
-3.39316e-05
2.76099e-05
-2.05848e-05
2.53177e-05
5.37999e-05
3.55491e-05
2.54327e-05
1.83876e-06
1.52294e-05
-1.8279e-05
5.49085e-05
-1.77411e-05
-3.01836e-05
6.58019e-06
7.24459e-05
9.29138e-05
0.000173968
0.000278776
0.000433449
0.000678362
0.00109834
0.00173754
0.00272217
0.00425824
0.00661484
0.010229
0.0161199
0.0252176
0.0395547
0.0618064
0.0972474
0.152167
0.239498
0.374999
0.590596
0.925269
1.45805
2.28527
3.60251
5.64932
8.90862
13.9748
22.0418
34.5811
54.5319
85.5067
134.676
210.703
330.567
513.658
796.811
1213.88
1822.42
2612.88
3522.19
3939.09
2595.45
-5367.96
-27084.3
-89590.7
-191089
-2.47884e-05
1.19593e-05
1.62098e-06
-3.71993e-06
1.90089e-05
7.37195e-06
3.59393e-05
-3.85991e-06
-4.0564e-05
-2.24898e-05
1.17887e-05
-2.65758e-05
2.75166e-05
1.57538e-05
-8.06912e-06
1.8702e-05
2.65383e-06
4.65789e-05
2.24615e-05
3.33791e-05
-2.38215e-05
-7.94859e-06
4.96385e-05
5.68694e-06
8.03786e-06
-3.77474e-05
-2.19555e-05
4.23033e-05
-1.11203e-06
9.85155e-06
3.45151e-05
1.32255e-05
5.60148e-05
-9.99363e-06
-7.202e-06
1.00968e-05
-1.70886e-05
-1.47543e-05
-1.74557e-05
-1.34211e-05
1.53558e-05
1.74872e-05
-1.56295e-05
-2.23791e-05
-1.43344e-05
-3.20746e-05
6.72715e-06
-7.72586e-06
-3.81669e-05
-5.74137e-05
7.68997e-06
1.83301e-05
-1.22825e-05
4.08569e-05
2.195e-05
-9.81982e-06
-2.20206e-05
-6.07103e-05
-2.13385e-05
-6.76937e-05
-3.05257e-05
4.67669e-06
3.56608e-06
-1.26974e-05
-1.3526e-05
6.05497e-05
4.61189e-05
3.19216e-05
6.85342e-06
-1.43391e-05
1.63351e-05
-1.63154e-05
2.94509e-05
1.08937e-05
4.21234e-05
3.77657e-05
5.91417e-05
1.3138e-05
8.85303e-06
-2.09711e-05
-1.00669e-05
-6.39948e-05
-4.31838e-05
1.08008e-05
1.38096e-05
8.90573e-06
2.23159e-05
2.86073e-05
-2.35705e-08
-1.59496e-05
-3.09356e-05
1.84244e-05
-1.08333e-05
-2.48833e-07
2.33365e-05
1.83589e-05
-6.87476e-06
1.68364e-05
-1.2993e-05
-3.70717e-05
1.61264e-05
4.54217e-05
4.62297e-05
-2.92365e-05
-5.07216e-05
-8.34316e-05
-3.1424e-05
1.01893e-05
1.57378e-05
-6.62272e-06
1.47306e-05
9.95049e-06
2.69411e-05
-2.47353e-05
-3.69289e-05
-5.88551e-06
-2.1272e-05
6.07949e-05
-2.30006e-05
-3.90051e-05
-1.56706e-05
-1.91856e-05
-8.0379e-06
-4.53271e-05
1.23568e-05
-1.72639e-05
-2.13955e-05
-5.60357e-05
4.92277e-06
1.21124e-05
-2.78727e-06
1.46121e-05
-1.31266e-05
7.09175e-06
2.11931e-05
-3.66056e-05
-4.65906e-05
1.76476e-05
2.36677e-05
-3.96808e-05
2.56499e-05
4.79181e-05
6.0383e-05
9.97024e-06
-4.383e-05
-4.13364e-05
-2.81513e-05
-3.95939e-05
2.04172e-05
-1.0054e-05
3.363e-06
5.34228e-05
-1.27925e-05
-5.22451e-06
-3.30821e-06
-1.0615e-05
-3.71758e-05
6.56775e-06
5.89214e-05
-1.94735e-05
-2.76281e-05
3.36427e-05
1.10735e-05
-3.20275e-05
-8.16257e-06
-1.14054e-05
-2.91962e-05
2.60813e-05
-3.24343e-06
-1.32303e-05
-5.12531e-06
9.91484e-06
-1.30974e-06
-2.14778e-05
-6.83818e-06
2.9526e-05
-5.2289e-06
-5.8079e-06
-5.15231e-05
-4.86976e-05
1.03454e-05
3.36432e-05
2.65678e-05
3.09833e-05
7.50511e-05
9.17828e-06
-1.34044e-05
3.99691e-06
-4.27248e-05
-8.11836e-06
-4.29661e-05
-5.99165e-06
5.35129e-07
-1.63937e-05
-6.5203e-05
7.70372e-06
3.40427e-05
6.95756e-05
-9.77224e-06
1.16321e-05
3.25627e-05
-2.09504e-06
8.82282e-06
8.82337e-06
2.57032e-05
7.78298e-06
1.86252e-05
-8.44672e-06
-1.06207e-05
1.61702e-05
-1.00485e-05
1.10229e-05
-1.84555e-05
-3.78164e-05
5.2864e-06
1.65563e-05
-7.69513e-06
-7.70756e-06
1.06445e-05
-2.0365e-05
-1.08321e-05
-2.38578e-05
-4.16798e-05
3.32861e-05
-1.01555e-05
-8.0434e-05
5.71614e-06
9.47482e-06
4.6159e-05
-1.30131e-05
1.79465e-05
-8.90227e-05
2.02491e-05
4.08985e-05
3.89171e-05
-8.28019e-06
2.39066e-05
1.8566e-05
5.4296e-05
2.78001e-06
6.80696e-05
6.04558e-06
5.12081e-05
4.5061e-05
-1.47838e-05
6.2302e-05
1.62262e-05
3.91295e-05
-1.34813e-05
-6.49384e-06
7.42836e-05
3.88308e-05
2.19982e-05
5.94232e-05
0.000102165
0.000159274
0.000260977
0.000408609
0.000664727
0.00106907
0.00162668
0.00255978
0.00397624
0.00629382
0.00976936
0.0152461
0.0238063
0.0374583
0.0585228
0.0918955
0.143666
0.22604
0.353583
0.556266
0.870952
1.37099
2.14743
3.38201
5.29967
8.34932
13.0887
20.6247
32.3375
50.9527
79.8672
125.745
196.821
309.091
481.671
751.027
1155.94
1767.68
2626.48
3800.01
5032.26
5951.63
3736.14
-4100.35
-37264.5
-83478.3
-1.2825e-05
-3.19811e-06
5.01997e-05
2.65821e-05
-1.90145e-06
-5.54792e-06
-1.06376e-05
-1.5782e-05
3.90035e-06
-2.41665e-06
3.64843e-05
1.42402e-05
-4.44269e-05
-3.45484e-05
6.32681e-06
2.06974e-05
3.38019e-06
-2.81346e-05
-6.10737e-06
-7.9652e-06
-9.32834e-07
3.4627e-05
-1.40569e-05
5.34086e-06
3.97996e-05
4.47595e-05
-2.63564e-05
-1.74444e-05
1.2123e-05
8.30805e-06
-3.65727e-05
-1.62044e-05
-2.08304e-05
4.1431e-06
4.31878e-05
-3.89626e-07
5.92243e-05
-2.58407e-06
-3.11143e-05
-8.81322e-06
-2.22073e-05
5.35928e-05
2.40827e-05
7.50102e-06
-1.70356e-06
2.64899e-05
5.09547e-05
4.41588e-06
5.99922e-06
1.01839e-05
4.43489e-05
-1.92896e-06
-2.54289e-05
-1.08648e-05
-8.20555e-06
7.36243e-06
-1.53488e-05
3.10277e-05
-1.45225e-05
-2.69997e-05
-7.96852e-05
-1.15487e-05
-7.18645e-07
-2.96178e-05
-3.53298e-05
-6.3327e-05
-1.79092e-05
1.61992e-05
2.40429e-05
1.40669e-05
3.01482e-05
4.55159e-05
-1.1218e-05
6.20822e-06
1.77841e-05
-1.51247e-05
-1.70182e-05
1.24989e-05
-1.28764e-05
4.38113e-05
-9.38802e-06
1.53819e-05
9.90304e-06
-1.36173e-07
3.39943e-05
6.37378e-06
-3.50943e-05
-1.42468e-05
4.38543e-05
-1.73734e-05
-1.01732e-05
6.69314e-06
-9.95307e-06
-2.09707e-05
-5.93891e-06
-4.57288e-05
1.20595e-05
3.44174e-05
-4.34954e-05
-3.9885e-05
1.45739e-05
5.10414e-05
-3.49845e-05
-4.39983e-05
-2.14725e-05
1.014e-06
2.72148e-05
1.49612e-05
-1.30407e-05
1.77875e-05
-1.27347e-05
-1.9939e-05
3.77257e-06
-4.56732e-05
-2.2017e-05
-1.48301e-05
-3.27164e-05
5.37145e-07
2.47539e-05
-5.725e-07
1.65998e-05
-4.24796e-05
-1.48654e-05
-5.65566e-05
1.17419e-05
-2.9766e-05
-1.72714e-05
1.03045e-05
-1.1432e-05
-5.12529e-05
-5.84468e-06
4.12164e-05
1.9599e-05
5.26108e-06
3.31497e-05
7.19074e-05
2.88974e-05
4.40161e-05
-2.71425e-05
-2.93525e-05
-6.00174e-05
-3.68123e-05
-3.09448e-05
1.44848e-05
7.18816e-05
1.56231e-05
1.20786e-05
-3.25474e-05
2.89415e-05
4.59031e-05
2.18796e-05
6.98723e-06
-0.000101954
-1.13626e-05
2.59344e-05
-1.74263e-05
1.10854e-05
3.41946e-05
1.94268e-05
-1.53808e-05
-5.56935e-05
-3.01616e-05
-3.06469e-05
-4.66811e-05
-4.94241e-05
1.66395e-05
-3.29769e-05
-2.78639e-05
-2.23091e-05
-7.79665e-05
-3.22751e-05
5.4231e-06
2.80207e-05
-1.90796e-06
3.66181e-05
1.81607e-05
-2.0315e-05
8.90222e-06
3.4279e-05
2.81589e-05
4.3842e-05
6.63382e-05
1.59707e-05
2.70772e-05
4.07987e-05
-1.22569e-05
-3.60579e-05
9.35917e-06
3.3585e-05
-9.9477e-06
-1.32209e-05
-3.75878e-06
1.24556e-05
-2.34984e-06
-1.3229e-05
-1.53881e-05
-6.53138e-05
-5.14068e-05
-4.18044e-05
-6.13718e-05
1.49732e-05
-4.39282e-05
-7.28113e-05
3.69398e-05
-2.14801e-05
2.629e-05
1.62768e-05
2.12263e-06
1.05227e-05
2.63801e-05
2.76886e-05
-1.55897e-05
-6.11718e-05
-2.35219e-05
-1.36351e-06
-6.87662e-06
-3.82541e-07
-4.4084e-05
-5.60541e-05
9.486e-06
-5.72161e-05
-6.43696e-05
-3.5319e-05
-3.20575e-05
2.28932e-05
-1.53225e-05
5.32902e-05
2.96671e-05
3.75294e-05
-5.95059e-05
2.56267e-05
7.86196e-05
2.85956e-05
-4.16166e-05
-5.95395e-06
1.79444e-05
-2.46019e-05
-6.65353e-06
-4.17148e-05
-2.03835e-05
-1.28519e-05
-3.84374e-05
4.06434e-06
1.25677e-05
-4.32994e-06
3.88101e-05
8.68618e-06
-5.3819e-06
-4.54306e-06
3.13443e-05
2.37691e-05
2.76775e-05
2.30299e-05
8.69505e-06
2.75478e-05
0.000154973
0.000274706
0.000426239
0.000628244
0.00095061
0.00150929
0.00233364
0.00371407
0.00581857
0.00895427
0.0140929
0.0219929
0.0344842
0.0537567
0.0843409
0.131708
0.206802
0.323148
0.507569
0.7936
1.24736
1.95096
3.06755
4.79996
7.54924
11.8165
18.5873
29.0988
45.7697
71.6415
112.625
176.123
276.412
431.026
673.441
1042.03
1609.53
2438.55
3656.98
5207.68
7189.01
8039.62
7803.37
-7234.97
-19122.3
1.07615e-05
8.15321e-06
-1.17205e-06
3.99523e-06
1.21467e-05
-3.77918e-05
1.54848e-05
4.71247e-05
-3.60159e-05
-2.01714e-05
-4.30637e-08
-1.98723e-05
3.17746e-05
-9.44329e-06
-4.12659e-05
2.58009e-07
1.22356e-08
-2.3175e-05
-9.59992e-07
7.77705e-06
-1.68856e-05
-4.90622e-05
-1.33297e-05
7.54437e-06
-1.88848e-05
-4.32319e-05
-5.01862e-07
-1.28721e-05
1.29904e-06
-2.17211e-05
4.8952e-05
-1.72604e-05
-4.1457e-05
-2.16538e-05
-2.72642e-05
-5.30802e-05
-1.8552e-05
-3.64023e-05
4.0313e-05
1.60966e-05
3.03266e-05
-1.24124e-05
3.41322e-05
3.21846e-05
-2.07554e-05
9.4863e-06
6.07954e-06
3.34271e-07
1.28515e-05
-1.04794e-05
-3.0392e-06
-2.29045e-05
-1.54354e-05
1.35115e-05
-1.39815e-06
-2.73837e-06
-4.64375e-05
-2.90652e-05
1.63471e-05
1.90115e-05
1.01566e-05
5.46027e-06
1.93414e-05
9.72636e-05
1.23241e-05
2.42186e-06
-5.63466e-05
-3.40729e-05
-1.49672e-05
-4.8568e-05
-4.79472e-05
2.88746e-05
1.45753e-05
-7.42582e-05
-5.14506e-06
6.28118e-05
-7.77814e-06
2.89747e-05
2.64142e-05
5.11679e-05
4.82302e-05
7.80759e-05
1.55836e-05
2.8712e-05
1.27113e-05
-1.67445e-05
-1.78668e-05
-1.06129e-05
-5.45531e-05
8.88368e-06
-3.94764e-06
1.72114e-05
2.369e-05
1.0127e-05
1.22208e-05
3.72403e-05
1.15731e-05
4.41438e-05
-6.92186e-06
4.00633e-05
2.13557e-05
-3.98204e-05
-3.54764e-05
2.225e-06
-9.84333e-06
-6.30392e-05
-1.19671e-05
-1.26357e-05
-6.4863e-06
3.30131e-05
-1.80768e-06
-3.91805e-06
-3.40964e-06
-2.41117e-05
-2.59079e-05
-1.15724e-05
2.34663e-05
-6.51843e-05
-6.10278e-05
2.22187e-05
-2.65498e-05
-9.36702e-06
-6.63672e-06
-3.74285e-05
4.55302e-05
1.45827e-05
4.35488e-05
1.88067e-05
1.02097e-05
2.83021e-05
-1.13356e-05
-1.61493e-05
1.51794e-07
-1.4532e-05
-6.53835e-05
-5.09342e-05
-4.63007e-05
-3.46512e-05
2.06384e-06
4.26014e-06
-1.53601e-05
-4.75347e-05
-1.69875e-05
-5.8894e-05
-2.87357e-05
1.45896e-05
-1.39206e-05
1.60584e-06
7.02043e-05
2.12366e-05
-1.23649e-06
3.87486e-05
3.25532e-05
1.95924e-05
1.76844e-05
-1.05271e-05
8.34092e-06
-1.70886e-06
-1.61631e-05
-1.32401e-05
5.46199e-06
-2.17549e-05
-4.73996e-05
-3.16522e-05
6.2353e-06
1.28923e-05
-2.02298e-05
-7.30919e-05
-2.86362e-05
5.54971e-05
3.58763e-06
4.1799e-05
4.25383e-05
4.72339e-05
2.00029e-06
5.19339e-06
0.000104207
3.96805e-05
-4.56795e-05
-1.27316e-05
1.889e-05
6.19112e-06
5.28345e-05
1.05201e-05
-2.96371e-06
7.42037e-06
8.78903e-06
-4.93847e-06
4.50434e-05
-6.76333e-06
-1.06614e-06
-1.84839e-06
-1.75238e-05
1.7056e-05
6.96256e-07
-1.13633e-05
-9.34013e-07
-5.07025e-06
-2.8205e-05
4.57706e-05
-3.87641e-05
3.44675e-05
2.17368e-05
-3.06285e-06
-1.36694e-05
2.99781e-05
1.97619e-05
-2.0273e-05
-6.88141e-05
-4.93194e-05
-4.21647e-05
-6.85424e-06
-7.29981e-05
-6.66141e-05
-3.20013e-05
-6.24036e-05
-2.34944e-05
-1.73474e-05
-2.54944e-05
2.46853e-06
3.22386e-06
1.06046e-05
2.78478e-05
2.44392e-06
-5.87428e-06
3.17796e-05
5.43699e-05
6.7846e-05
1.60463e-05
2.30528e-05
3.62293e-05
6.14476e-05
6.01058e-05
2.21926e-05
-2.23091e-05
-5.04109e-05
-3.62837e-05
-6.83878e-07
-7.47285e-06
-1.4279e-05
8.42844e-05
-1.9324e-05
-2.39606e-05
-3.58657e-05
-1.93013e-06
-4.7975e-05
-3.69963e-05
2.5409e-05
-7.20495e-07
3.63519e-05
4.04515e-06
-3.07272e-06
2.48528e-05
8.90616e-05
9.22974e-05
0.000152366
0.000212051
0.000289102
0.000596059
0.000883344
0.0013616
0.0021526
0.00326039
0.00520182
0.00813887
0.0126691
0.0197293
0.0308755
0.0480299
0.0753178
0.117334
0.183845
0.286786
0.449712
0.701889
1.1009
1.71879
2.69673
4.21164
6.60905
10.3243
16.2026
25.3136
39.7225
62.0504
97.3293
151.937
238.045
370.899
579.43
898.3
1393.71
2132.16
3254.47
4795.16
7043.73
9142.9
12265.9
6936.76
12768.3
-1.21953e-05
1.67684e-05
-1.14658e-05
-3.74443e-05
-7.39358e-06
1.21009e-05
-2.48194e-06
-2.80391e-05
-3.23635e-05
7.17316e-05
-1.68622e-05
-6.46349e-06
5.37468e-06
3.99098e-06
-1.08442e-05
-1.80285e-05
4.655e-06
-4.76151e-05
-2.9009e-05
2.1041e-06
-5.7782e-06
-1.26771e-05
-2.5473e-05
4.13009e-05
-3.31421e-06
-1.66432e-06
4.44618e-05
3.3354e-05
7.78846e-06
-5.74803e-05
2.24039e-05
9.38001e-06
-1.61812e-05
-2.07252e-06
1.74917e-05
3.74293e-05
6.69583e-05
-3.02644e-05
-2.21239e-05
-1.77657e-05
1.03629e-05
-3.31569e-05
7.80521e-06
1.05697e-05
-1.45979e-05
5.59329e-05
-4.56896e-06
-4.7121e-07
4.37847e-05
-3.45971e-05
-4.35572e-05
2.26419e-05
-3.98114e-06
-3.2609e-05
-1.3133e-05
-1.75332e-05
-2.02219e-05
-4.22927e-05
-7.05804e-07
2.58198e-05
-1.36075e-05
-7.97023e-07
4.99685e-05
2.67883e-05
-2.68812e-06
-4.14018e-05
-2.57533e-05
5.25333e-06
3.03177e-05
5.5152e-05
-1.21514e-05
3.75353e-05
9.65711e-05
-1.20135e-05
-2.03777e-05
-3.62442e-05
-2.94647e-05
-9.96173e-06
5.72907e-06
-6.2704e-06
-4.62387e-05
-5.90349e-06
-2.61925e-05
-3.08813e-05
2.63561e-09
2.94193e-05
2.10665e-05
1.43214e-05
5.25116e-05
5.05602e-05
2.20893e-05
-1.9544e-05
-4.52867e-05
3.91585e-05
2.0578e-06
-1.21331e-05
-3.91553e-05
-9.70277e-07
2.57595e-05
4.55138e-05
-4.8936e-06
-1.89646e-05
6.13194e-06
-4.27425e-06
-1.08254e-05
3.39527e-05
-2.20392e-05
4.53849e-06
-3.75294e-05
-4.99558e-05
-8.60497e-06
-2.57487e-05
-1.45293e-05
-6.33958e-05
3.75915e-05
4.06556e-06
-9.85729e-06
-2.298e-05
-3.08286e-05
1.25967e-05
-2.31853e-06
2.04503e-05
6.99515e-05
4.91124e-05
2.02007e-05
3.75169e-05
4.44399e-05
-2.2315e-05
-3.07529e-05
-2.41223e-05
-1.14021e-05
-4.80698e-05
-9.35778e-05
-3.91856e-05
7.79109e-06
1.96589e-06
-6.16022e-05
-4.82674e-05
2.31877e-05
-1.57206e-05
-4.9245e-06
-2.37633e-05
1.38874e-05
-2.81457e-05
-4.90603e-05
-4.67643e-05
-5.64024e-06
-1.11285e-05
9.79571e-06
-2.38988e-05
1.01177e-05
-3.4604e-05
4.68343e-05
6.14323e-05
3.9738e-05
9.07049e-06
-1.16955e-05
-1.56136e-05
-7.08055e-07
-3.56497e-05
-1.59505e-05
-7.53984e-06
1.18696e-05
-8.25079e-05
-6.03196e-05
1.2325e-05
-1.83235e-06
-1.93745e-05
5.64098e-05
8.38013e-05
3.55203e-05
-6.26246e-06
1.58475e-05
-1.96965e-05
3.65514e-05
1.90398e-05
-3.05878e-05
1.57403e-06
7.27483e-05
5.17658e-06
-6.6315e-05
-3.11306e-05
-5.11799e-05
2.85758e-05
4.55665e-06
-3.32646e-05
-1.54048e-05
8.63267e-06
-6.24974e-05
-8.34858e-05
-3.7434e-05
1.20439e-05
-7.37327e-05
-5.03044e-05
-2.0042e-05
-4.04495e-05
-8.25506e-06
3.71074e-05
3.46218e-05
4.11373e-05
-9.75205e-06
-2.79491e-05
-1.55043e-05
-1.03817e-05
1.32922e-05
-6.73486e-05
-4.25444e-05
1.63624e-05
7.21964e-06
-2.04849e-05
1.23523e-06
4.48244e-05
3.2336e-05
-3.85194e-06
2.29804e-06
5.10203e-05
-1.63951e-05
-2.77603e-05
-4.77667e-07
4.14157e-05
-8.86597e-06
5.20701e-05
1.79693e-05
9.74919e-06
3.99168e-05
4.75222e-06
-4.77625e-05
-5.68307e-05
-1.55728e-05
4.06568e-05
-2.43818e-05
-9.1603e-05
-2.86051e-05
-2.60453e-05
-3.75654e-05
6.30506e-05
5.67306e-06
-7.19836e-06
3.78466e-05
5.69823e-06
2.03942e-05
-1.11544e-05
-1.30724e-05
-2.091e-06
-6.15053e-05
-4.74894e-05
-1.63841e-06
1.2789e-05
-4.70858e-05
6.15807e-06
1.00322e-05
7.53989e-05
-8.06273e-06
7.90512e-05
0.000111608
0.000129859
0.000161376
0.000340857
0.000477284
0.00076184
0.00120418
0.00190015
0.00286093
0.004561
0.00708232
0.01107
0.0172896
0.0269421
0.0419007
0.065435
0.10185
0.159314
0.247947
0.387899
0.604183
0.945516
1.47318
2.30585
3.59349
5.62559
8.76822
13.7266
21.3962
33.4918
52.1978
81.6774
127.234
198.927
309.477
482.951
748.833
1163.71
1788.6
2754.69
4130.31
6252.28
8650.11
12850.1
12259.8
25445.9
5.70393e-06
1.50202e-05
1.81551e-05
-4.68346e-06
2.01414e-05
2.30794e-05
2.21277e-05
-7.64306e-06
-3.06286e-05
4.09826e-05
-3.56384e-05
9.08505e-06
4.00152e-06
2.77195e-05
3.5369e-05
-9.05127e-06
-3.38864e-05
1.5356e-05
-3.7231e-06
-3.88962e-06
2.66101e-05
3.28763e-06
-2.97415e-05
6.88051e-05
3.51742e-05
-1.99021e-05
-2.21274e-05
-1.71014e-05
-2.5508e-05
3.35966e-05
9.1444e-06
2.11014e-05
-5.97312e-06
3.43213e-06
-1.20451e-05
-4.88111e-05
-1.068e-05
-1.98101e-05
1.29534e-06
2.91364e-05
3.12672e-05
1.84361e-05
5.07533e-05
2.68537e-05
2.87944e-05
1.03786e-05
-6.26097e-05
-2.72659e-05
1.91688e-05
7.01912e-07
-6.55231e-06
-9.01514e-05
-1.68035e-05
2.47036e-05
-1.69792e-05
3.28719e-05
4.12479e-06
-2.55819e-05
-1.21633e-05
-6.2568e-05
-1.50361e-05
-4.2817e-05
-6.40999e-05
3.76762e-05
4.00945e-05
2.34756e-05
8.34387e-06
2.38891e-05
2.18533e-05
-5.59636e-05
1.69266e-05
3.28451e-05
1.47141e-05
-4.51443e-05
8.40545e-06
-1.71706e-06
-2.14182e-05
-3.61044e-05
-3.04007e-05
1.94395e-05
4.57606e-05
3.80238e-05
-1.28179e-05
-9.17787e-06
1.95784e-05
-8.55884e-06
-2.25118e-05
-1.30068e-05
-2.03077e-05
2.30207e-06
-3.9885e-05
-1.75132e-05
-1.70253e-05
-1.1619e-05
-3.60963e-06
3.06914e-06
2.25057e-06
4.36393e-05
-2.51047e-05
3.85945e-05
-1.9636e-06
-1.06756e-05
-5.14627e-05
-2.29337e-05
-2.5731e-06
-4.8643e-06
-1.64582e-05
-1.92939e-05
-9.45765e-06
8.7074e-07
-1.87099e-05
-4.68465e-05
8.70612e-05
3.04273e-05
-2.04339e-05
7.51561e-05
-2.53727e-05
2.45093e-05
5.99731e-05
4.03902e-05
2.60069e-05
3.24713e-05
6.36631e-05
6.64415e-06
-2.81253e-05
-3.45076e-05
-4.46597e-05
2.07521e-05
2.02369e-05
-8.24737e-06
8.28437e-06
2.62997e-05
-1.67144e-05
3.46617e-05
-1.24793e-05
-3.67104e-05
1.82292e-05
1.87623e-05
-1.07511e-05
-1.98556e-05
1.0104e-05
4.3347e-05
3.3647e-05
-3.79325e-06
-3.10115e-05
-1.63903e-05
-5.25721e-06
1.89321e-05
4.05999e-05
-5.27225e-05
8.53409e-06
3.6302e-05
-3.97378e-06
2.43641e-05
2.6652e-05
-4.10842e-06
-3.9652e-06
-4.16551e-05
-4.44197e-05
4.90302e-05
-1.14179e-05
1.8441e-05
7.43833e-06
-9.58528e-06
-1.70645e-05
-3.00864e-05
-1.36381e-06
1.32842e-05
1.38344e-06
-1.81472e-05
-9.7414e-05
-1.12928e-05
2.06655e-05
-1.58033e-05
-5.2342e-05
1.95226e-05
-4.84744e-05
-3.6296e-05
-3.22522e-05
6.90671e-06
1.60226e-05
-1.65236e-05
-1.6983e-05
3.20502e-05
1.397e-05
-3.95335e-05
3.69158e-06
-3.38546e-05
-4.54788e-05
-3.07417e-05
-4.65744e-05
-1.22151e-05
2.0266e-05
-2.02354e-05
-1.76995e-05
-2.13104e-05
-3.88847e-05
-4.49711e-05
-3.28436e-05
-7.24049e-06
1.42869e-05
4.39151e-05
1.06221e-06
4.1184e-05
4.87454e-05
4.54278e-05
3.25768e-05
-1.30466e-05
-1.02023e-05
2.37881e-05
-4.14672e-05
-4.80329e-05
5.13015e-05
2.07695e-05
-1.03863e-05
-2.21305e-05
-3.54595e-05
5.89605e-07
-2.3961e-06
-7.54818e-05
-4.8617e-05
-2.28047e-05
-2.16073e-05
2.48753e-06
6.495e-06
-3.84058e-05
9.68971e-06
2.31384e-05
1.07742e-05
4.85979e-06
-3.98735e-05
3.84536e-05
6.43665e-07
1.62261e-05
-2.36706e-05
-3.01637e-05
-2.04951e-05
7.32692e-06
-1.59449e-05
-4.87325e-06
2.30042e-05
5.73871e-06
2.56358e-05
2.00089e-05
-5.48015e-05
-2.98241e-05
-2.35144e-05
-6.36154e-05
-1.84181e-05
-2.19355e-05
4.58511e-05
1.65028e-05
1.00769e-05
-6.08571e-07
0.000112807
0.000132905
0.000230187
0.000265886
0.000420681
0.000639414
0.00104327
0.00162864
0.00246352
0.00388514
0.00610902
0.00948613
0.0147697
0.0229356
0.0356774
0.0557046
0.086496
0.134975
0.209623
0.327163
0.508526
0.794
1.23438
1.92763
2.99752
4.68106
7.2802
11.3692
17.6824
27.6109
42.9383
67.0287
104.2
162.566
252.489
393.433
609.668
947.629
1459.62
2258.19
3418.18
5257.12
7513.81
11689.2
13135.6
28038.2
-3.09918e-05
5.3989e-05
-2.22847e-05
1.01858e-06
6.1087e-06
2.07795e-05
-1.65688e-05
-1.01708e-05
1.86175e-05
-1.70971e-05
5.53377e-05
-4.62659e-05
-2.91513e-05
-1.3174e-05
-6.54592e-05
3.13403e-05
2.26793e-05
1.82667e-06
-9.68185e-06
-9.64488e-06
-2.00249e-05
-1.76577e-05
3.29503e-06
1.04633e-05
-1.81767e-05
-2.9387e-06
9.03264e-06
-1.39463e-05
3.39006e-05
-6.33414e-06
-2.83053e-05
2.93359e-05
2.60183e-06
-3.6097e-05
4.28755e-05
7.73925e-05
-2.60461e-06
-3.24805e-05
-1.35161e-05
-6.04869e-06
4.53905e-06
-3.31338e-05
-3.21473e-06
-3.24629e-05
-7.18355e-05
-4.32578e-05
1.69767e-05
1.72815e-05
1.503e-05
-2.44028e-06
2.61455e-05
-1.59282e-05
-7.67956e-06
1.69018e-05
2.40467e-05
-3.15345e-05
-1.22169e-05
-1.83889e-05
-2.65025e-05
-1.85023e-05
-8.95691e-06
-1.48948e-05
2.35473e-05
-4.17815e-05
-1.56813e-05
-1.01624e-05
3.75956e-05
-1.61971e-05
-2.23831e-05
2.13684e-05
3.24329e-06
1.16911e-05
3.1629e-06
1.53049e-05
-9.84524e-06
9.06076e-06
7.71218e-06
1.83966e-05
3.093e-06
1.02518e-05
-1.25422e-05
1.14576e-05
1.81501e-05
1.48337e-05
-1.78269e-05
-7.53665e-05
-3.52485e-05
-3.56691e-05
-5.87437e-05
-4.13419e-05
1.79113e-05
-3.12772e-06
-9.84413e-06
8.66972e-05
3.16577e-05
3.42815e-07
4.28525e-05
3.80373e-05
-3.19957e-05
-7.87373e-06
-3.5601e-06
3.33332e-06
8.49703e-06
2.55621e-05
4.16835e-05
3.11538e-05
-4.36741e-05
-3.22556e-05
-1.15577e-06
-1.48873e-05
-7.60779e-05
-5.16051e-05
5.22969e-05
-4.54088e-05
-1.91559e-05
2.28489e-05
3.17012e-05
6.07142e-05
-2.69267e-05
1.38265e-05
-4.06501e-05
-1.185e-06
-4.83282e-05
1.7487e-05
-5.44858e-06
-2.78329e-05
2.70783e-05
-1.75758e-05
-2.09602e-05
-3.14265e-06
-2.36846e-05
-1.80858e-05
4.39272e-05
2.53831e-05
2.10069e-05
-5.69812e-06
5.20296e-05
2.39438e-05
1.98691e-05
-2.86636e-05
-4.81149e-06
4.01143e-05
6.50039e-05
1.50851e-05
-1.95109e-05
1.48741e-06
1.43336e-05
1.29174e-05
7.00786e-06
-4.09881e-05
-5.15767e-05
6.24912e-06
2.65738e-05
1.53246e-05
-7.27857e-06
3.99122e-05
5.09181e-06
3.83655e-06
-2.11309e-05
7.40267e-06
4.58855e-05
8.575e-06
1.18892e-05
2.90922e-05
1.72441e-05
1.03027e-05
-3.91175e-06
-1.36276e-07
1.92881e-06
9.28561e-06
2.04942e-05
-3.70046e-06
6.862e-06
-1.84344e-05
-7.60706e-07
-8.11493e-06
3.88369e-05
-1.67855e-05
-1.39839e-05
-3.51619e-06
-5.62989e-05
1.52109e-06
-1.79789e-06
-3.76344e-05
-5.95953e-06
-4.43634e-05
-4.03723e-05
-5.70479e-06
-2.13568e-05
2.81204e-05
-7.28625e-06
-3.42129e-05
2.17199e-06
-2.71239e-05
-2.59157e-05
6.66009e-06
-9.7596e-06
-7.56806e-06
-2.76377e-05
-4.87541e-05
-3.12567e-05
-1.66533e-05
-1.32237e-05
-1.09353e-05
-3.94805e-05
-1.70097e-05
4.8518e-05
4.32424e-05
3.23824e-05
5.43072e-05
2.32905e-05
-4.47221e-06
9.93362e-06
1.63232e-05
-2.81258e-06
2.92996e-06
-1.05507e-05
1.94554e-06
-4.9429e-06
2.57878e-05
3.01165e-05
-6.48076e-06
-2.76449e-05
-1.23049e-05
-1.58026e-05
-2.71708e-05
-4.9923e-06
6.80799e-06
7.42845e-06
6.94591e-06
4.51639e-05
8.89269e-05
3.84728e-05
-1.56336e-05
2.62284e-05
1.56806e-05
1.97563e-05
-1.302e-05
1.48402e-05
-3.20633e-05
-3.81037e-06
-6.26376e-05
-9.26911e-05
-3.76673e-05
-1.27578e-05
-6.08318e-05
3.06222e-05
-1.46827e-05
-6.099e-06
7.17561e-05
3.71991e-05
2.92826e-05
3.25411e-05
9.43742e-05
2.31638e-05
8.54306e-05
0.00016592
0.000224859
0.000361008
0.000521179
0.000851706
0.00141769
0.00215188
0.00336428
0.00517309
0.00801543
0.0123816
0.0191812
0.0298367
0.0463591
0.0718919
0.11196
0.17364
0.270472
0.419531
0.653619
1.0141
1.5801
2.452
3.82062
5.92955
9.23937
14.3402
22.3428
34.6753
54.0151
83.8091
130.5
202.356
314.849
487.44
757.347
1167.47
1810.29
2754.66
4274.02
6222.02
9915.74
12032.1
25973.7
4.53704e-06
1.06075e-05
-1.5813e-05
-3.95084e-05
2.30368e-05
2.25801e-05
-2.24116e-05
-1.7028e-05
2.34774e-05
1.37134e-06
-3.46231e-05
-4.39461e-05
4.61109e-05
3.73015e-05
7.39479e-06
-3.51493e-05
-9.78776e-06
3.31112e-05
-3.52294e-05
1.06498e-05
-1.10876e-05
-2.79133e-05
1.47008e-05
1.76056e-05
3.3769e-06
1.29859e-05
2.97772e-05
3.59202e-05
1.3542e-05
-3.22245e-05
1.33541e-05
-2.30577e-05
1.80326e-05
-2.46257e-05
3.33989e-05
-3.38357e-06
6.68363e-05
1.89672e-05
-1.28648e-05
2.26523e-05
-1.10191e-05
-4.42122e-05
1.81614e-05