/*--------------------------------*- C++ -*----------------------------------*\
| =========                 |                                                 |
| \\      /  F ield         | OpenFOAM: The Open Source CFD Toolbox           |
|  \\    /   O peration     | Version:  2412                                  |
|   \\  /    A nd           | Website:  www.openfoam.com                      |
|    \\/     M anipulation  |                                                 |
\*---------------------------------------------------------------------------*/
FoamFile
{
    version     2.0;
    format      ascii;
    arch        "LSB;label=32;scalar=64";
    class       surfaceScalarField;
    location    "0.002";
    object      phi;
}
// * * * * * * * * * * * * * * * * * * * * * * * * * * * * * * * * * * * * * //

dimensions      [1 0 -1 0 0 0 0];

oriented        oriented;

internalField   nonuniform List<scalar> 
359100
(
3.27398
1.91118e-33
3.27398
0
3.27398
-6.93889e-17
3.27398
-1.11022e-16
3.27398
-6.93889e-17
3.27398
-6.93889e-17
3.27398
-1.94289e-16
3.27398
-3.05311e-16
3.27398
-4.30211e-16
3.27398
-6.10623e-16
3.27398
-7.07767e-16
3.27398
-6.80012e-16
3.27398
-4.71845e-16
3.27398
-4.02456e-16
3.27398
-5.13478e-16
3.27398
-7.63278e-16
3.27398
-9.4369e-16
3.27398
-1.13798e-15
3.27398
-1.16573e-15
3.27398
-1.04083e-15
3.27398
-9.85323e-16
3.27398
-1.01308e-15
3.27398
-1.17961e-15
3.27398
-1.31839e-15
3.27398
-1.22125e-15
3.27398
-1.16573e-15
3.27398
-1.249e-15
3.27398
-1.27676e-15
3.27398
-1.30451e-15
3.27398
-1.36002e-15
3.27398
-1.38778e-15
3.27398
-1.33227e-15
3.27398
-1.27676e-15
3.27398
-1.29063e-15
3.27398
-1.42941e-15
3.27398
-1.55431e-15
3.27398
-1.47105e-15
3.27398
-1.20737e-15
3.27398
-1.05471e-15
3.27398
-9.15934e-16
3.27398
-9.29812e-16
3.27398
-1.05471e-15
3.27398
-1.04083e-15
3.27398
-9.71445e-16
3.27398
-9.57567e-16
3.27398
-1.01308e-15
3.27398
-1.06859e-15
3.27398
-1.20737e-15
3.27398
-1.27676e-15
3.27398
-1.36002e-15
3.27398
-1.52656e-15
3.27398
-1.76248e-15
3.27398
-1.91513e-15
3.27398
-1.91513e-15
3.27398
-1.81799e-15
3.27398
-1.65146e-15
3.27398
-1.4988e-15
3.27398
-1.41553e-15
3.27398
-1.41553e-15
3.27398
-1.44329e-15
3.27398
-1.26288e-15
3.27398
-1.06859e-15
3.27398
-1.04083e-15
3.27398
-1.19349e-15
3.27398
-1.40166e-15
3.27398
-1.38778e-15
3.27398
-1.22125e-15
3.27398
-1.19349e-15
3.27398
-1.42941e-15
3.27398
-1.72085e-15
3.27398
-2.01228e-15
3.27398
-2.19269e-15
3.27398
-2.23432e-15
3.27398
-2.2482e-15
3.27398
-2.22045e-15
3.27398
-2.26208e-15
3.27398
-2.40086e-15
3.27398
-2.55351e-15
3.27398
-2.3731e-15
3.27398
-1.91513e-15
3.27398
-1.51268e-15
3.27398
-1.249e-15
3.27398
-1.1241e-15
3.27398
-1.01308e-15
3.27398
-1.13798e-15
3.27398
-1.42941e-15
3.27398
-1.6237e-15
3.27398
-1.80411e-15
3.27398
-2.04003e-15
3.27398
-2.13718e-15
3.27398
-2.2482e-15
3.27398
-2.3731e-15
3.27398
-2.73392e-15
3.27398
-2.77556e-15
3.27398
-2.53964e-15
3.27398
-2.56739e-15
3.27398
-2.94209e-15
3.27398
-3.16414e-15
3.27398
-3.17801e-15
3.27398
-2.9976e-15
3.27398
-2.78944e-15
3.27398
-2.73392e-15
3.27398
-2.55351e-15
3.27398
-2.34535e-15
3.27398
-2.26208e-15
3.27398
-2.05391e-15
3.27398
-1.84575e-15
3.27398
-1.72085e-15
3.27398
-1.77636e-15
3.27398
-1.97065e-15
3.27398
-1.97065e-15
3.27398
-1.8735e-15
3.27398
-1.90126e-15
3.27398
-1.94289e-15
3.27398
-1.63758e-15
3.27398
-1.48492e-15
3.27398
-1.7486e-15
3.27398
-2.10942e-15
3.27398
-2.33147e-15
3.27398
-2.48412e-15
3.27398
-2.42861e-15
3.27398
-2.16493e-15
3.27398
-1.98452e-15
3.27398
-1.91513e-15
3.27398
-1.76248e-15
3.27398
-1.72085e-15
3.27398
-1.70697e-15
3.27398
-1.69309e-15
3.27398
-1.63758e-15
3.27398
-1.67921e-15
3.27398
-1.70697e-15
3.27398
-1.7486e-15
3.27398
-1.91513e-15
3.27398
-2.27596e-15
3.27398
-2.58127e-15
3.27398
-2.65066e-15
3.27398
-2.41474e-15
3.27398
-1.95677e-15
3.27398
-1.47105e-15
3.27398
-1.33227e-15
3.27398
-1.51268e-15
3.27398
-1.59595e-15
3.27398
-1.51268e-15
3.27398
-1.44329e-15
3.27398
-1.41553e-15
3.27398
-1.29063e-15
3.27398
-1.1241e-15
3.27398
-9.71445e-16
3.27398
-9.29812e-16
3.27398
-1.01308e-15
3.27398
-9.57567e-16
3.27398
-6.38378e-16
3.27398
-2.08167e-16
3.27398
1.63089e-31
3.27398
1.38778e-17
3.27398
-1.38778e-16
3.27398
-3.19189e-16
3.27398
-4.71845e-16
3.27398
-5.82867e-16
3.27398
-8.32667e-16
3.27398
-1.04083e-15
3.27398
-1.29063e-15
3.27398
-1.6237e-15
3.27398
-1.67921e-15
3.27398
-1.66533e-15
3.27398
-1.72085e-15
3.27398
-1.63758e-15
3.27398
-1.36002e-15
3.27398
-1.08247e-15
3.27398
-1.04083e-15
3.27398
-1.01308e-15
3.27398
-8.18789e-16
3.27398
-5.41234e-16
3.27398
-4.44089e-16
3.27398
-6.93889e-16
3.27398
-1.17961e-15
3.27398
-1.84575e-15
3.27398
-2.498e-15
3.27398
-2.83107e-15
3.27398
-2.81719e-15
3.27398
-2.42861e-15
3.27398
-2.10942e-15
3.27398
-1.83187e-15
3.27398
-1.51268e-15
3.27398
-1.52656e-15
3.27398
-1.73472e-15
3.27398
-1.92901e-15
3.27398
-2.20657e-15
3.27398
-2.35922e-15
3.27398
-2.16493e-15
3.27398
-1.91513e-15
3.27398
-1.77636e-15
3.27398
-1.63758e-15
3.27398
-1.67921e-15
3.27398
-1.7486e-15
3.27398
-1.73472e-15
3.27398
-1.60982e-15
3.27398
-1.36002e-15
3.27398
-1.17961e-15
3.27398
-1.16573e-15
3.27398
-1.23512e-15
3.27398
-9.85323e-16
3.27398
-6.66134e-16
3.27398
-5.55112e-16
3.27398
-5.82867e-16
3.27398
-6.38378e-16
3.27398
-7.21645e-16
3.27398
-8.74301e-16
3.27398
-1.06859e-15
3.27398
-1.13798e-15
3.27398
-8.60423e-16
3.27398
-4.02456e-16
3.27398
4.16334e-17
3.27398
4.996e-16
3.27398
8.18789e-16
3.27398
1.04083e-15
3.27398
1.23512e-15
3.27398
1.27676e-15
3.27398
1.19349e-15
3.27398
1.22125e-15
3.27398
1.36002e-15
3.27398
1.30451e-15
3.27398
1.11022e-15
3.27398
7.91034e-16
3.27398
3.747e-16
3.27398
2.77556e-17
3.27398
-2.08167e-16
3.27398
-2.63678e-16
3.27398
-2.35922e-16
3.27398
-2.22045e-16
3.27398
-3.19189e-16
3.27398
-4.02456e-16
3.27398
-5.13478e-16
3.27398
-5.82867e-16
3.27398
-5.55112e-16
3.27398
-4.57967e-16
3.27398
-1.52656e-16
3.27398
4.02456e-16
3.27398
8.88178e-16
3.27398
1.27676e-15
3.27398
1.85962e-15
3.27398
2.66454e-15
3.27398
3.98293e-15
3.27398
6.27276e-15
3.27398
1.01863e-14
3.27398
1.68338e-14
3.27398
2.78805e-14
3.27398
4.58106e-14
3.27398
7.52176e-14
3.27398
1.2397e-13
3.27398
2.0503e-13
3.27398
3.4002e-13
3.27398
5.64812e-13
3.27398
9.39027e-13
3.27398
1.56176e-12
3.27398
2.59846e-12
3.27398
4.32528e-12
3.27398
7.20288e-12
3.27398
1.2001e-11
3.27398
2.00061e-11
3.27398
3.33687e-11
3.27398
5.56886e-11
3.27398
9.29952e-11
3.27398
1.55394e-10
3.27398
2.59837e-10
3.27398
4.34789e-10
3.27398
7.28084e-10
3.27398
1.22018e-09
3.27398
2.04657e-09
3.27398
3.43561e-09
3.27398
5.77264e-09
3.27398
9.70857e-09
3.27398
1.63443e-08
3.27398
2.7544e-08
3.27398
4.64683e-08
3.27398
7.84831e-08
3.27398
1.32711e-07
3.27398
2.24682e-07
3.27398
3.80876e-07
3.27398
6.46507e-07
3.27398
1.0989e-06
3.27398
1.87054e-06
3.27397
3.18872e-06
3.27397
5.44418e-06
3.27396
9.30978e-06
3.27394
1.59465e-05
3.27391
2.73615e-05
3.27387
4.70327e-05
3.27379
8.10024e-05
3.27365
0.000139796
3.2734
0.000241826
3.27298
0.000419424
3.27225
0.000729855
3.27097
0.0012751
3.26873
0.00224064
3.26476
0.00396557
3.25765
0.00710225
3.24474
0.0128876
3.22077
0.0239482
0.0451447
3.1756
3.27398
2.77556e-17
3.27398
4.16334e-17
3.27398
-2.77556e-17
3.27398
-9.71445e-17
3.27398
-2.08167e-16
3.27398
-1.249e-16
3.27398
9.71445e-17
3.27398
1.11022e-16
3.27398
1.249e-16
3.27398
1.249e-16
3.27398
1.94289e-16
3.27398
2.498e-16
3.27398
1.80411e-16
3.27398
1.11022e-16
3.27398
-1.11022e-16
3.27398
-4.57967e-16
3.27398
-8.32667e-16
3.27398
-9.85323e-16
3.27398
-1.05471e-15
3.27398
-1.09635e-15
3.27398
-1.16573e-15
3.27398
-1.20737e-15
3.27398
-1.3739e-15
3.27398
-1.60982e-15
3.27398
-1.66533e-15
3.27398
-1.65146e-15
3.27398
-1.72085e-15
3.27398
-1.69309e-15
3.27398
-1.66533e-15
3.27398
-1.54043e-15
3.27398
-1.36002e-15
3.27398
-1.15186e-15
3.27398
-1.04083e-15
3.27398
-9.85323e-16
3.27398
-8.60423e-16
3.27398
-9.29812e-16
3.27398
-9.99201e-16
3.27398
-9.15934e-16
3.27398
-7.91034e-16
3.27398
-7.35523e-16
3.27398
-8.46545e-16
3.27398
-9.4369e-16
3.27398
-1.11022e-15
3.27398
-1.22125e-15
3.27398
-1.30451e-15
3.27398
-1.33227e-15
3.27398
-1.40166e-15
3.27398
-1.3739e-15
3.27398
-1.3739e-15
3.27398
-1.45717e-15
3.27398
-1.60982e-15
3.27398
-1.67921e-15
3.27398
-1.67921e-15
3.27398
-1.63758e-15
3.27398
-1.58207e-15
3.27398
-1.55431e-15
3.27398
-1.44329e-15
3.27398
-1.38778e-15
3.27398
-1.42941e-15
3.27398
-1.38778e-15
3.27398
-1.26288e-15
3.27398
-1.1241e-15
3.27398
-1.04083e-15
3.27398
-1.16573e-15
3.27398
-1.29063e-15
3.27398
-1.33227e-15
3.27398
-1.52656e-15
3.27398
-1.81799e-15
3.27398
-2.08167e-15
3.27398
-2.09555e-15
3.27398
-1.97065e-15
3.27398
-1.90126e-15
3.27398
-1.94289e-15
3.27398
-1.94289e-15
3.27398
-1.91513e-15
3.27398
-1.92901e-15
3.27398
-1.90126e-15
3.27398
-2.01228e-15
3.27398
-2.09555e-15
3.27398
-2.05391e-15
3.27398
-2.01228e-15
3.27398
-1.98452e-15
3.27398
-2.09555e-15
3.27398
-2.27596e-15
3.27398
-2.53964e-15
3.27398
-2.80331e-15
3.27398
-2.83107e-15
3.27398
-2.53964e-15
3.27398
-2.13718e-15
3.27398
-1.66533e-15
3.27398
-1.42941e-15
3.27398
-1.45717e-15
3.27398
-1.56819e-15
3.27398
-1.6237e-15
3.27398
-1.63758e-15
3.27398
-1.76248e-15
3.27398
-2.04003e-15
3.27398
-2.30371e-15
3.27398
-2.41474e-15
3.27398
-2.41474e-15
3.27398
-2.35922e-15
3.27398
-2.2482e-15
3.27398
-2.16493e-15
3.27398
-1.95677e-15
3.27398
-1.76248e-15
3.27398
-1.6237e-15
3.27398
-1.65146e-15
3.27398
-2.02616e-15
3.27398
-2.45637e-15
3.27398
-2.67841e-15
3.27398
-2.72005e-15
3.27398
-2.498e-15
3.27398
-2.08167e-15
3.27398
-1.56819e-15
3.27398
-1.08247e-15
3.27398
-7.07767e-16
3.27398
-5.82867e-16
3.27398
-5.55112e-16
3.27398
-6.80012e-16
3.27398
-8.74301e-16
3.27398
-9.4369e-16
3.27398
-1.19349e-15
3.27398
-1.45717e-15
3.27398
-1.66533e-15
3.27398
-1.81799e-15
3.27398
-2.04003e-15
3.27398
-2.15106e-15
3.27398
-2.34535e-15
3.27398
-2.6229e-15
3.27398
-2.88658e-15
3.27398
-2.95597e-15
3.27398
-2.83107e-15
3.27398
-2.65066e-15
3.27398
-2.498e-15
3.27398
-2.44249e-15
3.27398
-2.45637e-15
3.27398
-2.45637e-15
3.27398
-2.26208e-15
3.27398
-2.04003e-15
3.27398
-1.69309e-15
3.27398
-1.47105e-15
3.27398
-1.38778e-15
3.27398
-1.45717e-15
3.27398
-1.60982e-15
3.27398
-1.66533e-15
3.27398
-1.73472e-15
3.27398
-1.83187e-15
3.27398
-1.97065e-15
3.27398
-1.9984e-15
3.27398
-1.88738e-15
3.27398
-1.6237e-15
3.27398
-1.16573e-15
3.27398
-7.63278e-16
3.27398
-4.85723e-16
3.27398
-4.30211e-16
3.27398
-5.27356e-16
3.27398
-5.82867e-16
3.27398
-5.55112e-16
3.27398
-4.996e-16
3.27398
-4.996e-16
3.27398
-5.27356e-16
3.27398
-7.49401e-16
3.27398
-9.71445e-16
3.27398
-1.16573e-15
3.27398
-1.38778e-15
3.27398
-1.59595e-15
3.27398
-1.63758e-15
3.27398
-1.47105e-15
3.27398
-1.40166e-15
3.27398
-1.36002e-15
3.27398
-1.40166e-15
3.27398
-1.3739e-15
3.27398
-1.36002e-15
3.27398
-1.44329e-15
3.27398
-1.63758e-15
3.27398
-1.9984e-15
3.27398
-2.35922e-15
3.27398
-2.52576e-15
3.27398
-2.45637e-15
3.27398
-2.19269e-15
3.27398
-1.81799e-15
3.27398
-1.34615e-15
3.27398
-9.57567e-16
3.27398
-8.18789e-16
3.27398
-8.32667e-16
3.27398
-9.85323e-16
3.27398
-1.19349e-15
3.27398
-1.36002e-15
3.27398
-1.41553e-15
3.27398
-1.41553e-15
3.27398
-1.40166e-15
3.27398
-1.19349e-15
3.27398
-1.249e-15
3.27398
-1.6237e-15
3.27398
-2.10942e-15
3.27398
-2.27596e-15
3.27398
-2.20657e-15
3.27398
-2.13718e-15
3.27398
-1.97065e-15
3.27398
-1.77636e-15
3.27398
-1.48492e-15
3.27398
-1.17961e-15
3.27398
-9.4369e-16
3.27398
-8.04912e-16
3.27398
-7.91034e-16
3.27398
-7.77156e-16
3.27398
-6.38378e-16
3.27398
-4.71845e-16
3.27398
-3.46945e-16
3.27398
-2.91434e-16
3.27398
-3.05311e-16
3.27398
-1.66533e-16
3.27398
2.498e-16
3.27398
5.41234e-16
3.27398
5.41234e-16
3.27398
4.57967e-16
3.27398
3.33067e-16
3.27398
1.80411e-16
3.27398
-1.38778e-17
3.27398
-1.11022e-16
3.27398
-9.71445e-17
3.27398
-6.93889e-17
3.27398
5.55112e-17
3.27398
6.93889e-17
3.27398
5.55112e-17
3.27398
2.22045e-16
3.27398
5.82867e-16
3.27398
7.77156e-16
3.27398
8.60423e-16
3.27398
9.71445e-16
3.27398
9.99201e-16
3.27398
8.60423e-16
3.27398
7.07767e-16
3.27398
5.27356e-16
3.27398
3.60822e-16
3.27398
3.19189e-16
3.27398
4.30211e-16
3.27398
6.10623e-16
3.27398
9.71445e-16
3.27398
1.45717e-15
3.27398
2.13718e-15
3.27398
3.56659e-15
3.27398
6.17562e-15
3.27398
1.05194e-14
3.27398
1.76387e-14
3.27398
2.95181e-14
3.27398
4.89608e-14
3.27398
8.09075e-14
3.27398
1.33546e-13
3.27398
2.20587e-13
3.27398
3.64889e-13
3.27398
6.03975e-13
3.27398
1.00041e-12
3.27398
1.6577e-12
3.27398
2.74755e-12
3.27398
4.55549e-12
3.27398
7.55532e-12
3.27398
1.25342e-11
3.27398
2.08001e-11
3.27398
3.45275e-11
3.27398
5.73315e-11
3.27398
9.52267e-11
3.27398
1.58222e-10
3.27398
2.62981e-10
3.27398
4.37254e-10
3.27398
7.2728e-10
3.27398
1.21013e-09
3.27398
2.01434e-09
3.27398
3.35433e-09
3.27398
5.58798e-09
3.27398
9.31289e-09
3.27398
1.55274e-08
3.27398
2.59e-08
3.27398
4.32205e-08
3.27398
7.21561e-08
3.27398
1.20517e-07
3.27398
2.01382e-07
3.27398
3.36658e-07
3.27398
5.63056e-07
3.27398
9.42125e-07
3.27398
1.5771e-06
3.27398
2.64119e-06
3.27398
4.42514e-06
3.27397
7.41717e-06
3.27397
1.24374e-05
3.27397
2.0864e-05
3.27396
3.50138e-05
3.27395
5.87836e-05
3.27393
9.87316e-05
3.2739
0.000165904
3.27386
0.000278931
3.27381
0.000469295
3.27375
0.000790351
3.27369
0.00133301
3.27368
0.00225311
3.27381
0.0038213
3.2744
0.00651159
3.27609
0.0111789
3.28069
0.0193298
0.0338474
3.29196
3.27398
-1.38778e-17
3.27398
-6.93889e-17
3.27398
-9.71445e-17
3.27398
-1.80411e-16
3.27398
-2.35922e-16
3.27398
-2.498e-16
3.27398
-2.63678e-16
3.27398
-2.91434e-16
3.27398
-3.33067e-16
3.27398
-2.91434e-16
3.27398
-2.35922e-16
3.27398
-2.91434e-16
3.27398
-3.747e-16
3.27398
-3.33067e-16
3.27398
-3.33067e-16
3.27398
-4.02456e-16
3.27398
-5.55112e-16
3.27398
-6.80012e-16
3.27398
-8.46545e-16
3.27398
-9.57567e-16
3.27398
-9.15934e-16
3.27398
-8.04912e-16
3.27398
-6.93889e-16
3.27398
-5.68989e-16
3.27398
-5.68989e-16
3.27398
-6.52256e-16
3.27398
-7.63278e-16
3.27398
-8.88178e-16
3.27398
-9.02056e-16
3.27398
-9.85323e-16
3.27398
-9.71445e-16
3.27398
-9.57567e-16
3.27398
-9.57567e-16
3.27398
-9.4369e-16
3.27398
-9.99201e-16
3.27398
-1.02696e-15
3.27398
-1.26288e-15
3.27398
-1.3739e-15
3.27398
-1.27676e-15
3.27398
-1.16573e-15
3.27398
-1.04083e-15
3.27398
-1.06859e-15
3.27398
-1.16573e-15
3.27398
-1.36002e-15
3.27398
-1.4988e-15
3.27398
-1.58207e-15
3.27398
-1.51268e-15
3.27398
-1.48492e-15
3.27398
-1.27676e-15
3.27398
-1.1241e-15
3.27398
-9.57567e-16
3.27398
-8.88178e-16
3.27398
-8.18789e-16
3.27398
-7.77156e-16
3.27398
-8.60423e-16
3.27398
-1.06859e-15
3.27398
-1.30451e-15
3.27398
-1.47105e-15
3.27398
-1.47105e-15
3.27398
-1.41553e-15
3.27398
-1.34615e-15
3.27398
-1.16573e-15
3.27398
-1.1241e-15
3.27398
-1.33227e-15
3.27398
-1.47105e-15
3.27398
-1.65146e-15
3.27398
-1.76248e-15
3.27398
-1.72085e-15
3.27398
-1.55431e-15
3.27398
-1.47105e-15
3.27398
-1.41553e-15
3.27398
-1.33227e-15
3.27398
-1.22125e-15
3.27398
-1.02696e-15
3.27398
-9.29812e-16
3.27398
-9.99201e-16
3.27398
-1.13798e-15
3.27398
-1.249e-15
3.27398
-1.51268e-15
3.27398
-1.90126e-15
3.27398
-2.33147e-15
3.27398
-2.6229e-15
3.27398
-2.72005e-15
3.27398
-2.69229e-15
3.27398
-2.67841e-15
3.27398
-2.70617e-15
3.27398
-2.60902e-15
3.27398
-2.35922e-15
3.27398
-1.94289e-15
3.27398
-1.67921e-15
3.27398
-1.67921e-15
3.27398
-1.76248e-15
3.27398
-1.81799e-15
3.27398
-1.88738e-15
3.27398
-1.80411e-15
3.27398
-1.6237e-15
3.27398
-1.51268e-15
3.27398
-1.60982e-15
3.27398
-1.80411e-15
3.27398
-1.94289e-15
3.27398
-1.8735e-15
3.27398
-1.60982e-15
3.27398
-1.30451e-15
3.27398
-1.05471e-15
3.27398
-9.99201e-16
3.27398
-1.19349e-15
3.27398
-1.42941e-15
3.27398
-1.6237e-15
3.27398
-1.66533e-15
3.27398
-1.80411e-15
3.27398
-2.04003e-15
3.27398
-2.09555e-15
3.27398
-1.97065e-15
3.27398
-1.85962e-15
3.27398
-1.65146e-15
3.27398
-1.41553e-15
3.27398
-1.20737e-15
3.27398
-1.11022e-15
3.27398
-1.20737e-15
3.27398
-1.48492e-15
3.27398
-1.81799e-15
3.27398
-2.02616e-15
3.27398
-2.19269e-15
3.27398
-2.22045e-15
3.27398
-2.19269e-15
3.27398
-2.08167e-15
3.27398
-1.90126e-15
3.27398
-1.66533e-15
3.27398
-1.52656e-15
3.27398
-1.48492e-15
3.27398
-1.54043e-15
3.27398
-1.59595e-15
3.27398
-1.54043e-15
3.27398
-1.3739e-15
3.27398
-1.30451e-15
3.27398
-1.31839e-15
3.27398
-1.60982e-15
3.27398
-1.98452e-15
3.27398
-2.15106e-15
3.27398
-2.13718e-15
3.27398
-2.04003e-15
3.27398
-1.95677e-15
3.27398
-1.88738e-15
3.27398
-1.79023e-15
3.27398
-1.83187e-15
3.27398
-2.08167e-15
3.27398
-2.34535e-15
3.27398
-2.45637e-15
3.27398
-2.48412e-15
3.27398
-2.3731e-15
3.27398
-2.22045e-15
3.27398
-2.06779e-15
3.27398
-1.9984e-15
3.27398
-1.97065e-15
3.27398
-1.95677e-15
3.27398
-1.83187e-15
3.27398
-1.58207e-15
3.27398
-1.45717e-15
3.27398
-1.47105e-15
3.27398
-1.45717e-15
3.27398
-1.36002e-15
3.27398
-1.09635e-15
3.27398
-1.08247e-15
3.27398
-1.16573e-15
3.27398
-1.19349e-15
3.27398
-9.85323e-16
3.27398
-7.63278e-16
3.27398
-7.07767e-16
3.27398
-7.63278e-16
3.27398
-9.02056e-16
3.27398
-1.06859e-15
3.27398
-1.22125e-15
3.27398
-1.40166e-15
3.27398
-1.65146e-15
3.27398
-1.9984e-15
3.27398
-2.19269e-15
3.27398
-2.10942e-15
3.27398
-1.85962e-15
3.27398
-1.48492e-15
3.27398
-1.1241e-15
3.27398
-9.57567e-16
3.27398
-8.32667e-16
3.27398
-9.99201e-16
3.27398
-1.31839e-15
3.27398
-1.54043e-15
3.27398
-1.65146e-15
3.27398
-1.77636e-15
3.27398
-1.70697e-15
3.27398
-1.58207e-15
3.27398
-1.52656e-15
3.27398
-1.41553e-15
3.27398
-1.33227e-15
3.27398
-1.20737e-15
3.27398
-1.16573e-15
3.27398
-1.06859e-15
3.27398
-1.02696e-15
3.27398
-1.1241e-15
3.27398
-1.23512e-15
3.27398
-1.30451e-15
3.27398
-1.15186e-15
3.27398
-1.05471e-15
3.27398
-1.08247e-15
3.27398
-1.20737e-15
3.27398
-1.34615e-15
3.27398
-1.30451e-15
3.27398
-1.19349e-15
3.27398
-1.249e-15
3.27398
-1.17961e-15
3.27398
-9.15934e-16
3.27398
-5.41234e-16
3.27398
-3.60822e-16
3.27398
-1.249e-16
3.27398
1.249e-16
3.27398
2.91434e-16
3.27398
2.63678e-16
3.27398
1.11022e-16
3.27398
-1.38778e-16
3.27398
-2.498e-16
3.27398
-2.63678e-16
3.27398
-4.30211e-16
3.27398
-6.10623e-16
3.27398
-5.82867e-16
3.27398
-4.85723e-16
3.27398
-3.05311e-16
3.27398
2.77556e-17
3.27398
3.88578e-16
3.27398
6.52256e-16
3.27398
8.18789e-16
3.27398
9.57567e-16
3.27398
1.06859e-15
3.27398
1.04083e-15
3.27398
7.77156e-16
3.27398
4.71845e-16
3.27398
2.498e-16
3.27398
1.52656e-16
3.27398
2.91434e-16
3.27398
4.85723e-16
3.27398
7.77156e-16
3.27398
1.22125e-15
3.27398
1.90126e-15
3.27398
2.94209e-15
3.27398
4.70457e-15
3.27398
7.93809e-15
3.27398
1.34753e-14
3.27398
2.25792e-14
3.27398
3.73729e-14
3.27398
6.17423e-14
3.27398
1.01724e-13
3.27398
1.67713e-13
3.27398
2.76695e-13
3.27398
4.56385e-13
3.27398
7.53009e-13
3.27398
1.24285e-12
3.27398
2.05173e-12
3.27398
3.38726e-12
3.27398
5.59269e-12
3.27398
9.23503e-12
3.27398
1.52508e-11
3.27398
2.51873e-11
3.27398
4.16016e-11
3.27398
6.8719e-11
3.27398
1.13522e-10
3.27398
1.87554e-10
3.27398
3.09893e-10
3.27398
5.12081e-10
3.27398
8.46261e-10
3.27398
1.39865e-09
3.27398
2.31182e-09
3.27398
3.82149e-09
3.27398
6.31748e-09
3.27398
1.04444e-08
3.27398
1.72684e-08
3.27398
2.85522e-08
3.27398
4.72109e-08
3.27398
7.80645e-08
3.27398
1.29082e-07
3.27398
2.13438e-07
3.27398
3.52907e-07
3.27398
5.83474e-07
3.27398
9.64589e-07
3.27398
1.59444e-06
3.27398
2.63516e-06
3.27398
4.35429e-06
3.27398
7.19321e-06
3.27398
1.18796e-05
3.27398
1.96125e-05
3.27398
3.23664e-05
3.27399
5.33901e-05
3.274
8.80262e-05
3.27402
0.000145054
3.27406
0.000238893
3.27414
0.000393227
3.27428
0.000646957
3.27454
0.00106411
3.27504
0.00175024
3.27598
0.00288068
3.27774
0.00474691
3.28106
0.0078459
3.28737
0.0129995
0.0217103
3.29948
3.27398
-1.38778e-17
3.27398
-2.77556e-17
3.27398
1.38778e-17
3.27398
5.55112e-17
3.27398
1.38778e-16
3.27398
1.38778e-16
3.27398
4.16334e-17
3.27398
-1.38778e-17
3.27398
-2.77556e-17
3.27398
0
3.27398
-1.38778e-16
3.27398
-3.05311e-16
3.27398
-3.88578e-16
3.27398
-3.60822e-16
3.27398
-2.35922e-16
3.27398
-1.94289e-16
3.27398
-1.52656e-16
3.27398
-9.71445e-17
3.27398
1.249e-16
3.27398
2.77556e-16
3.27398
3.33067e-16
3.27398
4.30211e-16
3.27398
6.10623e-16
3.27398
6.93889e-16
3.27398
6.38378e-16
3.27398
4.57967e-16
3.27398
1.80411e-16
3.27398
-4.16334e-17
3.27398
-2.22045e-16
3.27398
-3.747e-16
3.27398
-5.82867e-16
3.27398
-7.63278e-16
3.27398
-8.18789e-16
3.27398
-7.63278e-16
3.27398
-6.80012e-16
3.27398
-6.66134e-16
3.27398
-6.93889e-16
3.27398
-7.35523e-16
3.27398
-8.18789e-16
3.27398
-8.04912e-16
3.27398
-8.32667e-16
3.27398
-9.71445e-16
3.27398
-1.09635e-15
3.27398
-1.1241e-15
3.27398
-1.19349e-15
3.27398
-1.27676e-15
3.27398
-1.3739e-15
3.27398
-1.34615e-15
3.27398
-1.36002e-15
3.27398
-1.34615e-15
3.27398
-1.17961e-15
3.27398
-9.15934e-16
3.27398
-7.49401e-16
3.27398
-7.35523e-16
3.27398
-7.63278e-16
3.27398
-8.60423e-16
3.27398
-9.99201e-16
3.27398
-1.19349e-15
3.27398
-1.42941e-15
3.27398
-1.67921e-15
3.27398
-2.02616e-15
3.27398
-2.26208e-15
3.27398
-2.28983e-15
3.27398
-2.33147e-15
3.27398
-2.38698e-15
3.27398
-2.30371e-15
3.27398
-2.15106e-15
3.27398
-1.95677e-15
3.27398
-1.88738e-15
3.27398
-1.77636e-15
3.27398
-1.70697e-15
3.27398
-1.76248e-15
3.27398
-1.92901e-15
3.27398
-2.01228e-15
3.27398
-1.85962e-15
3.27398
-1.67921e-15
3.27398
-1.65146e-15
3.27398
-1.60982e-15
3.27398
-1.73472e-15
3.27398
-2.01228e-15
3.27398
-2.17881e-15
3.27398
-2.22045e-15
3.27398
-2.22045e-15
3.27398
-2.17881e-15
3.27398
-2.1233e-15
3.27398
-2.05391e-15
3.27398
-2.16493e-15
3.27398
-2.30371e-15
3.27398
-2.41474e-15
3.27398
-2.48412e-15
3.27398
-2.52576e-15
3.27398
-2.498e-15
3.27398
-2.42861e-15
3.27398
-2.31759e-15
3.27398
-2.23432e-15
3.27398
-2.05391e-15
3.27398
-1.70697e-15
3.27398
-1.38778e-15
3.27398
-1.33227e-15
3.27398
-1.40166e-15
3.27398
-1.3739e-15
3.27398
-1.29063e-15
3.27398
-1.249e-15
3.27398
-1.41553e-15
3.27398
-1.73472e-15
3.27398
-1.94289e-15
3.27398
-1.91513e-15
3.27398
-1.65146e-15
3.27398
-1.48492e-15
3.27398
-1.41553e-15
3.27398
-1.38778e-15
3.27398
-1.41553e-15
3.27398
-1.45717e-15
3.27398
-1.3739e-15
3.27398
-1.19349e-15
3.27398
-1.08247e-15
3.27398
-1.09635e-15
3.27398
-1.33227e-15
3.27398
-1.51268e-15
3.27398
-1.79023e-15
3.27398
-2.19269e-15
3.27398
-2.40086e-15
3.27398
-2.3731e-15
3.27398
-2.44249e-15
3.27398
-2.44249e-15
3.27398
-2.44249e-15
3.27398
-2.44249e-15
3.27398
-2.2482e-15
3.27398
-2.02616e-15
3.27398
-1.72085e-15
3.27398
-1.58207e-15
3.27398
-1.3739e-15
3.27398
-1.30451e-15
3.27398
-1.34615e-15
3.27398
-1.41553e-15
3.27398
-1.48492e-15
3.27398
-1.52656e-15
3.27398
-1.58207e-15
3.27398
-1.63758e-15
3.27398
-1.7486e-15
3.27398
-1.76248e-15
3.27398
-1.77636e-15
3.27398
-1.77636e-15
3.27398
-1.65146e-15
3.27398
-1.4988e-15
3.27398
-1.54043e-15
3.27398
-1.72085e-15
3.27398
-1.84575e-15
3.27398
-1.83187e-15
3.27398
-1.69309e-15
3.27398
-1.63758e-15
3.27398
-1.95677e-15
3.27398
-2.38698e-15
3.27398
-2.66454e-15
3.27398
-2.56739e-15
3.27398
-2.40086e-15
3.27398
-2.33147e-15
3.27398
-2.33147e-15
3.27398
-2.41474e-15
3.27398
-2.45637e-15
3.27398
-2.44249e-15
3.27398
-2.33147e-15
3.27398
-2.06779e-15
3.27398
-2.08167e-15
3.27398
-2.2482e-15
3.27398
-2.30371e-15
3.27398
-2.16493e-15
3.27398
-1.8735e-15
3.27398
-1.63758e-15
3.27398
-1.4988e-15
3.27398
-1.45717e-15
3.27398
-1.41553e-15
3.27398
-1.34615e-15
3.27398
-1.31839e-15
3.27398
-1.17961e-15
3.27398
-9.57567e-16
3.27398
-6.66134e-16
3.27398
-5.27356e-16
3.27398
-4.16334e-16
3.27398
-1.38778e-16
3.27398
-2.77556e-17
3.27398
-1.11022e-16
3.27398
-2.91434e-16
3.27398
-5.41234e-16
3.27398
-6.245e-16
3.27398
-7.91034e-16
3.27398
-9.29812e-16
3.27398
-8.88178e-16
3.27398
-6.245e-16
3.27398
-4.02456e-16
3.27398
-3.33067e-16
3.27398
-2.91434e-16
3.27398
-2.498e-16
3.27398
-8.32667e-17
3.27398
-1.11022e-16
3.27398
-1.94289e-16
3.27398
-4.57967e-16
3.27398
-8.46545e-16
3.27398
-1.08247e-15
3.27398
-1.20737e-15
3.27398
-1.13798e-15
3.27398
-1.04083e-15
3.27398
-1.17961e-15
3.27398
-1.33227e-15
3.27398
-1.33227e-15
3.27398
-1.27676e-15
3.27398
-1.249e-15
3.27398
-1.41553e-15
3.27398
-1.58207e-15
3.27398
-1.67921e-15
3.27398
-1.56819e-15
3.27398
-1.63758e-15
3.27398
-1.77636e-15
3.27398
-1.7486e-15
3.27398
-1.51268e-15
3.27398
-1.38778e-15
3.27398
-1.249e-15
3.27398
-1.11022e-15
3.27398
-1.08247e-15
3.27398
-1.09635e-15
3.27398
-1.04083e-15
3.27398
-8.18789e-16
3.27398
-6.10623e-16
3.27398
-2.63678e-16
3.27398
1.52656e-16
3.27398
5.27356e-16
3.27398
7.07767e-16
3.27398
7.07767e-16
3.27398
6.66134e-16
3.27398
6.245e-16
3.27398
5.55112e-16
3.27398
4.30211e-16
3.27398
2.498e-16
3.27398
2.08167e-16
3.27398
2.63678e-16
3.27398
2.77556e-16
3.27398
4.57967e-16
3.27398
7.77156e-16
3.27398
1.20737e-15
3.27398
1.84575e-15
3.27398
3.20577e-15
3.27398
5.53724e-15
3.27398
9.22873e-15
3.27398
1.50158e-14
3.27398
2.45221e-14
3.27398
4.02456e-14
3.27398
6.60028e-14
3.27398
1.08247e-13
3.27398
1.77691e-13
3.27398
2.92169e-13
3.27398
4.80394e-13
3.27398
7.89618e-13
3.27398
1.29789e-12
3.27398
2.13352e-12
3.27398
3.50701e-12
3.27398
5.76411e-12
3.27398
9.47274e-12
3.27398
1.5566e-11
3.27398
2.55762e-11
3.27398
4.20198e-11
3.27398
6.90292e-11
3.27398
1.13388e-10
3.27398
1.86233e-10
3.27398
3.05843e-10
3.27398
5.02214e-10
3.27398
8.24561e-10
3.27398
1.35362e-09
3.27398
2.2218e-09
3.27398
3.64622e-09
3.27398
5.98276e-09
3.27398
9.81471e-09
3.27398
1.60976e-08
3.27398
2.63963e-08
3.27398
4.32727e-08
3.27398
7.09195e-08
3.27398
1.16194e-07
3.27398
1.90309e-07
3.27398
3.11583e-07
3.27398
5.09938e-07
3.27398
8.342e-07
3.27398
1.36401e-06
3.27398
2.22914e-06
3.27398
3.64092e-06
3.27398
5.94315e-06
3.27398
9.6946e-06
3.27399
1.58025e-05
3.274
2.57384e-05
3.27401
4.1886e-05
3.27403
6.81024e-05
3.27406
0.000110621
3.27412
0.000179507
3.27422
0.000290991
3.2744
0.000471236
3.2747
0.000762431
3.27521
0.00123258
3.2761
0.0019919
3.27762
0.00321844
3.28025
0.0052065
3.28481
0.00842682
0.0137142
3.29278
3.27398
9.71445e-17
3.27398
1.38778e-16
3.27398
1.38778e-16
3.27398
2.08167e-16
3.27398
2.91434e-16
3.27398
3.60822e-16
3.27398
4.02456e-16
3.27398
4.57967e-16
3.27398
4.71845e-16
3.27398
3.88578e-16
3.27398
4.30211e-16
3.27398
5.41234e-16
3.27398
5.27356e-16
3.27398
4.02456e-16
3.27398
3.19189e-16
3.27398
2.22045e-16
3.27398
1.80411e-16
3.27398
1.38778e-16
3.27398
2.22045e-16
3.27398
2.35922e-16
3.27398
1.94289e-16
3.27398
2.498e-16
3.27398
3.46945e-16
3.27398
3.05311e-16
3.27398
8.32667e-17
3.27398
6.93889e-17
3.27398
2.498e-16
3.27398
3.05311e-16
3.27398
2.08167e-16
3.27398
4.16334e-17
3.27398
-5.55112e-17
3.27398
-6.93889e-17
3.27398
-5.55112e-17
3.27398
0
3.27398
1.38778e-17
3.27398
5.55112e-17
3.27398
1.38778e-17
3.27398
-1.66533e-16
3.27398
-2.35922e-16
3.27398
-3.19189e-16
3.27398
-5.27356e-16
3.27398
-6.93889e-16
3.27398
-8.32667e-16
3.27398
-1.02696e-15
3.27398
-1.15186e-15
3.27398
-1.15186e-15
3.27398
-1.23512e-15
3.27398
-1.29063e-15
3.27398
-1.33227e-15
3.27398
-1.44329e-15
3.27398
-1.4988e-15
3.27398
-1.41553e-15
3.27398
-1.1241e-15
3.27398
-8.88178e-16
3.27398
-7.91034e-16
3.27398
-7.91034e-16
3.27398
-8.46545e-16
3.27398
-9.57567e-16
3.27398
-1.11022e-15
3.27398
-1.31839e-15
3.27398
-1.54043e-15
3.27398
-1.73472e-15
3.27398
-1.7486e-15
3.27398
-1.70697e-15
3.27398
-1.7486e-15
3.27398
-1.79023e-15
3.27398
-1.81799e-15
3.27398
-1.88738e-15
3.27398
-2.06779e-15
3.27398
-2.16493e-15
3.27398
-2.16493e-15
3.27398
-2.1233e-15
3.27398
-2.09555e-15
3.27398
-2.06779e-15
3.27398
-2.05391e-15
3.27398
-1.85962e-15
3.27398
-1.60982e-15
3.27398
-1.47105e-15
3.27398
-1.4988e-15
3.27398
-1.67921e-15
3.27398
-1.72085e-15
3.27398
-1.69309e-15
3.27398
-1.60982e-15
3.27398
-1.6237e-15
3.27398
-1.60982e-15
3.27398
-1.52656e-15
3.27398
-1.48492e-15
3.27398
-1.58207e-15
3.27398
-1.85962e-15
3.27398
-2.20657e-15
3.27398
-2.38698e-15
3.27398
-2.35922e-15
3.27398
-2.17881e-15
3.27398
-1.95677e-15
3.27398
-1.76248e-15
3.27398
-1.4988e-15
3.27398
-1.06859e-15
3.27398
-8.46545e-16
3.27398
-8.04912e-16
3.27398
-9.02056e-16
3.27398
-1.06859e-15
3.27398
-1.23512e-15
3.27398
-1.54043e-15
3.27398
-1.84575e-15
3.27398
-2.01228e-15
3.27398
-2.05391e-15
3.27398
-1.98452e-15
3.27398
-1.94289e-15
3.27398
-2.01228e-15
3.27398
-1.98452e-15
3.27398
-1.84575e-15
3.27398
-1.81799e-15
3.27398
-1.91513e-15
3.27398
-1.92901e-15
3.27398
-1.85962e-15
3.27398
-1.83187e-15
3.27398
-1.8735e-15
3.27398
-2.04003e-15
3.27398
-2.27596e-15
3.27398
-2.41474e-15
3.27398
-2.41474e-15
3.27398
-2.41474e-15
3.27398
-2.35922e-15
3.27398
-2.26208e-15
3.27398
-2.33147e-15
3.27398
-2.44249e-15
3.27398
-2.59515e-15
3.27398
-2.7478e-15
3.27398
-2.80331e-15
3.27398
-2.76168e-15
3.27398
-2.66454e-15
3.27398
-2.72005e-15
3.27398
-2.69229e-15
3.27398
-2.72005e-15
3.27398
-2.83107e-15
3.27398
-2.95597e-15
3.27398
-2.66454e-15
3.27398
-2.10942e-15
3.27398
-1.60982e-15
3.27398
-1.40166e-15
3.27398
-1.23512e-15
3.27398
-1.22125e-15
3.27398
-1.33227e-15
3.27398
-1.30451e-15
3.27398
-1.16573e-15
3.27398
-9.29812e-16
3.27398
-8.04912e-16
3.27398
-7.77156e-16
3.27398
-7.21645e-16
3.27398
-7.63278e-16
3.27398
-1.08247e-15
3.27398
-1.55431e-15
3.27398
-1.91513e-15
3.27398
-2.19269e-15
3.27398
-2.40086e-15
3.27398
-2.47025e-15
3.27398
-2.47025e-15
3.27398
-2.27596e-15
3.27398
-2.06779e-15
3.27398
-1.90126e-15
3.27398
-1.90126e-15
3.27398
-1.84575e-15
3.27398
-1.72085e-15
3.27398
-1.45717e-15
3.27398
-1.27676e-15
3.27398
-1.3739e-15
3.27398
-1.65146e-15
3.27398
-1.83187e-15
3.27398
-1.79023e-15
3.27398
-1.6237e-15
3.27398
-1.41553e-15
3.27398
-1.249e-15
3.27398
-1.09635e-15
3.27398
-8.46545e-16
3.27398
-5.55112e-16
3.27398
-3.33067e-16
3.27398
-2.77556e-16
3.27398
-2.91434e-16
3.27398
-5.27356e-16
3.27398
-9.15934e-16
3.27398
-1.01308e-15
3.27398
-8.04912e-16
3.27398
-4.44089e-16
3.27398
-1.249e-16
3.27398
5.55112e-17
3.27398
1.94289e-16
3.27398
3.33067e-16
3.27398
3.33067e-16
3.27398
2.08167e-16
3.27398
1.52656e-16
3.27398
-2.77556e-17
3.27398
-1.94289e-16
3.27398
-2.22045e-16
3.27398
-3.05311e-16
3.27398
-5.41234e-16
3.27398
-1.11022e-15
3.27398
-1.54043e-15
3.27398
-1.73472e-15
3.27398
-1.81799e-15
3.27398
-1.81799e-15
3.27398
-1.79023e-15
3.27398
-1.69309e-15
3.27398
-1.51268e-15
3.27398
-1.36002e-15
3.27398
-1.1241e-15
3.27398
-9.4369e-16
3.27398
-8.88178e-16
3.27398
-8.88178e-16
3.27398
-1.06859e-15
3.27398
-1.27676e-15
3.27398
-1.44329e-15
3.27398
-1.59595e-15
3.27398
-1.81799e-15
3.27398
-2.02616e-15
3.27398