/*--------------------------------*- C++ -*----------------------------------*\
| =========                 |                                                 |
| \\      /  F ield         | OpenFOAM: The Open Source CFD Toolbox           |
|  \\    /   O peration     | Version:  2412                                  |
|   \\  /    A nd           | Website:  www.openfoam.com                      |
|    \\/     M anipulation  |                                                 |
\*---------------------------------------------------------------------------*/
FoamFile
{
    version     2.0;
    format      ascii;
    arch        "LSB;label=32;scalar=64";
    class       surfaceScalarField;
    location    "0.002";
    object      phi_0;
}
// * * * * * * * * * * * * * * * * * * * * * * * * * * * * * * * * * * * * * //

dimensions      [1 0 -1 0 0 0 0];

oriented        oriented;

internalField   nonuniform List<scalar> 
359100
(
3.27398
2.77556e-17
3.27398
0
3.27398
1.38778e-17
3.27398
4.16334e-17
3.27398
1.38778e-17
3.27398
-1.11022e-16
3.27398
-2.63678e-16
3.27398
-3.05311e-16
3.27398
-4.30211e-16
3.27398
-5.96745e-16
3.27398
-5.96745e-16
3.27398
-3.88578e-16
3.27398
-2.63678e-16
3.27398
-3.33067e-16
3.27398
-6.10623e-16
3.27398
-8.46545e-16
3.27398
-1.01308e-15
3.27398
-1.06859e-15
3.27398
-9.85323e-16
3.27398
-9.02056e-16
3.27398
-9.4369e-16
3.27398
-1.16573e-15
3.27398
-1.34615e-15
3.27398
-1.3739e-15
3.27398
-1.249e-15
3.27398
-1.23512e-15
3.27398
-1.33227e-15
3.27398
-1.36002e-15
3.27398
-1.3739e-15
3.27398
-1.44329e-15
3.27398
-1.38778e-15
3.27398
-1.26288e-15
3.27398
-1.26288e-15
3.27398
-1.36002e-15
3.27398
-1.55431e-15
3.27398
-1.54043e-15
3.27398
-1.34615e-15
3.27398
-1.06859e-15
3.27398
-8.74301e-16
3.27398
-8.46545e-16
3.27398
-9.4369e-16
3.27398
-1.01308e-15
3.27398
-9.57567e-16
3.27398
-9.02056e-16
3.27398
-9.4369e-16
3.27398
-1.05471e-15
3.27398
-1.22125e-15
3.27398
-1.3739e-15
3.27398
-1.47105e-15
3.27398
-1.56819e-15
3.27398
-1.77636e-15
3.27398
-1.88738e-15
3.27398
-1.84575e-15
3.27398
-1.7486e-15
3.27398
-1.63758e-15
3.27398
-1.52656e-15
3.27398
-1.47105e-15
3.27398
-1.41553e-15
3.27398
-1.42941e-15
3.27398
-1.30451e-15
3.27398
-1.08247e-15
3.27398
-9.15934e-16
3.27398
-1.09635e-15
3.27398
-1.36002e-15
3.27398
-1.3739e-15
3.27398
-1.22125e-15
3.27398
-1.11022e-15
3.27398
-1.27676e-15
3.27398
-1.6237e-15
3.27398
-1.92901e-15
3.27398
-2.09555e-15
3.27398
-2.13718e-15
3.27398
-2.15106e-15
3.27398
-2.13718e-15
3.27398
-2.1233e-15
3.27398
-2.2482e-15
3.27398
-2.498e-15
3.27398
-2.48412e-15
3.27398
-2.04003e-15
3.27398
-1.56819e-15
3.27398
-1.249e-15
3.27398
-1.06859e-15
3.27398
-1.01308e-15
3.27398
-1.11022e-15
3.27398
-1.42941e-15
3.27398
-1.66533e-15
3.27398
-1.90126e-15
3.27398
-2.1233e-15
3.27398
-2.2482e-15
3.27398
-2.38698e-15
3.27398
-2.42861e-15
3.27398
-2.65066e-15
3.27398
-2.76168e-15
3.27398
-2.58127e-15
3.27398
-2.58127e-15
3.27398
-2.94209e-15
3.27398
-3.28904e-15
3.27398
-3.30291e-15
3.27398
-3.15026e-15
3.27398
-2.94209e-15
3.27398
-2.72005e-15
3.27398
-2.6229e-15
3.27398
-2.44249e-15
3.27398
-2.33147e-15
3.27398
-2.13718e-15
3.27398
-1.91513e-15
3.27398
-1.72085e-15
3.27398
-1.70697e-15
3.27398
-1.91513e-15
3.27398
-1.97065e-15
3.27398
-1.85962e-15
3.27398
-1.88738e-15
3.27398
-1.94289e-15
3.27398
-1.72085e-15
3.27398
-1.4988e-15
3.27398
-1.65146e-15
3.27398
-2.01228e-15
3.27398
-2.28983e-15
3.27398
-2.44249e-15
3.27398
-2.44249e-15
3.27398
-2.16493e-15
3.27398
-1.94289e-15
3.27398
-1.88738e-15
3.27398
-1.77636e-15
3.27398
-1.63758e-15
3.27398
-1.69309e-15
3.27398
-1.70697e-15
3.27398
-1.59595e-15
3.27398
-1.65146e-15
3.27398
-1.66533e-15
3.27398
-1.67921e-15
3.27398
-1.81799e-15
3.27398
-2.10942e-15
3.27398
-2.41474e-15
3.27398
-2.59515e-15
3.27398
-2.42861e-15
3.27398
-2.02616e-15
3.27398
-1.56819e-15
3.27398
-1.31839e-15
3.27398
-1.44329e-15
3.27398
-1.56819e-15
3.27398
-1.52656e-15
3.27398
-1.41553e-15
3.27398
-1.41553e-15
3.27398
-1.29063e-15
3.27398
-1.1241e-15
3.27398
-9.99201e-16
3.27398
-9.85323e-16
3.27398
-1.02696e-15
3.27398
-9.99201e-16
3.27398
-6.52256e-16
3.27398
-2.22045e-16
3.27398
6.93889e-17
3.27398
1.11022e-16
3.27398
2.77556e-17
3.27398
-2.498e-16
3.27398
-4.71845e-16
3.27398
-5.55112e-16
3.27398
-7.07767e-16
3.27398
-9.85323e-16
3.27398
-1.23512e-15
3.27398
-1.48492e-15
3.27398
-1.55431e-15
3.27398
-1.51268e-15
3.27398
-1.52656e-15
3.27398
-1.4988e-15
3.27398
-1.26288e-15
3.27398
-1.04083e-15
3.27398
-1.01308e-15
3.27398
-1.02696e-15
3.27398
-9.85323e-16
3.27398
-6.93889e-16
3.27398
-5.68989e-16
3.27398
-8.04912e-16
3.27398
-1.16573e-15
3.27398
-1.7486e-15
3.27398
-2.41474e-15
3.27398
-2.85882e-15
3.27398
-2.85882e-15
3.27398
-2.53964e-15
3.27398
-2.16493e-15
3.27398
-1.90126e-15
3.27398
-1.56819e-15
3.27398
-1.45717e-15
3.27398
-1.58207e-15
3.27398
-1.79023e-15
3.27398
-2.06779e-15
3.27398
-2.23432e-15
3.27398
-2.15106e-15
3.27398
-1.84575e-15
3.27398
-1.66533e-15
3.27398
-1.58207e-15
3.27398
-1.56819e-15
3.27398
-1.67921e-15
3.27398
-1.73472e-15
3.27398
-1.63758e-15
3.27398
-1.44329e-15
3.27398
-1.26288e-15
3.27398
-1.30451e-15
3.27398
-1.42941e-15
3.27398
-1.26288e-15
3.27398
-8.46545e-16
3.27398
-6.52256e-16
3.27398
-6.66134e-16
3.27398
-7.21645e-16
3.27398
-7.21645e-16
3.27398
-8.18789e-16
3.27398
-1.08247e-15
3.27398
-1.17961e-15
3.27398
-1.02696e-15
3.27398
-5.68989e-16
3.27398
-5.55112e-17
3.27398
3.88578e-16
3.27398
7.63278e-16
3.27398
1.08247e-15
3.27398
1.34615e-15
3.27398
1.47105e-15
3.27398
1.41553e-15
3.27398
1.30451e-15
3.27398
1.48492e-15
3.27398
1.42941e-15
3.27398
1.26288e-15
3.27398
9.15934e-16
3.27398
5.27356e-16
3.27398
9.71445e-17
3.27398
-2.498e-16
3.27398
-4.16334e-16
3.27398
-4.44089e-16
3.27398
-4.02456e-16
3.27398
-3.88578e-16
3.27398
-3.747e-16
3.27398
-4.71845e-16
3.27398
-5.68989e-16
3.27398
-5.27356e-16
3.27398
-4.16334e-16
3.27398
-1.11022e-16
3.27398
2.77556e-16
3.27398
7.21645e-16
3.27398
1.11022e-15
3.27398
1.40166e-15
3.27398
1.8735e-15
3.27398
2.67841e-15
3.27398
4.01068e-15
3.27398
6.27276e-15
3.27398
1.02973e-14
3.27398
1.70697e-14
3.27398
2.80331e-14
3.27398
4.57689e-14
3.27398
7.49678e-14
3.27398
1.2354e-13
3.27398
2.04531e-13
3.27398
3.39603e-13
3.27398
5.6434e-13
3.27398
9.38291e-13
3.27398
1.56046e-12
3.27398
2.59634e-12
3.27398
4.32178e-12
3.27398
7.19737e-12
3.27398
1.19925e-11
3.27398
1.99926e-11
3.27398
3.33472e-11
3.27398
5.56548e-11
3.27398
9.29416e-11
3.27398
1.55309e-10
3.27398
2.59702e-10
3.27398
4.34575e-10
3.27398
7.27745e-10
3.27398
1.21965e-09
3.27398
2.04572e-09
3.27398
3.43425e-09
3.27398
5.77047e-09
3.27398
9.70511e-09
3.27398
1.63388e-08
3.27398
2.75352e-08
3.27398
4.64542e-08
3.27398
7.84606e-08
3.27398
1.32675e-07
3.27398
2.24624e-07
3.27398
3.80783e-07
3.27398
6.46357e-07
3.27398
1.09866e-06
3.27398
1.87015e-06
3.27397
3.18809e-06
3.27397
5.44316e-06
3.27396
9.30814e-06
3.27394
1.59438e-05
3.27391
2.73572e-05
3.27387
4.70257e-05
3.27379
8.0991e-05
3.27365
0.000139777
3.2734
0.000241795
3.27298
0.000419373
3.27225
0.000729771
3.27097
0.00127496
3.26873
0.0022404
3.26476
0.00396516
3.25765
0.00710153
3.24475
0.0128863
3.22078
0.0239458
0.0451402
3.17561
3.27398
2.77556e-17
3.27398
2.77556e-17
3.27398
-1.11022e-16
3.27398
-1.94289e-16
3.27398
-2.22045e-16
3.27398
-1.38778e-17
3.27398
1.11022e-16
3.27398
8.32667e-17
3.27398
1.11022e-16
3.27398
2.63678e-16
3.27398
3.747e-16
3.27398
3.33067e-16
3.27398
2.63678e-16
3.27398
1.11022e-16
3.27398
-1.80411e-16
3.27398
-5.55112e-16
3.27398
-8.18789e-16
3.27398
-9.4369e-16
3.27398
-9.71445e-16
3.27398
-1.05471e-15
3.27398
-1.15186e-15
3.27398
-1.30451e-15
3.27398
-1.52656e-15
3.27398
-1.58207e-15
3.27398
-1.6237e-15
3.27398
-1.69309e-15
3.27398
-1.69309e-15
3.27398
-1.70697e-15
3.27398
-1.58207e-15
3.27398
-1.38778e-15
3.27398
-1.249e-15
3.27398
-1.11022e-15
3.27398
-1.02696e-15
3.27398
-9.02056e-16
3.27398
-8.46545e-16
3.27398
-9.4369e-16
3.27398
-8.46545e-16
3.27398
-7.49401e-16
3.27398
-7.49401e-16
3.27398
-8.32667e-16
3.27398
-9.85323e-16
3.27398
-1.11022e-15
3.27398
-1.20737e-15
3.27398
-1.26288e-15
3.27398
-1.31839e-15
3.27398
-1.30451e-15
3.27398
-1.3739e-15
3.27398
-1.40166e-15
3.27398
-1.42941e-15
3.27398
-1.52656e-15
3.27398
-1.54043e-15
3.27398
-1.56819e-15
3.27398
-1.54043e-15
3.27398
-1.55431e-15
3.27398
-1.58207e-15
3.27398
-1.52656e-15
3.27398
-1.47105e-15
3.27398
-1.4988e-15
3.27398
-1.47105e-15
3.27398
-1.34615e-15
3.27398
-1.19349e-15
3.27398
-1.09635e-15
3.27398
-1.11022e-15
3.27398
-1.15186e-15
3.27398
-1.20737e-15
3.27398
-1.41553e-15
3.27398
-1.72085e-15
3.27398
-1.97065e-15
3.27398
-2.05391e-15
3.27398
-1.91513e-15
3.27398
-1.80411e-15
3.27398
-1.76248e-15
3.27398
-1.79023e-15
3.27398
-1.7486e-15
3.27398
-1.84575e-15
3.27398
-1.85962e-15
3.27398
-1.95677e-15
3.27398
-2.10942e-15
3.27398
-2.10942e-15
3.27398
-2.04003e-15
3.27398
-2.01228e-15
3.27398
-2.09555e-15
3.27398
-2.2482e-15
3.27398
-2.44249e-15
3.27398
-2.63678e-15
3.27398
-2.76168e-15
3.27398
-2.59515e-15
3.27398
-2.19269e-15
3.27398
-1.7486e-15
3.27398
-1.40166e-15
3.27398
-1.41553e-15
3.27398
-1.54043e-15
3.27398
-1.65146e-15
3.27398
-1.67921e-15
3.27398
-1.73472e-15
3.27398
-1.95677e-15
3.27398
-2.20657e-15
3.27398
-2.40086e-15
3.27398
-2.51188e-15
3.27398
-2.44249e-15
3.27398
-2.41474e-15
3.27398
-2.30371e-15
3.27398
-2.1233e-15
3.27398
-1.92901e-15
3.27398
-1.7486e-15
3.27398
-1.63758e-15
3.27398
-1.88738e-15
3.27398
-2.27596e-15
3.27398
-2.42861e-15
3.27398
-2.51188e-15
3.27398
-2.42861e-15
3.27398
-2.09555e-15
3.27398
-1.69309e-15
3.27398
-1.26288e-15
3.27398
-8.18789e-16
3.27398
-6.245e-16
3.27398
-5.82867e-16
3.27398
-7.07767e-16
3.27398
-8.88178e-16
3.27398
-9.85323e-16
3.27398
-1.15186e-15
3.27398
-1.47105e-15
3.27398
-1.69309e-15
3.27398
-1.8735e-15
3.27398
-2.09555e-15
3.27398
-2.2482e-15
3.27398
-2.40086e-15
3.27398
-2.6229e-15
3.27398
-2.83107e-15
3.27398
-2.92821e-15
3.27398
-2.85882e-15
3.27398
-2.67841e-15
3.27398
-2.53964e-15
3.27398
-2.498e-15
3.27398
-2.51188e-15
3.27398
-2.48412e-15
3.27398
-2.35922e-15
3.27398
-2.15106e-15
3.27398
-1.8735e-15
3.27398
-1.60982e-15
3.27398
-1.44329e-15
3.27398
-1.40166e-15
3.27398
-1.48492e-15
3.27398
-1.54043e-15
3.27398
-1.59595e-15
3.27398
-1.7486e-15
3.27398
-1.90126e-15
3.27398
-1.92901e-15
3.27398
-1.85962e-15
3.27398
-1.66533e-15
3.27398
-1.23512e-15
3.27398
-8.32667e-16
3.27398
-5.41234e-16
3.27398
-4.16334e-16
3.27398
-5.13478e-16
3.27398
-5.68989e-16
3.27398
-4.996e-16
3.27398
-4.996e-16
3.27398
-5.41234e-16
3.27398
-5.55112e-16
3.27398
-6.93889e-16
3.27398
-9.29812e-16
3.27398
-1.16573e-15
3.27398
-1.3739e-15
3.27398
-1.59595e-15
3.27398
-1.63758e-15
3.27398
-1.4988e-15
3.27398
-1.34615e-15
3.27398
-1.29063e-15
3.27398
-1.34615e-15
3.27398
-1.30451e-15
3.27398
-1.27676e-15
3.27398
-1.31839e-15
3.27398
-1.45717e-15
3.27398
-1.88738e-15
3.27398
-2.31759e-15
3.27398
-2.53964e-15
3.27398
-2.48412e-15
3.27398
-2.27596e-15
3.27398
-1.88738e-15
3.27398
-1.44329e-15
3.27398
-9.85323e-16
3.27398
-7.63278e-16
3.27398
-8.46545e-16
3.27398
-9.85323e-16
3.27398
-1.27676e-15
3.27398
-1.48492e-15
3.27398
-1.59595e-15
3.27398
-1.59595e-15
3.27398
-1.60982e-15
3.27398
-1.41553e-15
3.27398
-1.33227e-15
3.27398
-1.60982e-15
3.27398
-2.01228e-15
3.27398
-2.27596e-15
3.27398
-2.23432e-15
3.27398
-2.15106e-15
3.27398
-2.04003e-15
3.27398
-1.73472e-15
3.27398
-1.44329e-15
3.27398
-1.15186e-15
3.27398
-9.29812e-16
3.27398
-7.91034e-16
3.27398
-7.63278e-16
3.27398
-7.21645e-16
3.27398
-6.93889e-16
3.27398
-6.52256e-16
3.27398
-5.27356e-16
3.27398
-4.30211e-16
3.27398
-4.16334e-16
3.27398
-3.05311e-16
3.27398
8.32667e-17
3.27398
5.41234e-16
3.27398
6.93889e-16
3.27398
6.10623e-16
3.27398
4.44089e-16
3.27398
2.498e-16
3.27398
6.93889e-17
3.27398
3.26178e-31
3.27398
-6.93889e-17
3.27398
-2.77556e-17
3.27398
6.93889e-17
3.27398
1.38778e-16
3.27398
9.71445e-17
3.27398
2.22045e-16
3.27398
5.55112e-16
3.27398
8.32667e-16
3.27398
9.57567e-16
3.27398
1.05471e-15
3.27398
1.06859e-15
3.27398
8.60423e-16
3.27398
7.21645e-16
3.27398
5.82867e-16
3.27398
4.16334e-16
3.27398
3.05311e-16
3.27398
3.60822e-16
3.27398
5.68989e-16
3.27398
8.32667e-16
3.27398
1.08247e-15
3.27398
1.42941e-15
3.27398
2.19269e-15
3.27398
3.67761e-15
3.27398
6.28664e-15
3.27398
1.06304e-14
3.27398
1.78746e-14
3.27398
2.98095e-14
3.27398
4.91551e-14
3.27398
8.08936e-14
3.27398
1.33379e-13
3.27398
2.20379e-13
3.27398
3.64417e-13
3.27398
6.0317e-13
3.27398
9.99215e-13
3.27398
1.65581e-12
3.27398
2.74472e-12
3.27398
4.55118e-12
3.27398
7.54867e-12
3.27398
1.25238e-11
3.27398
2.0784e-11
3.27398
3.45021e-11
3.27398
5.72916e-11
3.27398
9.5164e-11
3.27398
1.58123e-10
3.27398
2.62824e-10
3.27398
4.37005e-10
3.27398
7.26887e-10
3.27398
1.20951e-09
3.27398
2.01336e-09
3.27398
3.35277e-09
3.27398
5.5855e-09
3.27398
9.30897e-09
3.27398
1.55211e-08
3.27398
2.58901e-08
3.27398
4.32048e-08
3.27398
7.2131e-08
3.27398
1.20477e-07
3.27398
2.01319e-07
3.27398
3.36556e-07
3.27398
5.62893e-07
3.27398
9.41865e-07
3.27398
1.57668e-06
3.27398
2.64052e-06
3.27398
4.42407e-06
3.27397
7.41546e-06
3.27397
1.24347e-05
3.27397
2.08596e-05
3.27396
3.50067e-05
3.27395
5.87722e-05
3.27393
9.87132e-05
3.2739
0.000165874
3.27386
0.000278883
3.27381
0.000469217
3.27375
0.000790225
3.27369
0.0013328
3.27368
0.00225277
3.27381
0.00382073
3.2744
0.00651064
3.27609
0.0111772
3.28069
0.019327
0.0338424
3.29196
3.27398
-4.16334e-17
3.27398
-9.71445e-17
3.27398
-9.71445e-17
3.27398
-1.38778e-16
3.27398
-1.11022e-16
3.27398
-1.249e-16
3.27398
-1.80411e-16
3.27398
-2.22045e-16
3.27398
-2.498e-16
3.27398
-2.63678e-16
3.27398
-3.19189e-16
3.27398
-4.02456e-16
3.27398
-3.60822e-16
3.27398
-2.91434e-16
3.27398
-3.747e-16
3.27398
-5.13478e-16
3.27398
-6.52256e-16
3.27398
-8.32667e-16
3.27398
-9.85323e-16
3.27398
-9.71445e-16
3.27398
-8.46545e-16
3.27398
-7.21645e-16
3.27398
-5.82867e-16
3.27398
-5.41234e-16
3.27398
-5.82867e-16
3.27398
-7.07767e-16
3.27398
-9.02056e-16
3.27398
-9.85323e-16
3.27398
-1.04083e-15
3.27398
-1.1241e-15
3.27398
-1.04083e-15
3.27398
-1.04083e-15
3.27398
-9.85323e-16
3.27398
-9.71445e-16
3.27398
-1.02696e-15
3.27398
-1.15186e-15
3.27398
-1.36002e-15
3.27398
-1.30451e-15
3.27398
-1.16573e-15
3.27398
-1.05471e-15
3.27398
-9.57567e-16
3.27398
-1.01308e-15
3.27398
-1.17961e-15
3.27398
-1.3739e-15
3.27398
-1.47105e-15
3.27398
-1.4988e-15
3.27398
-1.36002e-15
3.27398
-1.15186e-15
3.27398
-9.99201e-16
3.27398
-9.29812e-16
3.27398
-9.02056e-16
3.27398
-9.4369e-16
3.27398
-9.29812e-16
3.27398
-9.29812e-16
3.27398
-1.09635e-15
3.27398
-1.249e-15
3.27398
-1.45717e-15
3.27398
-1.55431e-15
3.27398
-1.4988e-15
3.27398
-1.42941e-15
3.27398
-1.26288e-15
3.27398
-1.17961e-15
3.27398
-1.36002e-15
3.27398
-1.56819e-15
3.27398
-1.70697e-15
3.27398
-1.69309e-15
3.27398
-1.69309e-15
3.27398
-1.54043e-15
3.27398
-1.41553e-15
3.27398
-1.40166e-15
3.27398
-1.36002e-15
3.27398
-1.26288e-15
3.27398
-1.09635e-15
3.27398
-9.57567e-16
3.27398
-8.74301e-16
3.27398
-9.15934e-16
3.27398
-9.4369e-16
3.27398
-1.1241e-15
3.27398
-1.52656e-15
3.27398
-2.04003e-15
3.27398
-2.40086e-15
3.27398
-2.53964e-15
3.27398
-2.55351e-15
3.27398
-2.55351e-15
3.27398
-2.65066e-15
3.27398
-2.66454e-15
3.27398
-2.38698e-15
3.27398
-2.04003e-15
3.27398
-1.7486e-15
3.27398
-1.73472e-15
3.27398
-1.81799e-15
3.27398
-1.85962e-15
3.27398
-1.88738e-15
3.27398
-1.84575e-15
3.27398
-1.72085e-15
3.27398
-1.6237e-15
3.27398
-1.60982e-15
3.27398
-1.79023e-15
3.27398
-1.90126e-15
3.27398
-1.94289e-15
3.27398
-1.67921e-15
3.27398
-1.3739e-15
3.27398
-1.11022e-15
3.27398
-9.85323e-16
3.27398
-1.15186e-15
3.27398
-1.41553e-15
3.27398
-1.59595e-15
3.27398
-1.7486e-15
3.27398
-1.92901e-15
3.27398
-2.15106e-15
3.27398
-2.26208e-15
3.27398
-2.1233e-15
3.27398
-1.94289e-15
3.27398
-1.69309e-15
3.27398
-1.4988e-15
3.27398
-1.29063e-15
3.27398
-1.16573e-15
3.27398
-1.15186e-15
3.27398
-1.38778e-15
3.27398
-1.72085e-15
3.27398
-2.01228e-15
3.27398
-2.16493e-15
3.27398
-2.23432e-15
3.27398
-2.19269e-15
3.27398
-2.1233e-15
3.27398
-1.94289e-15
3.27398
-1.70697e-15
3.27398
-1.60982e-15
3.27398
-1.56819e-15
3.27398
-1.6237e-15
3.27398
-1.63758e-15
3.27398
-1.52656e-15
3.27398
-1.36002e-15
3.27398
-1.33227e-15
3.27398
-1.3739e-15
3.27398
-1.66533e-15
3.27398
-2.15106e-15
3.27398
-2.38698e-15
3.27398
-2.30371e-15
3.27398
-2.1233e-15
3.27398
-1.98452e-15
3.27398
-1.85962e-15
3.27398
-1.76248e-15
3.27398
-1.67921e-15
3.27398
-1.90126e-15
3.27398
-2.17881e-15
3.27398
-2.31759e-15
3.27398
-2.41474e-15
3.27398
-2.3731e-15
3.27398
-2.2482e-15
3.27398
-2.16493e-15
3.27398
-2.06779e-15
3.27398
-1.91513e-15
3.27398
-1.88738e-15
3.27398
-1.80411e-15
3.27398
-1.58207e-15
3.27398
-1.42941e-15
3.27398
-1.42941e-15
3.27398
-1.42941e-15
3.27398
-1.34615e-15
3.27398
-1.20737e-15
3.27398
-1.1241e-15
3.27398
-1.17961e-15
3.27398
-1.26288e-15
3.27398
-1.13798e-15
3.27398
-9.15934e-16
3.27398
-7.91034e-16
3.27398
-7.49401e-16
3.27398
-8.74301e-16
3.27398
-9.99201e-16
3.27398
-1.11022e-15
3.27398
-1.23512e-15
3.27398
-1.52656e-15
3.27398
-1.85962e-15
3.27398
-2.04003e-15
3.27398
-1.9984e-15
3.27398
-1.77636e-15
3.27398
-1.47105e-15
3.27398
-1.08247e-15
3.27398
-8.60423e-16
3.27398
-8.32667e-16
3.27398
-9.57567e-16
3.27398
-1.38778e-15
3.27398
-1.60982e-15
3.27398
-1.73472e-15
3.27398
-1.79023e-15
3.27398
-1.7486e-15
3.27398
-1.60982e-15
3.27398
-1.51268e-15
3.27398
-1.38778e-15
3.27398
-1.29063e-15
3.27398
-1.249e-15
3.27398
-1.23512e-15
3.27398
-1.249e-15
3.27398
-1.19349e-15
3.27398
-1.249e-15
3.27398
-1.3739e-15
3.27398
-1.42941e-15
3.27398
-1.33227e-15
3.27398
-1.13798e-15
3.27398
-1.1241e-15
3.27398
-1.22125e-15
3.27398
-1.36002e-15
3.27398
-1.30451e-15
3.27398
-1.22125e-15
3.27398
-1.16573e-15
3.27398
-1.11022e-15
3.27398
-9.15934e-16
3.27398
-6.38378e-16
3.27398
-4.16334e-16
3.27398
-2.08167e-16
3.27398
-1.38778e-17
3.27398
1.52656e-16
3.27398
1.66533e-16
3.27398
-1.38778e-17
3.27398
-2.08167e-16
3.27398
-2.91434e-16
3.27398
-2.91434e-16
3.27398
-3.46945e-16
3.27398
-5.27356e-16
3.27398
-4.57967e-16
3.27398
-2.91434e-16
3.27398
-1.11022e-16
3.27398
1.52656e-16
3.27398
5.41234e-16
3.27398
8.74301e-16
3.27398
9.85323e-16
3.27398
1.04083e-15
3.27398
1.09635e-15
3.27398
1.11022e-15
3.27398
9.4369e-16
3.27398
5.27356e-16
3.27398
2.08167e-16
3.27398
5.55112e-17
3.27398
1.38778e-16
3.27398
3.05311e-16
3.27398
4.71845e-16
3.27398
6.93889e-16
3.27398
1.06859e-15
3.27398
1.67921e-15
3.27398
2.73392e-15
3.27398
4.67681e-15
3.27398
8.03524e-15
3.27398
1.36141e-14
3.27398
2.26624e-14
3.27398
3.73729e-14
3.27398
6.16313e-14
3.27398
1.01558e-13
3.27398
1.67463e-13
3.27398
2.76182e-13
3.27398
4.55608e-13
3.27398
7.5201e-13
3.27398
1.24144e-12
3.27398
2.0494e-12
3.27398
3.38354e-12
3.27398
5.58695e-12
3.27398
9.22619e-12
3.27398
1.52371e-11
3.27398
2.51658e-11
3.27398
4.15678e-11
3.27398
6.86658e-11
3.27398
1.13439e-10
3.27398
1.87422e-10
3.27398
3.09685e-10
3.27398
5.11752e-10
3.27398
8.45744e-10
3.27398
1.39784e-09
3.27398
2.31053e-09
3.27398
3.81945e-09
3.27398
6.31427e-09
3.27398
1.04394e-08
3.27398
1.72603e-08
3.27398
2.85395e-08
3.27398
4.71907e-08
3.27398
7.80326e-08
3.27398
1.29032e-07
3.27398
2.13358e-07
3.27398
3.5278e-07
3.27398
5.83272e-07
3.27398
9.64268e-07
3.27398
1.59393e-06
3.27398
2.63434e-06
3.27398
4.353e-06
3.27398
7.19115e-06
3.27398
1.18763e-05
3.27398
1.96073e-05
3.27398
3.23581e-05
3.27399
5.33768e-05
3.274
8.80049e-05
3.27402
0.00014502
3.27406
0.000238839
3.27414
0.00039314
3.27428
0.000646818
3.27454
0.00106389
3.27504
0.00174988
3.27598
0.00288009
3.27774
0.00474595
3.28106
0.00784432
3.28737
0.0129968
0.0217059
3.29948
3.27398
2.54824e-33
3.27398
-1.27413e-33
3.27398
2.77556e-17
3.27398
5.55112e-17
3.27398
1.11022e-16
3.27398
6.93889e-17
3.27398
-2.77556e-17
3.27398
-2.77556e-17
3.27398
5.55112e-17
3.27398
-2.77556e-17
3.27398
-1.80411e-16
3.27398
-2.498e-16
3.27398
-3.19189e-16
3.27398
-2.91434e-16
3.27398
-2.63678e-16
3.27398
-2.22045e-16
3.27398
-1.38778e-16
3.27398
5.55112e-17
3.27398
1.80411e-16
3.27398
1.80411e-16
3.27398
2.77556e-16
3.27398
4.71845e-16
3.27398
5.96745e-16
3.27398
5.68989e-16
3.27398
4.57967e-16
3.27398
3.05311e-16
3.27398
1.11022e-16
3.27398
-5.55112e-17
3.27398
-2.77556e-16
3.27398
-4.57967e-16
3.27398
-6.93889e-16
3.27398
-8.18789e-16
3.27398
-8.46545e-16
3.27398
-8.60423e-16
3.27398
-8.04912e-16
3.27398
-7.63278e-16
3.27398
-7.35523e-16
3.27398
-7.49401e-16
3.27398
-7.21645e-16
3.27398
-6.93889e-16
3.27398
-8.18789e-16
3.27398
-9.29812e-16
3.27398
-9.99201e-16
3.27398
-1.04083e-15
3.27398
-1.17961e-15
3.27398
-1.27676e-15
3.27398
-1.33227e-15
3.27398
-1.36002e-15
3.27398
-1.40166e-15
3.27398
-1.26288e-15
3.27398
-1.02696e-15
3.27398
-7.49401e-16
3.27398
-6.80012e-16
3.27398
-7.77156e-16
3.27398
-8.46545e-16
3.27398
-1.02696e-15
3.27398
-1.16573e-15
3.27398
-1.27676e-15
3.27398
-1.51268e-15
3.27398
-1.84575e-15
3.27398
-2.13718e-15
3.27398
-2.2482e-15
3.27398
-2.27596e-15
3.27398
-2.40086e-15
3.27398
-2.38698e-15
3.27398
-2.34535e-15
3.27398
-2.17881e-15
3.27398
-2.01228e-15
3.27398
-1.8735e-15
3.27398
-1.7486e-15
3.27398
-1.72085e-15
3.27398
-1.84575e-15
3.27398
-1.92901e-15
3.27398
-1.76248e-15
3.27398
-1.6237e-15
3.27398
-1.6237e-15
3.27398
-1.6237e-15
3.27398
-1.69309e-15
3.27398
-1.88738e-15
3.27398
-2.09555e-15
3.27398
-2.22045e-15
3.27398
-2.22045e-15
3.27398
-2.19269e-15
3.27398
-2.15106e-15
3.27398
-2.08167e-15
3.27398
-2.08167e-15
3.27398
-2.22045e-15
3.27398
-2.2482e-15
3.27398
-2.30371e-15
3.27398
-2.30371e-15
3.27398
-2.31759e-15
3.27398
-2.30371e-15
3.27398
-2.2482e-15
3.27398
-2.20657e-15
3.27398
-2.02616e-15
3.27398
-1.69309e-15
3.27398
-1.44329e-15
3.27398
-1.38778e-15
3.27398
-1.42941e-15
3.27398
-1.42941e-15
3.27398
-1.40166e-15
3.27398
-1.29063e-15
3.27398
-1.36002e-15
3.27398
-1.66533e-15
3.27398
-1.91513e-15
3.27398
-1.92901e-15
3.27398
-1.67921e-15
3.27398
-1.44329e-15
3.27398
-1.30451e-15
3.27398
-1.23512e-15
3.27398
-1.29063e-15
3.27398
-1.34615e-15
3.27398
-1.29063e-15
3.27398
-1.1241e-15
3.27398
-1.01308e-15
3.27398
-1.02696e-15
3.27398
-1.249e-15
3.27398
-1.54043e-15
3.27398
-1.76248e-15
3.27398
-2.10942e-15
3.27398
-2.31759e-15
3.27398
-2.35922e-15
3.27398
-2.3731e-15
3.27398
-2.38698e-15
3.27398
-2.34535e-15
3.27398
-2.34535e-15
3.27398
-2.2482e-15
3.27398
-2.05391e-15
3.27398
-1.85962e-15
3.27398
-1.66533e-15
3.27398
-1.59595e-15
3.27398
-1.58207e-15
3.27398
-1.63758e-15
3.27398
-1.65146e-15
3.27398
-1.6237e-15
3.27398
-1.6237e-15
3.27398
-1.56819e-15
3.27398
-1.56819e-15
3.27398
-1.73472e-15
3.27398
-1.79023e-15
3.27398
-1.85962e-15
3.27398
-1.90126e-15
3.27398
-1.76248e-15
3.27398
-1.60982e-15
3.27398
-1.56819e-15
3.27398
-1.69309e-15
3.27398
-1.84575e-15
3.27398
-1.76248e-15
3.27398
-1.6237e-15
3.27398
-1.54043e-15
3.27398
-1.77636e-15
3.27398
-2.2482e-15
3.27398
-2.67841e-15
3.27398
-2.67841e-15
3.27398
-2.56739e-15
3.27398
-2.44249e-15
3.27398
-2.44249e-15
3.27398
-2.42861e-15
3.27398
-2.51188e-15
3.27398
-2.498e-15
3.27398
-2.3731e-15
3.27398
-2.15106e-15
3.27398
-2.10942e-15
3.27398
-2.23432e-15
3.27398
-2.33147e-15
3.27398
-2.23432e-15
3.27398
-1.91513e-15
3.27398
-1.60982e-15
3.27398
-1.41553e-15
3.27398
-1.33227e-15
3.27398
-1.33227e-15
3.27398
-1.29063e-15
3.27398
-1.23512e-15
3.27398
-1.16573e-15
3.27398
-9.57567e-16
3.27398
-7.07767e-16
3.27398
-5.68989e-16
3.27398
-4.71845e-16
3.27398
-3.05311e-16
3.27398
-2.08167e-16
3.27398
-1.80411e-16
3.27398
-3.05311e-16
3.27398
-4.30211e-16
3.27398
-5.55112e-16
3.27398
-6.66134e-16
3.27398
-8.32667e-16
3.27398
-8.32667e-16
3.27398
-5.55112e-16
3.27398
-3.05311e-16
3.27398
-1.94289e-16
3.27398
-2.22045e-16
3.27398
-1.38778e-16
3.27398
-2.77556e-17
3.27398
6.93889e-17
3.27398
2.77556e-17
3.27398
-2.77556e-16
3.27398
-6.80012e-16
3.27398
-9.57567e-16
3.27398
-1.09635e-15
3.27398
-1.11022e-15
3.27398
-1.06859e-15
3.27398
-1.22125e-15
3.27398
-1.42941e-15
3.27398
-1.4988e-15
3.27398
-1.44329e-15
3.27398
-1.38778e-15
3.27398
-1.45717e-15
3.27398
-1.60982e-15
3.27398
-1.69309e-15
3.27398
-1.60982e-15
3.27398
-1.63758e-15
3.27398
-1.70697e-15
3.27398
-1.70697e-15
3.27398
-1.55431e-15
3.27398
-1.3739e-15
3.27398
-1.26288e-15
3.27398
-1.1241e-15
3.27398
-1.01308e-15
3.27398
-1.04083e-15
3.27398
-9.99201e-16
3.27398
-8.18789e-16
3.27398
-6.66134e-16
3.27398
-4.71845e-16
3.27398
-6.93889e-17
3.27398
3.33067e-16
3.27398
5.55112e-16
3.27398
6.66134e-16
3.27398
6.52256e-16
3.27398
6.52256e-16
3.27398
5.96745e-16
3.27398
4.71845e-16
3.27398
3.46945e-16
3.27398
2.63678e-16
3.27398
2.22045e-16
3.27398
1.94289e-16
3.27398
2.08167e-16
3.27398
4.85723e-16
3.27398
7.63278e-16
3.27398
1.17961e-15
3.27398
1.8735e-15
3.27398
3.30291e-15
3.27398
5.57887e-15
3.27398
9.11771e-15
3.27398
1.49325e-14
3.27398
2.45359e-14
3.27398
4.02733e-14
3.27398
6.59056e-14
3.27398
1.08025e-13
3.27398
1.77497e-13
3.27398
2.91808e-13
3.27398
4.79658e-13
3.27398
7.88425e-13
3.27398
1.29619e-12
3.27398
2.13091e-12
3.27398
3.50296e-12
3.27398
5.75767e-12
3.27398
9.4626e-12
3.27398
1.555e-11
3.27398
2.55512e-11
3.27398
4.19806e-11
3.27398
6.89679e-11
3.27398
1.13292e-10
3.27398
1.86083e-10
3.27398
3.05607e-10
3.27398
5.01844e-10
3.27398
8.23979e-10
3.27398
1.35271e-09
3.27398
2.22036e-09
3.27398
3.64395e-09
3.27398
5.9792e-09
3.27398
9.8091e-09
3.27398
1.60887e-08
3.27398
2.63824e-08
3.27398
4.32508e-08
3.27398
7.08849e-08
3.27398
1.1614e-07
3.27398
1.90223e-07
3.27398
3.11447e-07
3.27398
5.09723e-07
3.27398
8.33861e-07
3.27398
1.36347e-06
3.27398
2.22829e-06
3.27398
3.63958e-06
3.27398
5.94102e-06
3.27398
9.69125e-06
3.27399
1.57972e-05
3.274
2.573e-05
3.27401
4.18727e-05
3.27403
6.80814e-05
3.27406
0.000110588
3.27412
0.000179454
3.27422
0.000290907
3.2744
0.000471103
3.2747
0.000762221
3.27521
0.00123224
3.2761
0.00199136
3.27762
0.00321758
3.28025
0.00520511
3.28481
0.00842457
0.0137105
3.29278
3.27398
9.71445e-17
3.27398
1.38778e-16
3.27398
1.80411e-16
3.27398
2.91434e-16
3.27398
3.19189e-16
3.27398
3.33067e-16
3.27398
4.16334e-16
3.27398
4.71845e-16
3.27398
3.88578e-16
3.27398
4.02456e-16
3.27398
4.44089e-16
3.27398
3.747e-16
3.27398
3.46945e-16
3.27398
3.05311e-16
3.27398
2.498e-16
3.27398
1.52656e-16
3.27398
1.11022e-16
3.27398
2.08167e-16
3.27398
2.63678e-16
3.27398
2.63678e-16
3.27398
2.77556e-16
3.27398
4.44089e-16
3.27398
4.30211e-16
3.27398
2.08167e-16
3.27398
1.38778e-16
3.27398
2.498e-16
3.27398
3.19189e-16
3.27398
2.22045e-16
3.27398
1.66533e-16
3.27398
6.93889e-17
3.27398
9.71445e-17
3.27398
1.249e-16
3.27398
2.08167e-16
3.27398
2.63678e-16
3.27398
2.22045e-16
3.27398
1.249e-16
3.27398
-5.55112e-17
3.27398
-2.35922e-16
3.27398
-3.747e-16
3.27398
-5.27356e-16
3.27398
-7.07767e-16
3.27398
-8.88178e-16
3.27398
-1.04083e-15
3.27398
-1.22125e-15
3.27398
-1.27676e-15
3.27398
-1.33227e-15
3.27398
-1.3739e-15
3.27398
-1.31839e-15
3.27398
-1.41553e-15
3.27398
-1.48492e-15
3.27398
-1.40166e-15
3.27398
-1.11022e-15
3.27398
-8.18789e-16
3.27398
-7.49401e-16
3.27398
-7.49401e-16
3.27398
-8.04912e-16
3.27398
-9.4369e-16
3.27398
-1.13798e-15
3.27398
-1.30451e-15
3.27398
-1.55431e-15
3.27398
-1.70697e-15
3.27398
-1.7486e-15
3.27398
-1.76248e-15
3.27398
-1.72085e-15
3.27398
-1.70697e-15
3.27398
-1.73472e-15
3.27398
-1.77636e-15
3.27398
-1.95677e-15
3.27398
-2.15106e-15
3.27398
-2.19269e-15
3.27398
-2.22045e-15
3.27398
-2.22045e-15
3.27398
-2.28983e-15
3.27398
-2.35922e-15
3.27398
-2.16493e-15
3.27398
-1.92901e-15
3.27398
-1.73472e-15
3.27398
-1.72085e-15
3.27398
-1.88738e-15
3.27398
-1.88738e-15
3.27398
-1.7486e-15
3.27398
-1.60982e-15
3.27398
-1.52656e-15
3.27398
-1.4988e-15
3.27398
-1.3739e-15
3.27398
-1.30451e-15
3.27398
-1.42941e-15
3.27398
-1.72085e-15
3.27398
-2.05391e-15
3.27398
-2.34535e-15
3.27398
-2.35922e-15
3.27398
-2.20657e-15
3.27398
-1.98452e-15
3.27398
-1.81799e-15
3.27398
-1.52656e-15
3.27398
-1.1241e-15
3.27398
-7.77156e-16
3.27398
-7.07767e-16
3.27398
-7.91034e-16
3.27398
-9.15934e-16
3.27398
-1.08247e-15
3.27398
-1.36002e-15
3.27398
-1.76248e-15
3.27398
-2.01228e-15
3.27398
-2.06779e-15
3.27398
-2.01228e-15
3.27398
-1.97065e-15
3.27398
-1.98452e-15
3.27398
-2.02616e-15
3.27398
-1.92901e-15
3.27398
-1.85962e-15
3.27398
-1.88738e-15
3.27398
-1.88738e-15
3.27398
-1.84575e-15
3.27398
-1.76248e-15
3.27398
-1.77636e-15
3.27398
-1.88738e-15
3.27398
-2.1233e-15
3.27398
-2.30371e-15
3.27398
-2.30371e-15
3.27398
-2.35922e-15
3.27398
-2.33147e-15
3.27398
-2.27596e-15
3.27398
-2.40086e-15
3.27398
-2.60902e-15
3.27398
-2.80331e-15
3.27398
-3.02536e-15
3.27398
-3.05311e-15
3.27398
-2.95597e-15
3.27398
-2.85882e-15
3.27398
-2.85882e-15
3.27398
-2.83107e-15
3.27398
-2.76168e-15
3.27398
-2.83107e-15
3.27398
-2.92821e-15
3.27398
-2.7478e-15
3.27398
-2.16493e-15
3.27398
-1.60982e-15
3.27398
-1.34615e-15
3.27398
-1.249e-15
3.27398
-1.09635e-15
3.27398
-1.16573e-15
3.27398
-1.26288e-15
3.27398
-1.22125e-15
3.27398
-1.08247e-15
3.27398
-9.15934e-16
3.27398
-8.18789e-16
3.27398
-8.18789e-16
3.27398
-8.74301e-16
3.27398
-1.09635e-15
3.27398
-1.56819e-15
3.27398
-1.94289e-15
3.27398
-2.2482e-15
3.27398
-2.45637e-15
3.27398
-2.498e-15
3.27398
-2.58127e-15
3.27398
-2.45637e-15
3.27398
-2.2482e-15
3.27398
-1.98452e-15
3.27398
-1.97065e-15
3.27398
-1.94289e-15
3.27398
-1.79023e-15
3.27398
-1.56819e-15
3.27398
-1.31839e-15
3.27398
-1.27676e-15
3.27398
-1.48492e-15
3.27398
-1.70697e-15
3.27398
-1.7486e-15
3.27398
-1.65146e-15
3.27398
-1.48492e-15
3.27398
-1.31839e-15
3.27398
-1.17961e-15
3.27398
-9.4369e-16
3.27398
-6.52256e-16
3.27398
-4.30211e-16
3.27398
-3.60822e-16
3.27398
-3.33067e-16
3.27398
-4.85723e-16
3.27398
-8.32667e-16
3.27398
-9.99201e-16
3.27398
-8.18789e-16
3.27398
-5.13478e-16
3.27398
-1.52656e-16
3.27398
1.249e-16
3.27398
2.35922e-16
3.27398
4.02456e-16
3.27398
4.02456e-16
3.27398
2.77556e-16
3.27398
1.38778e-16
3.27398
1.38778e-17
3.27398
-1.66533e-16
3.27398
-2.22045e-16
3.27398
-1.94289e-16
3.27398
-4.30211e-16
3.27398
-8.88178e-16
3.27398
-1.30451e-15
3.27398
-1.55431e-15
3.27398
-1.72085e-15
3.27398
-1.79023e-15
3.27398
-1.76248e-15
3.27398
-1.76248e-15
3.27398
-1.58207e-15
3.27398
-1.41553e-15
3.27398
-1.16573e-15
3.27398
-9.15934e-16
3.27398
-8.18789e-16
3.27398
-7.91034e-16
3.27398
-9.15934e-16
3.27398
-1.13798e-15
3.27398
-1.33227e-15
3.27398
-1.45717e-15
3.27398
-1.73472e-15
3.27398
-2.02616e-15
3.27398
-1.98452e-15
3.27398