/*--------------------------------*- C++ -*----------------------------------*\
| =========                 |                                                 |
| \\      /  F ield         | OpenFOAM: The Open Source CFD Toolbox           |
|  \\    /   O peration     | Version:  2412                                  |
|   \\  /    A nd           | Website:  www.openfoam.com                      |
|    \\/     M anipulation  |                                                 |
\*---------------------------------------------------------------------------*/
FoamFile
{
    version     2.0;
    format      ascii;
    arch        "LSB;label=32;scalar=64";
    class       volVectorField;
    location    "0.002";
    object      U;
}
// * * * * * * * * * * * * * * * * * * * * * * * * * * * * * * * * * * * * * //

dimensions      [0 1 -1 0 0 0 0];

internalField   nonuniform List<vector> 
180000
(
(664 -1.29028e-14 0)
(664 -1.94329e-14 0)
(664 -9.62407e-15 0)
(664 -5.6473e-14 0)
(664 -1.18416e-13 0)
(664 -1.92817e-13 0)
(664 -2.26275e-13 0)
(664 -2.34868e-13 0)
(664 -2.39429e-13 0)
(664 -2.41281e-13 0)
(664 -2.36175e-13 0)
(664 -2.01879e-13 0)
(664 -1.46343e-13 0)
(664 -9.07779e-14 0)
(664 -6.77055e-14 0)
(664 -5.39162e-14 0)
(664 -4.44385e-14 0)
(664 -3.73428e-14 0)
(664 -2.12216e-14 0)
(664 -2.3297e-14 0)
(664 -3.06716e-14 0)
(664 -2.91561e-14 0)
(664 -2.42639e-14 0)
(664 -4.28517e-14 0)
(664 -7.11722e-14 0)
(664 -1.36147e-13 0)
(664 -2.0541e-13 0)
(664 -2.46416e-13 0)
(664 -2.76099e-13 0)
(664 -2.93225e-13 0)
(664 -3.17411e-13 0)
(664 -3.44634e-13 0)
(664 -3.69535e-13 0)
(664 -3.91645e-13 0)
(664 -4.12855e-13 0)
(664 -4.18456e-13 0)
(664 -4.01994e-13 0)
(664 -3.90361e-13 0)
(664 -3.58239e-13 0)
(664 -3.03159e-13 0)
(664 -2.67782e-13 0)
(664 -2.49178e-13 0)
(664 -2.18891e-13 0)
(664 -1.80101e-13 0)
(664 -1.72945e-13 0)
(664 -1.77921e-13 0)
(664 -1.76246e-13 0)
(664 -1.84658e-13 0)
(664 -1.76396e-13 0)
(664 -1.51154e-13 0)
(664 -1.24591e-13 0)
(664 -8.56257e-14 0)
(664 -4.40811e-14 0)
(664 -2.90521e-14 0)
(664 -1.68787e-14 0)
(664 6.7061e-15 0)
(664 4.10857e-14 0)
(664 8.01297e-14 0)
(664 1.0748e-13 0)
(664 1.12631e-13 0)
(664 1.10058e-13 0)
(664 1.18888e-13 0)
(664 1.1785e-13 0)
(664 9.94374e-14 0)
(664 4.43914e-14 0)
(664 -1.94831e-14 0)
(664 -6.08028e-14 0)
(664 -9.35193e-14 0)
(664 -1.52793e-13 0)
(664 -2.07389e-13 0)
(664 -2.38867e-13 0)
(664 -2.84656e-13 0)
(664 -3.48414e-13 0)
(664 -4.02314e-13 0)
(664 -4.47477e-13 0)
(664 -4.80814e-13 0)
(664 -4.9515e-13 0)
(664 -5.16408e-13 0)
(664 -5.06699e-13 0)
(664 -4.65473e-13 0)
(664 -4.46622e-13 0)
(664 -4.28011e-13 0)
(664 -4.08234e-13 0)
(664 -4.33053e-13 0)
(664 -4.4726e-13 0)
(664 -4.39669e-13 0)
(664 -4.37952e-13 0)
(664 -4.53562e-13 0)
(664 -4.50665e-13 0)
(664 -4.46532e-13 0)
(664 -4.39141e-13 0)
(664 -4.17678e-13 0)
(664 -4.30176e-13 0)
(664 -4.62977e-13 0)
(664 -4.85892e-13 0)
(664 -4.97612e-13 0)
(664 -5.02424e-13 0)
(664 -4.92235e-13 0)
(664 -4.99058e-13 0)
(664 -5.25045e-13 0)
(664 -5.46835e-13 0)
(664 -5.72372e-13 0)
(664 -5.8337e-13 0)
(664 -5.8008e-13 0)
(664 -5.89593e-13 0)
(664 -6.21571e-13 0)
(664 -6.64668e-13 0)
(664 -6.92654e-13 0)
(664 -6.90654e-13 0)
(664 -6.85795e-13 0)
(664 -7.06729e-13 0)
(664 -7.35755e-13 0)
(664 -7.56027e-13 0)
(664 -7.86078e-13 0)
(664 -7.99942e-13 0)
(664 -7.91822e-13 0)
(664 -7.88956e-13 0)
(664 -8.00399e-13 0)
(664 -8.15792e-13 0)
(664 -8.37537e-13 0)
(664 -8.33495e-13 0)
(664 -8.19591e-13 0)
(664 -8.09891e-13 0)
(664 -8.05078e-13 0)
(664 -8.03185e-13 0)
(664 -8.0039e-13 0)
(664 -7.77146e-13 0)
(664 -7.57551e-13 0)
(664 -7.42233e-13 0)
(664 -7.3054e-13 0)
(664 -7.3308e-13 0)
(664 -7.2721e-13 0)
(664 -7.2737e-13 0)
(664 -7.22702e-13 0)
(664 -7.15442e-13 0)
(664 -7.10496e-13 0)
(664 -7.19292e-13 0)
(664 -7.58107e-13 0)
(664 -7.75644e-13 0)
(664 -7.79442e-13 0)
(664 -8.05678e-13 0)
(664 -8.07117e-13 0)
(664 -7.53695e-13 0)
(664 -6.81102e-13 0)
(664 -6.13899e-13 0)
(664 -5.53968e-13 0)
(664 -5.30798e-13 0)
(664 -5.34187e-13 0)
(664 -5.63355e-13 0)
(664 -6.12486e-13 0)
(664 -6.48109e-13 0)
(664 -6.74301e-13 0)
(664 -7.12489e-13 0)
(664 -7.6186e-13 0)
(664 -8.30785e-13 0)
(664 -9.0743e-13 0)
(664 -9.54543e-13 0)
(664 -9.76168e-13 0)
(664 -9.94003e-13 0)
(664 -9.86451e-13 0)
(664 -9.95776e-13 0)
(664 -1.00518e-12 0)
(664 -9.73995e-13 0)
(664 -9.50122e-13 0)
(664 -9.37751e-13 0)
(664 -8.86099e-13 0)
(664 -8.2029e-13 0)
(664 -7.31475e-13 0)
(664 -6.42292e-13 0)
(664 -5.68786e-13 0)
(664 -4.95823e-13 0)
(664 -4.24646e-13 0)
(664 -3.62333e-13 0)
(664 -3.25471e-13 0)
(664 -3.15284e-13 0)
(664 -3.16328e-13 0)
(664 -3.40508e-13 0)
(664 -3.67676e-13 0)
(664 -3.70142e-13 0)
(664 -3.5978e-13 0)
(664 -3.68107e-13 0)
(664 -3.90738e-13 0)
(664 -4.27465e-13 0)
(664 -4.5783e-13 0)
(664 -4.98148e-13 0)
(664 -5.58073e-13 0)
(664 -6.18183e-13 0)
(664 -6.50156e-13 0)
(664 -6.48661e-13 0)
(664 -6.4305e-13 0)
(664 -6.58073e-13 0)
(664 -6.62083e-13 0)
(664 -6.46605e-13 0)
(664 -6.36055e-13 0)
(664 -6.3699e-13 0)
(664 -6.25392e-13 0)
(664 -6.16317e-13 0)
(664 -6.0865e-13 0)
(664 -6.0901e-13 0)
(664 -6.1186e-13 0)
(664 -6.25198e-13 0)
(664 -6.31676e-13 0)
(664 -6.453e-13 0)
(664 -6.6613e-13 0)
(664 -6.89985e-13 0)
(664 -7.22759e-13 0)
(664 -7.39491e-13 0)
(664 -7.29273e-13 0)
(664 -7.35793e-13 0)
(664 -7.66244e-13 0)
(664 -7.91891e-13 0)
(664 -8.0875e-13 0)
(664 -8.22689e-13 0)
(664 -8.49113e-13 0)
(664 -8.58282e-13 0)
(664 -8.5851e-13 0)
(664 -8.52614e-13 0)
(664 -8.30711e-13 0)
(664 -8.21966e-13 0)
(664 -8.18553e-13 0)
(664 -8.13465e-13 0)
(664 -8.00537e-13 0)
(664 -7.81841e-13 0)
(664 -7.30862e-13 0)
(664 -6.676e-13 0)
(664 -6.13674e-13 0)
(664 -5.7996e-13 0)
(664 -5.66464e-13 0)
(664 -5.32487e-13 0)
(664 -5.15364e-13 0)
(664 -5.21649e-13 0)
(664 -5.23044e-13 0)
(664 -5.14282e-13 0)
(664 -5.19349e-13 0)
(664 -5.40752e-13 0)
(664 -5.50497e-13 0)
(664 -5.42441e-13 0)
(664 -5.51958e-13 0)
(664 -5.71738e-13 0)
(664 -5.653e-13 0)
(664 -5.22482e-13 0)
(664 -4.98804e-13 0)
(664 -4.77561e-13 0)
(664 -4.30481e-13 0)
(664 -3.11091e-13 0)
(664 -6.44856e-14 0)
(664 3.43139e-13 0)
(664 1.0424e-12 0)
(664 2.26063e-12 0)
(664 4.38517e-12 0)
(664 8.08142e-12 0)
(664 1.44851e-11 0)
(664 2.55422e-11 0)
(664 4.46258e-11 0)
(664 7.75806e-11 0)
(664 1.34553e-10 0)
(664 2.33044e-10 0)
(664 4.0336e-10 0)
(664 6.98119e-10 0)
(664 1.20855e-09 0)
(664 2.0932e-09 0)
(664 3.62753e-09 0)
(664 6.29107e-09 0)
(664 1.09186e-08 0)
(664 1.89661e-08 0)
(664 3.29734e-08 0)
(664 5.73803e-08 0)
(664 9.99481e-08 0)
(664 1.74275e-07 0)
(664 3.0419e-07 0)
(664 5.31547e-07 0)
(664 9.29874e-07 0)
(664 1.62866e-06 0)
(664 2.85602e-06 0)
(664 5.0148e-06 0)
(664 8.81677e-06 0)
(664 1.55227e-05 0)
(663.999 2.73668e-05 0)
(663.999 4.83195e-05 0)
(663.998 8.54399e-05 0)
(663.997 0.000151312 0)
(663.995 0.000268388 0)
(663.991 0.000476829 0)
(663.985 0.000848536 0)
(663.975 0.00151259 0)
(663.958 0.00270088 0)
(663.928 0.00483118 0)
(663.876 0.00865675 0)
(663.788 0.0155406 0)
(663.637 0.0279476 0)
(663.378 0.0503529 0)
(662.932 0.090861 0)
(662.166 0.1643 0)
(660.846 0.297622 0)
(658.578 0.540627 0)
(654.681 0.982045 0)
(648.008 1.78742 0)
(636.488 3.24962 0)
(616.931 5.95521 0)
(585.524 10.819 0)
(664 -9.08555e-15 0)
(664 -2.69031e-14 0)
(664 -2.83591e-14 0)
(664 -4.90653e-14 0)
(664 -1.05873e-13 0)
(664 -1.54518e-13 0)
(664 -2.0113e-13 0)
(664 -2.30118e-13 0)
(664 -2.68521e-13 0)
(664 -3.15962e-13 0)
(664 -3.4453e-13 0)
(664 -3.58519e-13 0)
(664 -3.35699e-13 0)
(664 -3.14545e-13 0)
(664 -3.40287e-13 0)
(664 -3.46879e-13 0)
(664 -3.20822e-13 0)
(664 -3.0976e-13 0)
(664 -3.15491e-13 0)
(664 -3.23654e-13 0)
(664 -3.34463e-13 0)
(664 -3.54881e-13 0)
(664 -3.65988e-13 0)
(664 -3.83886e-13 0)
(664 -4.11533e-13 0)
(664 -4.44884e-13 0)
(664 -5.09304e-13 0)
(664 -5.57156e-13 0)
(664 -5.89589e-13 0)
(664 -6.31022e-13 0)
(664 -6.52941e-13 0)
(664 -6.53976e-13 0)
(664 -6.51434e-13 0)
(664 -6.5943e-13 0)
(664 -6.47454e-13 0)
(664 -5.83168e-13 0)
(664 -4.94838e-13 0)
(664 -4.34488e-13 0)
(664 -3.95996e-13 0)
(664 -3.6723e-13 0)
(664 -3.73777e-13 0)
(664 -3.70886e-13 0)
(664 -3.73301e-13 0)
(664 -4.00999e-13 0)
(664 -4.11859e-13 0)
(664 -4.1852e-13 0)
(664 -4.36378e-13 0)
(664 -4.80862e-13 0)
(664 -5.15571e-13 0)
(664 -5.15521e-13 0)
(664 -4.72327e-13 0)
(664 -4.21824e-13 0)
(664 -3.93371e-13 0)
(664 -3.8663e-13 0)
(664 -3.80529e-13 0)
(664 -3.5009e-13 0)
(664 -3.01064e-13 0)
(664 -2.54455e-13 0)
(664 -2.01713e-13 0)
(664 -1.6554e-13 0)
(664 -1.50185e-13 0)
(664 -1.48232e-13 0)
(664 -1.701e-13 0)
(664 -2.01206e-13 0)
(664 -2.62285e-13 0)
(664 -3.51944e-13 0)
(664 -4.45264e-13 0)
(664 -5.41942e-13 0)
(664 -6.35213e-13 0)
(664 -7.12025e-13 0)
(664 -7.87319e-13 0)
(664 -8.42653e-13 0)
(664 -8.786e-13 0)
(664 -9.08036e-13 0)
(664 -9.38837e-13 0)
(664 -9.56729e-13 0)
(664 -9.67203e-13 0)
(664 -9.5697e-13 0)
(664 -9.34862e-13 0)
(664 -8.85208e-13 0)
(664 -8.39861e-13 0)
(664 -8.30404e-13 0)
(664 -8.18913e-13 0)
(664 -8.22696e-13 0)
(664 -8.26555e-13 0)
(664 -8.21318e-13 0)
(664 -8.11645e-13 0)
(664 -8.17286e-13 0)
(664 -8.07246e-13 0)
(664 -7.69404e-13 0)
(664 -7.26893e-13 0)
(664 -6.97814e-13 0)
(664 -6.82562e-13 0)
(664 -6.91872e-13 0)
(664 -6.76576e-13 0)
(664 -6.65772e-13 0)
(664 -6.6065e-13 0)
(664 -6.43381e-13 0)
(664 -6.30909e-13 0)
(664 -6.53453e-13 0)
(664 -6.745e-13 0)
(664 -6.78983e-13 0)
(664 -6.70402e-13 0)
(664 -6.64697e-13 0)
(664 -6.88216e-13 0)
(664 -7.37446e-13 0)
(664 -7.51087e-13 0)
(664 -7.50512e-13 0)
(664 -7.24677e-13 0)
(664 -6.90416e-13 0)
(664 -6.55013e-13 0)
(664 -6.28964e-13 0)
(664 -5.9832e-13 0)
(664 -5.86065e-13 0)
(664 -5.75199e-13 0)
(664 -5.6325e-13 0)
(664 -5.57175e-13 0)
(664 -5.566e-13 0)
(664 -5.53842e-13 0)
(664 -5.67629e-13 0)
(664 -5.84925e-13 0)
(664 -5.90828e-13 0)
(664 -5.78119e-13 0)
(664 -5.59529e-13 0)
(664 -5.48579e-13 0)
(664 -5.41134e-13 0)
(664 -5.34852e-13 0)
(664 -5.20244e-13 0)
(664 -4.88279e-13 0)
(664 -4.64336e-13 0)
(664 -4.62152e-13 0)
(664 -4.93773e-13 0)
(664 -5.18502e-13 0)
(664 -5.15724e-13 0)
(664 -5.06427e-13 0)
(664 -5.06108e-13 0)
(664 -5.50119e-13 0)
(664 -5.95319e-13 0)
(664 -5.75746e-13 0)
(664 -5.37946e-13 0)
(664 -5.28532e-13 0)
(664 -5.38576e-13 0)
(664 -5.1845e-13 0)
(664 -4.84497e-13 0)
(664 -4.4015e-13 0)
(664 -3.98218e-13 0)
(664 -4.06507e-13 0)
(664 -4.42773e-13 0)
(664 -4.95028e-13 0)
(664 -5.50545e-13 0)
(664 -6.05421e-13 0)
(664 -6.69862e-13 0)
(664 -7.4082e-13 0)
(664 -7.91581e-13 0)
(664 -8.37734e-13 0)
(664 -8.76053e-13 0)
(664 -8.8987e-13 0)
(664 -8.86065e-13 0)
(664 -9.00234e-13 0)
(664 -9.20822e-13 0)
(664 -9.38708e-13 0)
(664 -9.36251e-13 0)
(664 -9.23319e-13 0)
(664 -9.13554e-13 0)
(664 -9.19235e-13 0)
(664 -8.95219e-13 0)
(664 -8.61921e-13 0)
(664 -8.12422e-13 0)
(664 -7.56783e-13 0)
(664 -7.08662e-13 0)
(664 -6.76856e-13 0)
(664 -6.29275e-13 0)
(664 -5.93386e-13 0)
(664 -6.03148e-13 0)
(664 -6.17448e-13 0)
(664 -6.07095e-13 0)
(664 -6.2149e-13 0)
(664 -6.09927e-13 0)
(664 -5.90327e-13 0)
(664 -5.95775e-13 0)
(664 -5.87112e-13 0)
(664 -5.9682e-13 0)
(664 -6.28685e-13 0)
(664 -6.59248e-13 0)
(664 -6.88044e-13 0)
(664 -7.26073e-13 0)
(664 -7.82837e-13 0)
(664 -8.20669e-13 0)
(664 -8.14081e-13 0)
(664 -7.98296e-13 0)
(664 -8.07103e-13 0)
(664 -8.1358e-13 0)
(664 -7.93327e-13 0)
(664 -7.76059e-13 0)
(664 -7.74141e-13 0)
(664 -7.72032e-13 0)
(664 -7.64152e-13 0)
(664 -7.65359e-13 0)
(664 -7.38572e-13 0)
(664 -7.18705e-13 0)
(664 -7.43801e-13 0)
(664 -7.89269e-13 0)
(664 -8.29588e-13 0)
(664 -8.77813e-13 0)
(664 -9.27789e-13 0)
(664 -9.577e-13 0)
(664 -9.78499e-13 0)
(664 -9.99625e-13 0)
(664 -1.02768e-12 0)
(664 -1.04903e-12 0)
(664 -1.0328e-12 0)
(664 -9.93052e-13 0)
(664 -9.38126e-13 0)
(664 -8.8031e-13 0)
(664 -8.34094e-13 0)
(664 -7.81061e-13 0)
(664 -7.0534e-13 0)
(664 -6.21492e-13 0)
(664 -5.80146e-13 0)
(664 -5.60037e-13 0)
(664 -5.31231e-13 0)
(664 -5.10545e-13 0)
(664 -5.03223e-13 0)
(664 -4.88833e-13 0)
(664 -4.8739e-13 0)
(664 -4.8841e-13 0)
(664 -4.97741e-13 0)
(664 -5.20337e-13 0)
(664 -5.29931e-13 0)
(664 -5.2952e-13 0)
(664 -5.44245e-13 0)
(664 -5.77772e-13 0)
(664 -5.83263e-13 0)
(664 -5.91119e-13 0)
(664 -6.31092e-13 0)
(664 -6.40719e-13 0)
(664 -6.15511e-13 0)
(664 -6.08118e-13 0)
(664 -6.4034e-13 0)
(664 -6.57139e-13 0)
(664 -6.08975e-13 0)
(664 -5.4375e-13 0)
(664 -4.31902e-13 0)
(664 -1.94967e-13 0)
(664 2.19706e-13 0)
(664 9.28689e-13 0)
(664 2.15063e-12 0)
(664 4.18632e-12 0)
(664 7.6542e-12 0)
(664 1.36073e-11 0)
(664 2.38187e-11 0)
(664 4.13716e-11 0)
(664 7.15571e-11 0)
(664 1.2353e-10 0)
(664 2.12971e-10 0)
(664 3.6694e-10 0)
(664 6.3218e-10 0)
(664 1.08926e-09 0)
(664 1.87726e-09 0)
(664 3.23635e-09 0)
(664 5.58193e-09 0)
(664 9.63187e-09 0)
(664 1.66292e-08 0)
(664 2.87248e-08 0)
(664 4.96482e-08 0)
(664 8.58611e-08 0)
(664 1.48583e-07 0)
(664 2.5728e-07 0)
(664 4.45803e-07 0)
(664 7.72969e-07 0)
(664 1.34122e-06 0)
(664 2.32882e-06 0)
(664 4.04678e-06 0)
(664 7.03726e-06 0)
(664 1.22477e-05 0)
(664 2.13325e-05 0)
(664 3.71883e-05 0)
(663.999 6.48828e-05 0)
(663.999 0.000113305 0)
(663.999 0.000198037 0)
(663.998 0.000346467 0)
(663.996 0.000606701 0)
(663.993 0.00106347 0)
(663.988 0.00186592 0)
(663.98 0.00327731 0)
(663.966 0.00576206 0)
(663.943 0.0101417 0)
(663.903 0.0178686 0)
(663.837 0.031519 0)
(663.725 0.0556567 0)
(663.536 0.0983931 0)
(663.219 0.174103 0)
(662.687 0.308444 0)
(661.795 0.546997 0)
(660.302 0.971595 0)
(657.82 1.72516 0)
(653.711 3.06351 0)
(646.951 5.42678 0)
(635.861 9.63547 0)
(619.076 16.9399 0)
(664 5.82621e-15 0)
(664 8.96378e-15 0)
(664 -1.99514e-14 0)
(664 -3.28163e-14 0)
(664 -9.32961e-15 0)
(664 5.26089e-15 0)
(664 2.80218e-15 0)
(664 -6.81554e-15 0)
(664 -1.00454e-14 0)
(664 -1.01497e-14 0)
(664 -3.39804e-14 0)
(664 -1.03207e-13 0)
(664 -1.88725e-13 0)
(664 -2.61629e-13 0)
(664 -3.22396e-13 0)
(664 -3.63356e-13 0)
(664 -3.94279e-13 0)
(664 -4.21678e-13 0)
(664 -4.39288e-13 0)
(664 -4.64808e-13 0)
(664 -5.13185e-13 0)
(664 -5.56969e-13 0)
(664 -5.93286e-13 0)
(664 -6.09022e-13 0)
(664 -6.03622e-13 0)
(664 -5.90079e-13 0)
(664 -5.71334e-13 0)
(664 -5.73896e-13 0)
(664 -5.45692e-13 0)
(664 -5.11e-13 0)
(664 -4.82586e-13 0)
(664 -4.55232e-13 0)
(664 -4.07929e-13 0)
(664 -3.6616e-13 0)
(664 -3.04892e-13 0)
(664 -2.37528e-13 0)
(664 -1.75667e-13 0)
(664 -1.30837e-13 0)
(664 -8.72747e-14 0)
(664 -5.02153e-14 0)
(664 -2.80834e-14 0)
(664 -2.80305e-14 0)
(664 -3.03974e-14 0)
(664 -1.07417e-14 0)
(664 -1.41938e-17 0)
(664 -1.65721e-14 0)
(664 -4.74998e-14 0)
(664 -7.83955e-14 0)
(664 -1.07859e-13 0)
(664 -1.34965e-13 0)
(664 -1.5483e-13 0)
(664 -1.8134e-13 0)
(664 -2.14632e-13 0)
(664 -2.18223e-13 0)
(664 -2.20694e-13 0)
(664 -2.2561e-13 0)
(664 -2.49368e-13 0)
(664 -2.72615e-13 0)
(664 -2.87707e-13 0)
(664 -2.74169e-13 0)
(664 -2.69204e-13 0)
(664 -2.94302e-13 0)
(664 -3.14938e-13 0)
(664 -3.21875e-13 0)
(664 -3.46352e-13 0)
(664 -3.94181e-13 0)
(664 -4.52148e-13 0)
(664 -5.05329e-13 0)
(664 -5.34461e-13 0)
(664 -5.57418e-13 0)
(664 -5.69229e-13 0)
(664 -5.8469e-13 0)
(664 -6.01313e-13 0)
(664 -6.21669e-13 0)
(664 -6.41601e-13 0)
(664 -6.44105e-13 0)
(664 -6.34953e-13 0)
(664 -6.52919e-13 0)
(664 -6.81921e-13 0)
(664 -6.90479e-13 0)
(664 -6.60238e-13 0)
(664 -6.31636e-13 0)
(664 -6.13335e-13 0)
(664 -5.84764e-13 0)
(664 -5.79711e-13 0)
(664 -5.99504e-13 0)
(664 -6.26098e-13 0)
(664 -6.21227e-13 0)
(664 -6.28153e-13 0)
(664 -6.76338e-13 0)
(664 -7.15074e-13 0)
(664 -7.19522e-13 0)
(664 -7.1917e-13 0)
(664 -6.93368e-13 0)
(664 -6.72459e-13 0)
(664 -6.57821e-13 0)
(664 -6.43869e-13 0)
(664 -6.40183e-13 0)
(664 -6.36483e-13 0)
(664 -6.18757e-13 0)
(664 -5.96288e-13 0)
(664 -5.57096e-13 0)
(664 -5.31541e-13 0)
(664 -5.47795e-13 0)
(664 -5.83524e-13 0)
(664 -6.14498e-13 0)
(664 -6.31428e-13 0)
(664 -6.59413e-13 0)
(664 -7.21974e-13 0)
(664 -7.80652e-13 0)
(664 -8.14089e-13 0)
(664 -8.24034e-13 0)
(664 -8.32269e-13 0)
(664 -8.30803e-13 0)
(664 -8.40807e-13 0)
(664 -8.51893e-13 0)
(664 -8.6867e-13 0)
(664 -8.79458e-13 0)
(664 -8.68646e-13 0)
(664 -8.62979e-13 0)
(664 -8.8927e-13 0)
(664 -9.01058e-13 0)
(664 -9.0213e-13 0)
(664 -8.96215e-13 0)
(664 -8.53063e-13 0)
(664 -8.02596e-13 0)
(664 -7.79751e-13 0)
(664 -7.57966e-13 0)
(664 -7.30904e-13 0)
(664 -6.91808e-13 0)
(664 -6.54087e-13 0)
(664 -6.4321e-13 0)
(664 -6.60181e-13 0)
(664 -6.69695e-13 0)
(664 -6.76643e-13 0)
(664 -6.83661e-13 0)
(664 -6.76044e-13 0)
(664 -6.64443e-13 0)
(664 -6.44284e-13 0)
(664 -6.05281e-13 0)
(664 -5.66317e-13 0)
(664 -5.3897e-13 0)
(664 -5.25974e-13 0)
(664 -5.50403e-13 0)
(664 -5.81553e-13 0)
(664 -6.16598e-13 0)
(664 -6.37769e-13 0)
(664 -6.59892e-13 0)
(664 -6.8049e-13 0)
(664 -7.25426e-13 0)
(664 -7.7791e-13 0)
(664 -8.13051e-13 0)
(664 -8.37883e-13 0)
(664 -8.3918e-13 0)
(664 -8.05694e-13 0)
(664 -7.75199e-13 0)
(664 -7.69835e-13 0)
(664 -7.83247e-13 0)
(664 -7.90428e-13 0)
(664 -8.04142e-13 0)
(664 -8.13347e-13 0)
(664 -8.21456e-13 0)
(664 -8.35625e-13 0)
(664 -8.41845e-13 0)
(664 -8.41913e-13 0)
(664 -8.75428e-13 0)
(664 -8.9619e-13 0)
(664 -9.28951e-13 0)
(664 -9.51332e-13 0)
(664 -9.66382e-13 0)
(664 -9.89627e-13 0)
(664 -1.00327e-12 0)
(664 -1.00908e-12 0)
(664 -9.92197e-13 0)
(664 -9.67782e-13 0)
(664 -9.57565e-13 0)
(664 -9.41712e-13 0)
(664 -9.27786e-13 0)
(664 -9.12679e-13 0)
(664 -9.07555e-13 0)
(664 -9.2006e-13 0)
(664 -9.07293e-13 0)
(664 -8.82361e-13 0)
(664 -8.80441e-13 0)
(664 -8.58191e-13 0)
(664 -8.67316e-13 0)
(664 -8.8692e-13 0)
(664 -8.68801e-13 0)
(664 -8.59644e-13 0)
(664 -8.57304e-13 0)
(664 -8.55938e-13 0)
(664 -8.52053e-13 0)
(664 -8.5631e-13 0)
(664 -8.55365e-13 0)
(664 -8.33966e-13 0)
(664 -8.10458e-13 0)
(664 -8.18156e-13 0)
(664 -8.29342e-13 0)
(664 -8.24288e-13 0)
(664 -8.27367e-13 0)
(664 -8.40312e-13 0)
(664 -8.58162e-13 0)
(664 -8.60263e-13 0)
(664 -8.44124e-13 0)
(664 -8.17906e-13 0)
(664 -7.86621e-13 0)
(664 -7.75147e-13 0)
(664 -7.79338e-13 0)
(664 -7.83831e-13 0)
(664 -8.19844e-13 0)
(664 -8.50265e-13 0)
(664 -8.55833e-13 0)
(664 -8.65652e-13 0)
(664 -8.47764e-13 0)
(664 -8.22586e-13 0)
(664 -8.01586e-13 0)
(664 -7.77705e-13 0)
(664 -7.44205e-13 0)
(664 -7.00433e-13 0)
(664 -6.63684e-13 0)
(664 -6.21349e-13 0)
(664 -6.02879e-13 0)
(664 -5.99073e-13 0)
(664 -6.07118e-13 0)
(664 -6.28473e-13 0)
(664 -6.14479e-13 0)
(664 -5.83675e-13 0)
(664 -5.87792e-13 0)
(664 -6.29278e-13 0)
(664 -6.49367e-13 0)
(664 -6.44121e-13 0)
(664 -6.21782e-13 0)
(664 -6.22947e-13 0)
(664 -6.37409e-13 0)
(664 -6.41745e-13 0)
(664 -6.48167e-13 0)
(664 -6.57166e-13 0)
(664 -6.5585e-13 0)
(664 -6.5021e-13 0)
(664 -6.38462e-13 0)
(664 -5.8559e-13 0)
(664 -5.09727e-13 0)
(664 -3.37483e-13 0)
(664 1.11934e-14 0)
(664 5.94313e-13 0)
(664 1.56686e-12 0)
(664 3.21869e-12 0)
(664 6.0858e-12 0)
(664 1.10221e-11 0)
(664 1.94602e-11 0)
(664 3.38892e-11 0)
(664 5.85581e-11 0)
(664 1.00837e-10 0)
(664 1.73297e-10 0)
(664 2.97416e-10 0)
(664 5.10055e-10 0)
(664 8.74503e-10 0)
(664 1.49919e-09 0)
(664 2.57031e-09 0)
(664 4.40723e-09 0)
(664 7.55865e-09 0)
(664 1.2966e-08 0)
(664 2.22476e-08 0)
(664 3.81815e-08 0)
(664 6.55456e-08 0)
(664 1.12547e-07 0)
(664 1.93305e-07 0)
(664 3.32084e-07 0)
(664 5.70655e-07 0)
(664 9.80824e-07 0)
(664 1.68626e-06 0)
(664 2.89963e-06 0)
(664 4.98735e-06 0)
(664 8.57974e-06 0)
(664 1.47631e-05 0)
(664 2.54065e-05 0)
(664 4.37318e-05 0)
(664 7.52836e-05 0)
(663.999 0.00012962 0)
(663.999 0.000223187 0)
(663.998 0.000384338 0)
(663.997 0.000661849 0)
(663.995 0.00113977 0)
(663.991 0.00196267 0)
(663.985 0.0033795 0)
(663.975 0.00581809 0)
(663.958 0.0100146 0)
(663.93 0.0172327 0)
(663.883 0.0296438 0)
(663.805 0.0509692 0)
(663.676 0.0875902 0)
(663.462 0.150407 0)
(663.106 0.258042 0)
(662.519 0.442234 0)
(661.55 0.756998 0)
(659.964 1.29331 0)
(657.376 2.20255 0)
(653.181 3.73579 0)
(646.383 6.30609 0)
(636.128 10.5821 0)
(664 -6.06113e-15 0)
(664 -2.32015e-14 0)
(664 -1.9133e-14 0)
(664 1.5121e-14 0)
(664 4.73061e-15 0)
(664 -1.15591e-14 0)
(664 -9.64202e-15 0)
(664 -1.71376e-14 0)
(664 -2.11424e-14 0)
(664 -6.93094e-15 0)
(664 -1.84491e-14 0)
(664 -3.03169e-14 0)
(664 -5.59058e-14 0)
(664 -9.00345e-14 0)
(664 -1.10176e-13 0)
(664 -1.70383e-13 0)
(664 -2.84211e-13 0)
(664 -3.91414e-13 0)
(664 -4.77161e-13 0)
(664 -5.81928e-13 0)
(664 -6.74606e-13 0)
(664 -7.5659e-13 0)
(664 -8.33266e-13 0)
(664 -9.06157e-13 0)
(664 -9.70662e-13 0)
(664 -1.00272e-12 0)
(664 -1.00761e-12 0)
(664 -9.84825e-13 0)
(664 -9.46364e-13 0)
(664 -9.01428e-13 0)
(664 -8.65972e-13 0)
(664 -8.39275e-13 0)
(664 -7.99557e-13 0)
(664 -7.51638e-13 0)
(664 -7.10386e-13 0)
(664 -7.08647e-13 0)
(664 -7.19102e-13 0)
(664 -6.93481e-13 0)
(664 -6.43671e-13 0)
(664 -5.90022e-13 0)
(664 -5.11979e-13 0)
(664 -4.45394e-13 0)
(664 -3.99024e-13 0)
(664 -3.7137e-13 0)
(664 -3.48287e-13 0)
(664 -3.15064e-13 0)
(664 -2.65673e-13 0)
(664 -2.11005e-13 0)
(664 -1.88137e-13 0)
(664 -1.69912e-13 0)
(664 -1.41559e-13 0)
(664 -1.11915e-13 0)
(664 -1.06195e-13 0)
(664 -1.59759e-13 0)
(664 -2.20087e-13 0)
(664 -2.85743e-13 0)
(664 -3.52356e-13 0)
(664 -4.22837e-13 0)
(664 -4.76125e-13 0)
(664 -5.16061e-13 0)
(664 -5.32901e-13 0)
(664 -5.33884e-13 0)
(664 -5.18417e-13 0)
(664 -5.08962e-13 0)
(664 -5.0551e-13 0)
(664 -4.77601e-13 0)
(664 -4.43188e-13 0)
(664 -4.24143e-13 0)
(664 -4.32098e-13 0)
(664 -4.46481e-13 0)
(664 -4.49974e-13 0)
(664 -4.68843e-13 0)
(664 -5.00351e-13 0)
(664 -5.35311e-13 0)
(664 -5.67846e-13 0)
(664 -5.94476e-13 0)
(664 -6.43958e-13 0)
(664 -6.79508e-13 0)
(664 -7.11866e-13 0)
(664 -7.46413e-13 0)
(664 -7.96014e-13 0)
(664 -8.38359e-13 0)
(664 -8.79639e-13 0)
(664 -9.09339e-13 0)
(664 -9.11999e-13 0)
(664 -9.1188e-13 0)
(664 -9.13873e-13 0)
(664 -9.20039e-13 0)
(664 -9.43243e-13 0)
(664 -9.63057e-13 0)
(664 -9.78247e-13 0)
(664 -1.01327e-12 0)
(664 -1.0434e-12 0)
(664 -1.0469e-12 0)
(664 -1.05041e-12 0)
(664 -1.05148e-12 0)
(664 -1.03914e-12 0)
(664 -1.0195e-12 0)
(664 -9.79312e-13 0)
(664 -9.39507e-13 0)
(664 -9.10168e-13 0)
(664 -8.84096e-13 0)
(664 -8.65026e-13 0)
(664 -8.46552e-13 0)
(664 -8.25557e-13 0)
(664 -7.99769e-13 0)
(664 -7.91679e-13 0)
(664 -8.02736e-13 0)
(664 -8.09431e-13 0)
(664 -8.15538e-13 0)
(664 -8.60149e-13 0)
(664 -9.09789e-13 0)
(664 -9.31942e-13 0)
(664 -9.5564e-13 0)
(664 -9.78179e-13 0)
(664 -9.91374e-13 0)
(664 -9.97982e-13 0)
(664 -1.00065e-12 0)
(664 -9.76615e-13 0)
(664 -9.21034e-13 0)
(664 -8.7889e-13 0)
(664 -8.51891e-13 0)
(664 -8.36847e-13 0)
(664 -8.3557e-13 0)
(664 -8.39757e-13 0)
(664 -8.35042e-13 0)
(664 -8.13747e-13 0)
(664 -7.96261e-13 0)
(664 -7.95925e-13 0)
(664 -8.11247e-13 0)
(664 -8.48242e-13 0)
(664 -8.80728e-13 0)
(664 -8.97201e-13 0)
(664 -9.06488e-13 0)
(664 -9.19223e-13 0)
(664 -9.11628e-13 0)
(664 -8.63325e-13 0)
(664 -8.22848e-13 0)
(664 -8.30429e-13 0)
(664 -8.33811e-13 0)
(664 -7.9671e-13 0)
(664 -7.26876e-13 0)
(664 -6.57133e-13 0)
(664 -6.33716e-13 0)
(664 -6.20285e-13 0)
(664 -6.09295e-13 0)
(664 -6.07886e-13 0)
(664 -6.20221e-13 0)
(664 -6.38651e-13 0)
(664 -6.4389e-13 0)
(664 -6.45084e-13 0)
(664 -6.31119e-13 0)
(664 -5.97622e-13 0)
(664 -5.67316e-13 0)
(664 -5.38101e-13 0)
(664 -5.18424e-13 0)
(664 -5.16402e-13 0)
(664 -5.31929e-13 0)
(664 -5.47365e-13 0)
(664 -5.60883e-13 0)
(664 -5.71231e-13 0)
(664 -5.86225e-13 0)
(664 -6.16455e-13 0)
(664 -6.51003e-13 0)
(664 -6.75888e-13 0)
(664 -7.06826e-13 0)
(664 -7.44304e-13 0)
(664 -7.5882e-13 0)
(664 -7.71129e-13 0)
(664 -7.8225e-13 0)
(664 -7.75401e-13 0)
(664 -7.569e-13 0)
(664 -7.36134e-13 0)
(664 -7.11345e-13 0)
(664 -7.05126e-13 0)
(664 -7.05089e-13 0)
(664 -6.96556e-13 0)
(664 -7.08976e-13 0)
(664 -7.3761e-13 0)
(664 -7.34283e-13 0)
(664 -7.23072e-13 0)
(664 -7.30329e-13 0)
(664 -7.35182e-13 0)
(664 -7.16501e-13 0)
(664 -7.18725e-13 0)
(664 -7.41382e-13 0)
(664 -7.46131e-13 0)
(664 -7.6259e-13 0)
(664 -8.00023e-13 0)
(664 -8.31714e-13 0)
(664 -8.22484e-13 0)
(664 -8.14408e-13 0)
(664 -8.34825e-13 0)
(664 -8.4809e-13 0)
(664 -8.45936e-13 0)
(664 -8.29951e-13 0)
(664 -7.99369e-13 0)
(664 -7.84158e-13 0)
(664 -7.80466e-13 0)
(664 -7.804e-13 0)
(664 -7.65405e-13 0)
(664 -7.39698e-13 0)
(664 -7.0308e-13 0)
(664 -6.65627e-13 0)
(664 -6.40911e-13 0)
(664 -6.3005e-13 0)
(664 -6.05144e-13 0)
(664 -5.82361e-13 0)
(664 -5.58627e-13 0)
(664 -5.62821e-13 0)
(664 -5.96083e-13 0)
(664 -6.59881e-13 0)
(664 -7.36035e-13 0)
(664 -7.987e-13 0)
(664 -8.4419e-13 0)
(664 -8.9489e-13 0)
(664 -9.39262e-13 0)
(664 -9.78903e-13 0)
(664 -9.90132e-13 0)
(664 -9.63713e-13 0)
(664 -9.29707e-13 0)
(664 -9.14623e-13 0)
(664 -8.90022e-13 0)
(664 -8.58539e-13 0)
(664 -8.23944e-13 0)
(664 -8.29629e-13 0)
(664 -8.49932e-13 0)
(664 -8.64625e-13 0)
(664 -8.58179e-13 0)
(664 -8.47556e-13 0)
(664 -8.28319e-13 0)
(664 -8.12857e-13 0)
(664 -7.96156e-13 0)
(664 -7.60556e-13 0)
(664 -7.38961e-13 0)
(664 -7.22895e-13 0)
(664 -6.97247e-13 0)
(664 -6.56485e-13 0)
(664 -6.064e-13 0)
(664 -5.7757e-13 0)
(664 -5.28411e-13 0)
(664 -4.04309e-13 0)
(664 -1.86592e-13 0)
(664 1.61126e-13 0)
(664 7.62473e-13 0)
(664 1.83471e-12 0)
(664 3.69672e-12 0)
(664 6.89715e-12 0)
(664 1.24024e-11 0)
(664 2.18039e-11 0)
(664 3.7865e-11 0)
(664 6.52765e-11 0)
(664 1.11975e-10 0)
(664 1.91508e-10 0)
(664 3.27076e-10 0)
(664 5.58126e-10 0)
(664 9.51943e-10 0)
(664 1.62324e-09 0)
(664 2.76776e-09 0)
(664 4.71888e-09 0)
(664 8.04556e-09 0)
(664 1.37172e-08 0)
(664 2.33879e-08 0)
(664 3.98764e-08 0)
(664 6.7992e-08 0)
(664 1.15929e-07 0)
(664 1.97668e-07 0)
(664 3.37025e-07 0)
(664 5.7463e-07 0)
(664 9.79679e-07 0)
(664 1.67019e-06 0)
(664 2.84709e-06 0)
(664 4.85293e-06 0)
(664 8.27073e-06 0)
(664 1.40939e-05 0)
(664 2.40122e-05 0)
(664 4.09032e-05 0)
(664 6.96575e-05 0)
(664 0.000118597 0)
(663.999 0.000201851 0)
(663.999 0.000343439 0)
(663.998 0.000584093 0)
(663.996 0.000992956 0)
(663.994 0.00168712 0)
(663.99 0.002865 0)
(663.983 0.00486198 0)
(663.971 0.00824515 0)
(663.953 0.0139708 0)
(663.922 0.0236515 0)
(663.871 0.0399986 0)
(663.787 0.0675675 0)
(663.649 0.113984 0)
(663.423 0.191993 0)
(663.052 0.322841 0)
(662.447 0.541782 0)
(661.463 0.906971 0)
(659.867 1.51273 0)
(657.292 2.51274 0)
(653.111 4.1503 0)
(646.742 6.81754 0)
(664 -1.15852e-15 0)
(664 6.10863e-15 0)
(664 2.90197e-14 0)
(664 2.95387e-14 0)
(664 2.9814e-14 0)
(664 2.76391e-14 0)
(664 1.71266e-14 0)
(664 -9.75674e-15 0)
(664 -6.16152e-14 0)
(664 -1.00293e-13 0)
(664 -1.11664e-13 0)
(664 -1.06877e-13 0)
(664 -8.97454e-14 0)
(664 -5.89869e-14 0)
(664 -5.38724e-14 0)
(664 -5.5431e-14 0)
(664 -6.3058e-14 0)
(664 -7.48172e-14 0)
(664 -8.50686e-14 0)
(664 -9.7403e-14 0)
(664 -1.09277e-13 0)
(664 -1.15403e-13 0)
(664 -1.16502e-13 0)
(664 -1.12305e-13 0)
(664 -1.29253e-13 0)
(664 -1.64836e-13 0)
(664 -1.70252e-13 0)
(664 -1.76943e-13 0)
(664 -2.11182e-13 0)
(664 -2.4591e-13 0)
(664 -2.59917e-13 0)
(664 -2.9396e-13 0)
(664 -3.5207e-13 0)
(664 -4.07418e-13 0)
(664 -4.76509e-13 0)
(664 -5.4714e-13 0)
(664 -6.09638e-13 0)
(664 -6.64175e-13 0)
(664 -7.03939e-13 0)
(664 -7.30662e-13 0)
(664 -7.47301e-13 0)
(664 -7.48096e-13 0)
(664 -7.44049e-13 0)
(664 -7.53719e-13 0)
(664 -7.71028e-13 0)
(664 -7.54956e-13 0)
(664 -7.02925e-13 0)
(664 -6.64144e-13 0)
(664 -6.33974e-13 0)
(664 -6.07556e-13 0)
(664 -5.76379e-13 0)
(664 -5.21654e-13 0)
(664 -4.71443e-13 0)
(664 -4.26133e-13 0)
(664 -4.08424e-13 0)
(664 -4.08778e-13 0)
(664 -3.77821e-13 0)
(664 -3.59384e-13 0)
(664 -3.65277e-13 0)
(664 -3.8366e-13 0)
(664 -4.00862e-13 0)
(664 -4.2701e-13 0)
(664 -4.70804e-13 0)
(664 -5.06097e-13 0)
(664 -5.17704e-13 0)
(664 -5.22765e-13 0)
(664 -5.34055e-13 0)
(664 -5.37346e-13 0)
(664 -5.38528e-13 0)
(664 -5.38016e-13 0)
(664 -5.50658e-13 0)
(664 -5.55441e-13 0)
(664 -5.47975e-13 0)
(664 -5.40623e-13 0)
(664 -5.51417e-13 0)
(664 -5.81087e-13 0)
(664 -5.95843e-13 0)
(664 -6.15884e-13 0)
(664 -6.33759e-13 0)
(664 -6.62263e-13 0)
(664 -7.05349e-13 0)
(664 -7.46032e-13 0)
(664 -7.92388e-13 0)
(664 -8.27951e-13 0)
(664 -8.35512e-13 0)
(664 -8.11362e-13 0)
(664 -7.78051e-13 0)
(664 -7.63825e-13 0)
(664 -7.47857e-13 0)
(664 -7.26466e-13 0)
(664 -7.10812e-13 0)
(664 -7.07362e-13 0)
(664 -7.18181e-13 0)
(664 -7.19756e-13 0)
(664 -7.12805e-13 0)
(664 -6.94559e-13 0)
(664 -6.64355e-13 0)
(664 -6.54205e-13 0)
(664 -6.72342e-13 0)
(664 -6.98544e-13 0)
(664 -7.11771e-13 0)
(664 -7.47466e-13 0)
(664 -7.76009e-13 0)
(664 -7.84223e-13 0)
(664 -7.82064e-13 0)
(664 -7.82038e-13 0)
(664 -8.07854e-13 0)
(664 -8.35445e-13 0)
(664 -8.55859e-13 0)
(664 -8.65334e-13 0)
(664 -8.55588e-13 0)
(664 -8.36641e-13 0)
(664 -8.54981e-13 0)
(664 -8.85743e-13 0)
(664 -8.98403e-13 0)
(664 -8.9446e-13 0)
(664 -8.85668e-13 0)
(664 -8.67963e-13 0)
(664 -8.64024e-13 0)
(664 -8.60068e-13 0)
(664 -8.26777e-13 0)
(664 -8.11698e-13 0)
(664 -8.13994e-13 0)
(664 -7.96405e-13 0)
(664 -7.81086e-13 0)
(664 -7.84268e-13 0)
(664 -7.85585e-13 0)
(664 -7.89085e-13 0)
(664 -8.02159e-13 0)
(664 -8.36131e-13 0)
(664 -8.72031e-13 0)
(664 -8.92496e-13 0)
(664 -8.91354e-13 0)
(664 -8.91129e-13 0)
(664 -8.84218e-13 0)
(664 -9.03158e-13 0)
(664 -9.31244e-13 0)
(664 -9.53457e-13 0)
(664 -9.34784e-13 0)
(664 -9.29193e-13 0)
(664 -9.25333e-13 0)
(664 -9.09831e-13 0)
(664 -8.92041e-13 0)
(664 -8.57451e-13 0)
(664 -8.27113e-13 0)
(664 -7.77965e-13 0)
(664 -7.22665e-13 0)
(664 -7.0301e-13 0)
(664 -6.83712e-13 0)
(664 -6.32889e-13 0)
(664 -5.77711e-13 0)
(664 -5.55336e-13 0)
(664 -5.25268e-13 0)
(664 -5.05869e-13 0)
(664 -5.32292e-13 0)
(664 -5.66943e-13 0)
(664 -5.79631e-13 0)
(664 -5.76775e-13 0)
(664 -5.93376e-13 0)
(664 -6.10457e-13 0)
(664 -6.17949e-13 0)
(664 -6.17325e-13 0)
(664 -5.86119e-13 0)
(664 -5.62431e-13 0)
(664 -5.57897e-13 0)
(664 -5.63824e-13 0)
(664 -5.83246e-13 0)
(664 -5.87007e-13 0)
(664 -6.05037e-13 0)
(664 -6.38515e-13 0)
(664 -6.52197e-13 0)
(664 -6.37801e-13 0)
(664 -6.31319e-13 0)
(664 -6.58925e-13 0)
(664 -6.66163e-13 0)
(664 -6.69306e-13 0)
(664 -6.73741e-13 0)
(664 -6.58503e-13 0)
(664 -6.53776e-13 0)
(664 -6.70343e-13 0)
(664 -6.98397e-13 0)
(664 -7.22496e-13 0)
(664 -7.50762e-13 0)
(664 -7.7883e-13 0)
(664 -8.09762e-13 0)
(664 -8.13117e-13 0)
(664 -8.24773e-13 0)
(664 -8.52944e-13 0)
(664 -8.60288e-13 0)
(664 -8.5297e-13 0)
(664 -8.47358e-13 0)
(664 -8.6091e-13 0)
(664 -8.7385e-13 0)
(664 -8.7584e-13 0)
(664 -8.55051e-13 0)
(664 -8.33849e-13 0)
(664 -8.13639e-13 0)