/*--------------------------------*- C++ -*----------------------------------*\
| =========                 |                                                 |
| \\      /  F ield         | OpenFOAM: The Open Source CFD Toolbox           |
|  \\    /   O peration     | Version:  2412                                  |
|   \\  /    A nd           | Website:  www.openfoam.com                      |
|    \\/     M anipulation  |                                                 |
\*---------------------------------------------------------------------------*/
FoamFile
{
    version     2.0;
    format      ascii;
    arch        "LSB;label=32;scalar=64";
    class       volVectorField;
    location    "0.002";
    object      U;
}
// * * * * * * * * * * * * * * * * * * * * * * * * * * * * * * * * * * * * * //

dimensions      [0 1 -1 0 0 0 0];

internalField   nonuniform List<vector> 
180000
(
(664 2.37621e-15 0)
(664 -8.9763e-15 0)
(664 -2.02506e-14 0)
(664 -2.0288e-14 0)
(664 -2.11232e-17 0)
(664 -1.81188e-14 0)
(664 -9.90219e-14 0)
(664 -1.52635e-13 0)
(664 -1.88246e-13 0)
(664 -2.96579e-13 0)
(664 -4.25048e-13 0)
(664 -4.83241e-13 0)
(664 -4.28646e-13 0)
(664 -4.14042e-13 0)
(664 -4.27836e-13 0)
(664 -4.6406e-13 0)
(664 -4.94168e-13 0)
(664 -5.45674e-13 0)
(664 -5.63296e-13 0)
(664 -5.25561e-13 0)
(664 -5.13195e-13 0)
(664 -5.27528e-13 0)
(664 -5.69169e-13 0)
(664 -5.57144e-13 0)
(664 -4.79565e-13 0)
(664 -4.11801e-13 0)
(664 -4.00653e-13 0)
(664 -4.19477e-13 0)
(664 -4.61621e-13 0)
(664 -5.4385e-13 0)
(664 -6.25974e-13 0)
(664 -6.41496e-13 0)
(664 -6.45909e-13 0)
(664 -7.02322e-13 0)
(664 -8.35228e-13 0)
(664 -9.34151e-13 0)
(664 -9.04966e-13 0)
(664 -8.1208e-13 0)
(664 -7.4714e-13 0)
(664 -6.59322e-13 0)
(664 -6.23037e-13 0)
(664 -6.08575e-13 0)
(664 -5.51635e-13 0)
(664 -4.90284e-13 0)
(664 -4.85708e-13 0)
(664 -5.23943e-13 0)
(664 -5.59153e-13 0)
(664 -6.33876e-13 0)
(664 -6.94982e-13 0)
(664 -7.13931e-13 0)
(664 -7.3501e-13 0)
(664 -8.03392e-13 0)
(664 -8.52787e-13 0)
(664 -8.46675e-13 0)
(664 -7.9406e-13 0)
(664 -6.8307e-13 0)
(664 -5.89004e-13 0)
(664 -5.62053e-13 0)
(664 -5.90952e-13 0)
(664 -6.35853e-13 0)
(664 -5.84627e-13 0)
(664 -4.8234e-13 0)
(664 -4.26131e-13 0)
(664 -4.81409e-13 0)
(664 -5.73978e-13 0)
(664 -5.56475e-13 0)
(664 -4.51104e-13 0)
(664 -3.88004e-13 0)
(664 -4.39297e-13 0)
(664 -5.56708e-13 0)
(664 -7.25365e-13 0)
(664 -8.09063e-13 0)
(664 -8.08724e-13 0)
(664 -8.07054e-13 0)
(664 -7.67948e-13 0)
(664 -7.67791e-13 0)
(664 -8.4522e-13 0)
(664 -9.43808e-13 0)
(664 -8.86398e-13 0)
(664 -6.66776e-13 0)
(664 -4.83211e-13 0)
(664 -3.9518e-13 0)
(664 -3.28304e-13 0)
(664 -2.86067e-13 0)
(664 -2.7816e-13 0)
(664 -3.68207e-13 0)
(664 -4.8097e-13 0)
(664 -6.75977e-13 0)
(664 -9.13586e-13 0)
(664 -1.0949e-12 0)
(664 -1.26099e-12 0)
(664 -1.40054e-12 0)
(664 -1.57245e-12 0)
(664 -1.57245e-12 0)
(664 -1.45528e-12 0)
(664 -1.42949e-12 0)
(664 -1.5446e-12 0)
(664 -1.63591e-12 0)
(664 -1.60165e-12 0)
(664 -1.49248e-12 0)
(664 -1.38174e-12 0)
(664 -1.32202e-12 0)
(664 -1.27229e-12 0)
(664 -1.266e-12 0)
(664 -1.32337e-12 0)
(664 -1.33495e-12 0)
(664 -1.27398e-12 0)
(664 -1.14364e-12 0)
(664 -1.02118e-12 0)
(664 -1.00581e-12 0)
(664 -9.6844e-13 0)
(664 -9.3717e-13 0)
(664 -1.00366e-12 0)
(664 -1.09287e-12 0)
(664 -1.05758e-12 0)
(664 -1.06839e-12 0)
(664 -1.2343e-12 0)
(664 -1.4353e-12 0)
(664 -1.61195e-12 0)
(664 -1.75734e-12 0)
(664 -1.7617e-12 0)
(664 -1.59595e-12 0)
(664 -1.41188e-12 0)
(664 -1.27597e-12 0)
(664 -1.10575e-12 0)
(664 -9.30139e-13 0)
(664 -8.01773e-13 0)
(664 -6.52832e-13 0)
(664 -4.68729e-13 0)
(664 -3.74896e-13 0)
(664 -3.77014e-13 0)
(664 -4.58274e-13 0)
(664 -6.26258e-13 0)
(664 -8.87304e-13 0)
(664 -1.10342e-12 0)
(664 -1.16899e-12 0)
(664 -1.04602e-12 0)
(664 -8.29263e-13 0)
(664 -6.62598e-13 0)
(664 -6.53382e-13 0)
(664 -7.88308e-13 0)
(664 -8.28771e-13 0)
(664 -7.53525e-13 0)
(664 -6.35277e-13 0)
(664 -5.65459e-13 0)
(664 -4.67444e-13 0)
(664 -3.17066e-13 0)
(664 -1.36944e-13 0)
(664 -2.67913e-14 0)
(664 -3.652e-15 0)
(664 3.87999e-14 0)
(664 1.36673e-13 0)
(664 2.41189e-13 0)
(664 2.6272e-13 0)
(664 2.35427e-13 0)
(664 1.94941e-13 0)
(664 6.99592e-14 0)
(664 -1.10356e-13 0)
(664 -2.32882e-13 0)
(664 -3.5428e-13 0)
(664 -4.61139e-13 0)
(664 -5.27194e-13 0)
(664 -5.47769e-13 0)
(664 -4.63286e-13 0)
(664 -3.70789e-13 0)
(664 -3.56966e-13 0)
(664 -3.23121e-13 0)
(664 -2.11114e-13 0)
(664 -1.16353e-13 0)
(664 -1.47668e-13 0)
(664 -1.99196e-13 0)
(664 -1.52317e-13 0)
(664 -3.15147e-14 0)
(664 1.20847e-14 0)
(664 -1.16115e-13 0)
(664 -3.34947e-13 0)
(664 -6.55455e-13 0)
(664 -9.98933e-13 0)
(664 -1.20846e-12 0)
(664 -1.21293e-12 0)
(664 -1.10736e-12 0)
(664 -1.11391e-12 0)
(664 -1.16293e-12 0)
(664 -1.14104e-12 0)
(664 -1.17582e-12 0)
(664 -1.27172e-12 0)
(664 -1.31738e-12 0)
(664 -1.36077e-12 0)
(664 -1.35709e-12 0)
(664 -1.21767e-12 0)
(664 -1.05866e-12 0)
(664 -9.85974e-13 0)
(664 -8.93337e-13 0)
(664 -7.98849e-13 0)
(664 -7.35736e-13 0)
(664 -6.92132e-13 0)
(664 -6.41734e-13 0)
(664 -5.36208e-13 0)
(664 -4.68324e-13 0)
(664 -5.14579e-13 0)
(664 -5.93449e-13 0)
(664 -5.07382e-13 0)
(664 -3.65728e-13 0)
(664 -3.14164e-13 0)
(664 -3.68307e-13 0)
(664 -4.17531e-13 0)
(664 -4.35149e-13 0)
(664 -5.04768e-13 0)
(664 -6.48914e-13 0)
(664 -6.91688e-13 0)
(664 -5.24573e-13 0)
(664 -2.2972e-13 0)
(664 2.00271e-14 0)
(664 2.18305e-13 0)
(664 3.74709e-13 0)
(664 5.21607e-13 0)
(664 6.9303e-13 0)
(664 8.11073e-13 0)
(664 8.63651e-13 0)
(664 9.12756e-13 0)
(664 1.00546e-12 0)
(664 9.71901e-13 0)
(664 8.2815e-13 0)
(664 6.03628e-13 0)
(664 3.60578e-13 0)
(664 6.25894e-14 0)
(664 -2.22489e-13 0)
(664 -3.78528e-13 0)
(664 -4.72811e-13 0)
(664 -5.29655e-13 0)
(664 -5.33393e-13 0)
(664 -5.22957e-13 0)
(664 -5.68358e-13 0)
(664 -6.08922e-13 0)
(664 -5.63579e-13 0)
(664 -4.75486e-13 0)
(664 -2.94671e-13 0)
(664 -4.17992e-14 0)
(664 2.10548e-13 0)
(664 4.04191e-13 0)
(664 5.96206e-13 0)
(664 8.04935e-13 0)
(664 1.10943e-12 0)
(664 1.64893e-12 0)
(664 2.62458e-12 0)
(664 4.34142e-12 0)
(664 7.25928e-12 0)
(664 1.20173e-11 0)
(664 1.98078e-11 0)
(664 3.26759e-11 0)
(664 5.40828e-11 0)
(664 8.98455e-11 0)
(664 1.49538e-10 0)
(664 2.49004e-10 0)
(664 4.14672e-10 0)
(664 6.9064e-10 0)
(664 1.15078e-09 0)
(664 1.91848e-09 0)
(664 3.20018e-09 0)
(664 5.3414e-09 0)
(664 8.92069e-09 0)
(664 1.49082e-08 0)
(664 2.49322e-08 0)
(664 4.17269e-08 0)
(664 6.98888e-08 0)
(664 1.17153e-07 0)
(664 1.96548e-07 0)
(664 3.30048e-07 0)
(664 5.54746e-07 0)
(664 9.33345e-07 0)
(664 1.57196e-06 0)
(664 2.65041e-06 0)
(664 4.47384e-06 0)
(664 7.56077e-06 0)
(664 1.27936e-05 0)
(663.999 2.16763e-05 0)
(663.999 3.67763e-05 0)
(663.999 6.24832e-05 0)
(663.998 0.000106316 0)
(663.996 0.000181174 0)
(663.994 0.00030923 0)
(663.99 0.000528662 0)
(663.983 0.000905338 0)
(663.972 0.00155311 0)
(663.955 0.00266916 0)
(663.925 0.00459566 0)
(663.877 0.00792767 0)
(663.797 0.013702 0)
(663.665 0.0237291 0)
(663.447 0.0411768 0)
(663.087 0.0716016 0)
(662.489 0.124764 0)
(661.498 0.217877 0)
(659.855 0.381276 0)
(657.126 0.668873 0)
(652.592 1.1757 0)
(645.079 2.07311 0)
(632.649 3.65845 0)
(612.407 6.48467 0)
(580.586 11.4236 0)
(664 8.42951e-15 0)
(664 2.37985e-14 0)
(664 -9.32454e-15 0)
(664 -4.39318e-14 0)
(664 -5.65727e-14 0)
(664 -3.85417e-14 0)
(664 -2.37243e-14 0)
(664 -3.98897e-14 0)
(664 -6.68783e-14 0)
(664 -9.59424e-14 0)
(664 -9.72651e-14 0)
(664 -6.78134e-15 0)
(664 7.24825e-14 0)
(664 8.72897e-14 0)
(664 -3.44886e-14 0)
(664 -2.66564e-13 0)
(664 -4.60311e-13 0)
(664 -5.66548e-13 0)
(664 -5.50691e-13 0)
(664 -4.92354e-13 0)
(664 -4.89829e-13 0)
(664 -5.49682e-13 0)
(664 -7.09847e-13 0)
(664 -8.75487e-13 0)
(664 -8.99021e-13 0)
(664 -8.76844e-13 0)
(664 -9.0246e-13 0)
(664 -8.91989e-13 0)
(664 -8.77745e-13 0)
(664 -8.18614e-13 0)
(664 -7.48085e-13 0)
(664 -6.73297e-13 0)
(664 -6.15712e-13 0)
(664 -5.89177e-13 0)
(664 -5.73636e-13 0)
(664 -6.07375e-13 0)
(664 -5.57833e-13 0)
(664 -4.01782e-13 0)
(664 -2.69783e-13 0)
(664 -2.27207e-13 0)
(664 -2.91704e-13 0)
(664 -4.0572e-13 0)
(664 -4.94666e-13 0)
(664 -5.15655e-13 0)
(664 -5.14489e-13 0)
(664 -5.32164e-13 0)
(664 -5.82556e-13 0)
(664 -6.54068e-13 0)
(664 -6.97232e-13 0)
(664 -7.67332e-13 0)
(664 -8.78389e-13 0)
(664 -9.75528e-13 0)
(664 -1.0301e-12 0)
(664 -1.02834e-12 0)
(664 -1.00865e-12 0)
(664 -9.59802e-13 0)
(664 -8.76722e-13 0)
(664 -7.98995e-13 0)
(664 -7.93908e-13 0)
(664 -7.87078e-13 0)
(664 -7.20873e-13 0)
(664 -6.64543e-13 0)
(664 -6.53742e-13 0)
(664 -7.41441e-13 0)
(664 -8.21083e-13 0)
(664 -8.05763e-13 0)
(664 -7.93786e-13 0)
(664 -8.80063e-13 0)
(664 -1.06358e-12 0)
(664 -1.19699e-12 0)
(664 -1.24986e-12 0)
(664 -1.31951e-12 0)
(664 -1.40171e-12 0)
(664 -1.48166e-12 0)
(664 -1.52813e-12 0)
(664 -1.58749e-12 0)
(664 -1.61437e-12 0)
(664 -1.67336e-12 0)
(664 -1.59875e-12 0)
(664 -1.33595e-12 0)
(664 -1.06175e-12 0)
(664 -8.73654e-13 0)
(664 -8.15956e-13 0)
(664 -8.38045e-13 0)
(664 -9.84637e-13 0)
(664 -1.20038e-12 0)
(664 -1.30457e-12 0)
(664 -1.30353e-12 0)
(664 -1.25138e-12 0)
(664 -1.13827e-12 0)
(664 -1.06356e-12 0)
(664 -1.08904e-12 0)
(664 -1.19926e-12 0)
(664 -1.21245e-12 0)
(664 -1.13826e-12 0)
(664 -1.22965e-12 0)
(664 -1.47187e-12 0)
(664 -1.62044e-12 0)
(664 -1.63969e-12 0)
(664 -1.55086e-12 0)
(664 -1.44385e-12 0)
(664 -1.38991e-12 0)
(664 -1.31258e-12 0)
(664 -1.16005e-12 0)
(664 -1.00501e-12 0)
(664 -8.09898e-13 0)
(664 -6.81108e-13 0)
(664 -7.28029e-13 0)
(664 -8.99573e-13 0)
(664 -1.04863e-12 0)
(664 -1.05715e-12 0)
(664 -9.88943e-13 0)
(664 -8.97778e-13 0)
(664 -7.61295e-13 0)
(664 -5.20109e-13 0)
(664 -3.61295e-13 0)
(664 -4.24598e-13 0)
(664 -5.50724e-13 0)
(664 -6.46526e-13 0)
(664 -6.62032e-13 0)
(664 -5.81933e-13 0)
(664 -5.19743e-13 0)
(664 -5.2273e-13 0)
(664 -5.91319e-13 0)
(664 -6.41794e-13 0)
(664 -7.63356e-13 0)
(664 -8.93914e-13 0)
(664 -1.04786e-12 0)
(664 -1.19261e-12 0)
(664 -1.31326e-12 0)
(664 -1.32591e-12 0)
(664 -1.27661e-12 0)
(664 -1.2654e-12 0)
(664 -1.33966e-12 0)
(664 -1.42607e-12 0)
(664 -1.46237e-12 0)
(664 -1.37341e-12 0)
(664 -1.14143e-12 0)
(664 -8.74435e-13 0)
(664 -7.48529e-13 0)
(664 -7.72605e-13 0)
(664 -8.35486e-13 0)
(664 -8.6179e-13 0)
(664 -9.36373e-13 0)
(664 -9.72706e-13 0)
(664 -9.2554e-13 0)
(664 -9.16983e-13 0)
(664 -9.58099e-13 0)
(664 -1.00828e-12 0)
(664 -1.05038e-12 0)
(664 -9.76643e-13 0)
(664 -6.98603e-13 0)
(664 -4.05555e-13 0)
(664 -2.15685e-13 0)
(664 -1.59459e-13 0)
(664 -2.46112e-13 0)
(664 -3.27551e-13 0)
(664 -3.46406e-13 0)
(664 -3.35617e-13 0)
(664 -4.09294e-13 0)
(664 -5.2748e-13 0)
(664 -7.43033e-13 0)
(664 -9.6973e-13 0)
(664 -1.10881e-12 0)
(664 -1.217e-12 0)
(664 -1.34435e-12 0)
(664 -1.34687e-12 0)
(664 -1.19114e-12 0)
(664 -1.04725e-12 0)
(664 -9.62493e-13 0)
(664 -9.12398e-13 0)
(664 -8.16522e-13 0)
(664 -6.95626e-13 0)
(664 -6.24443e-13 0)
(664 -7.08249e-13 0)
(664 -9.3209e-13 0)
(664 -1.24052e-12 0)
(664 -1.50449e-12 0)
(664 -1.61953e-12 0)
(664 -1.52283e-12 0)
(664 -1.2381e-12 0)
(664 -8.93793e-13 0)
(664 -5.74857e-13 0)
(664 -3.28288e-13 0)
(664 -3.06552e-13 0)
(664 -4.26346e-13 0)
(664 -6.15446e-13 0)
(664 -8.17653e-13 0)
(664 -9.41119e-13 0)
(664 -9.2833e-13 0)
(664 -8.73736e-13 0)
(664 -7.75477e-13 0)
(664 -7.70891e-13 0)
(664 -9.38555e-13 0)
(664 -1.1388e-12 0)
(664 -1.17985e-12 0)
(664 -1.09517e-12 0)
(664 -9.76462e-13 0)
(664 -8.73127e-13 0)
(664 -8.27963e-13 0)
(664 -7.65918e-13 0)
(664 -5.87612e-13 0)
(664 -3.83097e-13 0)
(664 -2.8035e-13 0)
(664 -2.81975e-13 0)
(664 -2.96381e-13 0)
(664 -2.96656e-13 0)
(664 -3.33525e-13 0)
(664 -3.85978e-13 0)
(664 -4.33831e-13 0)
(664 -3.79053e-13 0)
(664 -2.23093e-13 0)
(664 4.8751e-14 0)
(664 3.26608e-13 0)
(664 4.86219e-13 0)
(664 5.78772e-13 0)
(664 6.16782e-13 0)
(664 5.48904e-13 0)
(664 4.18455e-13 0)
(664 3.60239e-13 0)
(664 3.88071e-13 0)
(664 3.65148e-13 0)
(664 3.42719e-13 0)
(664 2.49574e-13 0)
(664 9.04587e-14 0)
(664 3.12639e-15 0)
(664 3.62201e-14 0)
(664 7.63079e-14 0)
(664 1.44927e-13 0)
(664 2.13906e-13 0)
(664 1.98009e-13 0)
(664 1.45046e-13 0)
(664 1.07175e-13 0)
(664 5.13448e-14 0)
(664 1.61218e-15 0)
(664 1.57196e-14 0)
(664 1.5069e-13 0)
(664 3.70501e-13 0)
(664 6.18602e-13 0)
(664 8.57802e-13 0)
(664 1.19939e-12 0)
(664 1.80595e-12 0)
(664 2.87012e-12 0)
(664 4.64027e-12 0)
(664 7.5647e-12 0)
(664 1.25092e-11 0)
(664 2.06246e-11 0)
(664 3.37869e-11 0)
(664 5.53459e-11 0)
(664 9.10547e-11 0)
(664 1.50427e-10 0)
(664 2.4907e-10 0)
(664 4.13068e-10 0)
(664 6.85631e-10 0)
(664 1.13854e-09 0)
(664 1.89146e-09 0)
(664 3.14348e-09 0)
(664 5.22617e-09 0)
(664 8.69222e-09 0)
(664 1.44631e-08 0)
(664 2.40754e-08 0)
(664 4.00943e-08 0)
(664 6.68033e-08 0)
(664 1.1136e-07 0)
(664 1.85731e-07 0)
(664 3.09939e-07 0)
(664 5.17505e-07 0)
(664 8.64591e-07 0)
(664 1.44536e-06 0)
(664 2.41779e-06 0)
(664 4.04716e-06 0)
(664 6.7793e-06 0)
(664 1.1364e-05 0)
(664 1.90635e-05 0)
(664 3.20045e-05 0)
(664 5.37732e-05 0)
(663.999 9.04237e-05 0)
(663.999 0.000152185 0)
(663.998 0.000256357 0)
(663.997 0.000432232 0)
(663.995 0.000729454 0)
(663.991 0.00123226 0)
(663.986 0.00208372 0)
(663.977 0.00352716 0)
(663.962 0.00597682 0)
(663.939 0.0101388 0)
(663.9 0.017218 0)
(663.837 0.0292732 0)
(663.735 0.0498266 0)
(663.568 0.0849104 0)
(663.297 0.144871 0)
(662.858 0.247465 0)
(662.145 0.42323 0)
(660.991 0.724641 0)
(659.126 1.24219 0)
(656.127 2.13092 0)
(651.321 3.65886 0)
(643.713 6.2752 0)
(631.787 10.7525 0)
(614.412 18.2397 0)
(664 1.9336e-16 0)
(664 -1.29694e-14 0)
(664 -3.86587e-14 0)
(664 -9.6584e-14 0)
(664 -1.56951e-13 0)
(664 -1.26638e-13 0)
(664 -1.86858e-14 0)
(664 8.67948e-15 0)
(664 -2.07197e-15 0)
(664 2.32818e-14 0)
(664 1.07675e-13 0)
(664 1.10593e-13 0)
(664 4.69133e-14 0)
(664 3.22426e-14 0)
(664 -3.92873e-14 0)
(664 -1.47575e-13 0)
(664 -3.17633e-13 0)
(664 -4.43726e-13 0)
(664 -5.47579e-13 0)
(664 -6.36922e-13 0)
(664 -6.65732e-13 0)
(664 -6.30227e-13 0)
(664 -6.25742e-13 0)
(664 -6.74466e-13 0)
(664 -7.15077e-13 0)
(664 -7.69418e-13 0)
(664 -8.27729e-13 0)
(664 -8.64846e-13 0)
(664 -8.63951e-13 0)
(664 -8.07327e-13 0)
(664 -6.89801e-13 0)
(664 -5.77265e-13 0)
(664 -5.06098e-13 0)
(664 -4.42001e-13 0)
(664 -3.80386e-13 0)
(664 -3.87617e-13 0)
(664 -5.23918e-13 0)
(664 -5.94807e-13 0)
(664 -5.88403e-13 0)
(664 -5.67573e-13 0)
(664 -5.79562e-13 0)
(664 -6.00597e-13 0)
(664 -6.66853e-13 0)
(664 -7.62809e-13 0)
(664 -8.28642e-13 0)
(664 -8.25324e-13 0)
(664 -7.9916e-13 0)
(664 -7.42235e-13 0)
(664 -6.61988e-13 0)
(664 -6.31799e-13 0)
(664 -6.61096e-13 0)
(664 -6.6437e-13 0)
(664 -6.4061e-13 0)
(664 -5.94553e-13 0)
(664 -5.72778e-13 0)
(664 -6.47072e-13 0)
(664 -6.90298e-13 0)
(664 -7.39717e-13 0)
(664 -7.37232e-13 0)
(664 -6.52177e-13 0)
(664 -5.25729e-13 0)
(664 -3.69919e-13 0)
(664 -3.19999e-13 0)
(664 -3.97291e-13 0)
(664 -4.57088e-13 0)
(664 -5.59979e-13 0)
(664 -7.29479e-13 0)
(664 -8.72455e-13 0)
(664 -8.94961e-13 0)
(664 -8.63588e-13 0)
(664 -7.98483e-13 0)
(664 -6.9782e-13 0)
(664 -5.83592e-13 0)
(664 -4.591e-13 0)
(664 -3.60775e-13 0)
(664 -3.50035e-13 0)
(664 -3.65419e-13 0)
(664 -4.32541e-13 0)
(664 -5.90313e-13 0)
(664 -7.99649e-13 0)
(664 -1.03596e-12 0)
(664 -1.20335e-12 0)
(664 -1.32584e-12 0)
(664 -1.42131e-12 0)
(664 -1.50635e-12 0)
(664 -1.55439e-12 0)
(664 -1.46221e-12 0)
(664 -1.20328e-12 0)
(664 -8.54163e-13 0)
(664 -5.62032e-13 0)
(664 -4.0817e-13 0)
(664 -3.99879e-13 0)
(664 -4.35919e-13 0)
(664 -5.02446e-13 0)
(664 -5.40173e-13 0)
(664 -5.2786e-13 0)
(664 -5.83257e-13 0)
(664 -7.03181e-13 0)
(664 -8.65288e-13 0)
(664 -9.90948e-13 0)
(664 -1.03518e-12 0)
(664 -9.90691e-13 0)
(664 -9.23986e-13 0)
(664 -8.24414e-13 0)
(664 -7.34988e-13 0)
(664 -7.52442e-13 0)
(664 -8.90136e-13 0)
(664 -1.16078e-12 0)
(664 -1.38668e-12 0)
(664 -1.51888e-12 0)
(664 -1.59334e-12 0)
(664 -1.50284e-12 0)
(664 -1.2512e-12 0)
(664 -1.00505e-12 0)
(664 -7.76323e-13 0)
(664 -5.44753e-13 0)
(664 -3.64538e-13 0)
(664 -2.20249e-13 0)
(664 -2.32553e-13 0)
(664 -3.84487e-13 0)
(664 -5.66754e-13 0)
(664 -7.98152e-13 0)
(664 -1.04618e-12 0)
(664 -1.18975e-12 0)
(664 -1.27977e-12 0)
(664 -1.37289e-12 0)
(664 -1.38379e-12 0)
(664 -1.38486e-12 0)
(664 -1.46722e-12 0)
(664 -1.60186e-12 0)
(664 -1.66578e-12 0)
(664 -1.63329e-12 0)
(664 -1.48078e-12 0)
(664 -1.26079e-12 0)
(664 -1.11464e-12 0)
(664 -1.06847e-12 0)
(664 -1.11778e-12 0)
(664 -1.17354e-12 0)
(664 -1.15024e-12 0)
(664 -9.58941e-13 0)
(664 -7.38326e-13 0)
(664 -5.67463e-13 0)
(664 -5.35954e-13 0)
(664 -5.46631e-13 0)
(664 -5.73339e-13 0)
(664 -6.96747e-13 0)
(664 -8.38421e-13 0)
(664 -9.38988e-13 0)
(664 -9.67254e-13 0)
(664 -8.82053e-13 0)
(664 -7.52778e-13 0)
(664 -5.89965e-13 0)
(664 -4.37208e-13 0)
(664 -3.37559e-13 0)
(664 -3.56749e-13 0)
(664 -3.84162e-13 0)
(664 -3.10146e-13 0)
(664 -2.16999e-13 0)
(664 -1.79812e-13 0)
(664 -1.35802e-13 0)
(664 -8.33765e-14 0)
(664 -5.6267e-14 0)
(664 -1.18975e-13 0)
(664 -2.04025e-13 0)
(664 -2.55579e-13 0)
(664 -2.25325e-13 0)
(664 -2.04827e-13 0)
(664 -2.31794e-13 0)
(664 -3.02059e-13 0)
(664 -3.75166e-13 0)
(664 -4.4662e-13 0)
(664 -5.21974e-13 0)
(664 -6.20086e-13 0)
(664 -7.59978e-13 0)
(664 -9.6085e-13 0)
(664 -1.14328e-12 0)
(664 -1.23656e-12 0)
(664 -1.16981e-12 0)
(664 -1.00923e-12 0)
(664 -8.86161e-13 0)
(664 -7.92559e-13 0)
(664 -6.41416e-13 0)
(664 -5.3307e-13 0)
(664 -5.60241e-13 0)
(664 -5.93548e-13 0)
(664 -5.8954e-13 0)
(664 -6.02985e-13 0)
(664 -5.7134e-13 0)
(664 -5.50387e-13 0)
(664 -5.79253e-13 0)
(664 -5.77013e-13 0)
(664 -5.03413e-13 0)
(664 -5.19792e-13 0)
(664 -6.88765e-13 0)
(664 -8.72828e-13 0)
(664 -9.98349e-13 0)
(664 -1.02719e-12 0)
(664 -1.05483e-12 0)
(664 -1.03382e-12 0)
(664 -8.80438e-13 0)
(664 -7.0948e-13 0)
(664 -6.30164e-13 0)
(664 -5.97215e-13 0)
(664 -5.66519e-13 0)
(664 -5.13456e-13 0)
(664 -4.47428e-13 0)
(664 -4.09401e-13 0)
(664 -2.87897e-13 0)
(664 -6.85543e-14 0)
(664 9.97042e-14 0)
(664 9.31427e-14 0)
(664 1.13802e-13 0)
(664 2.2719e-13 0)
(664 2.63485e-13 0)
(664 1.5593e-13 0)
(664 -2.67406e-14 0)
(664 -2.19589e-13 0)
(664 -3.50223e-13 0)
(664 -4.15753e-13 0)
(664 -4.5954e-13 0)
(664 -5.28991e-13 0)
(664 -4.81507e-13 0)
(664 -3.68653e-13 0)
(664 -2.75174e-13 0)
(664 -1.07172e-13 0)
(664 1.60049e-13 0)
(664 4.70805e-13 0)
(664 6.89995e-13 0)
(664 7.92318e-13 0)
(664 8.45995e-13 0)
(664 8.45556e-13 0)
(664 7.21617e-13 0)
(664 5.86407e-13 0)
(664 4.80526e-13 0)
(664 4.04251e-13 0)
(664 3.82864e-13 0)
(664 3.81517e-13 0)
(664 4.18321e-13 0)
(664 5.36013e-13 0)
(664 7.53972e-13 0)
(664 1.11108e-12 0)
(664 1.85796e-12 0)
(664 3.33731e-12 0)
(664 5.90207e-12 0)
(664 1.01377e-11 0)
(664 1.70715e-11 0)
(664 2.85052e-11 0)
(664 4.73924e-11 0)
(664 7.8587e-11 0)
(664 1.30098e-10 0)
(664 2.15199e-10 0)
(664 3.55863e-10 0)
(664 5.88562e-10 0)
(664 9.7355e-10 0)
(664 1.61054e-09 0)
(664 2.66488e-09 0)
(664 4.41044e-09 0)
(664 7.30091e-09 0)
(664 1.20881e-08 0)
(664 2.0018e-08 0)
(664 3.31566e-08 0)
(664 5.49294e-08 0)
(664 9.10183e-08 0)
(664 1.5085e-07 0)
(664 2.50066e-07 0)
(664 4.1463e-07 0)
(664 6.87646e-07 0)
(664 1.14069e-06 0)
(664 1.89265e-06 0)
(664 3.14103e-06 0)
(664 5.21402e-06 0)
(664 8.65706e-06 0)
(664 1.43769e-05 0)
(664 2.38809e-05 0)
(664 3.96761e-05 0)
(664 6.59313e-05 0)
(663.999 0.000109581 0)
(663.999 0.00018216 0)
(663.998 0.000302856 0)
(663.997 0.000503591 0)
(663.996 0.000837465 0)
(663.993 0.0013928 0)
(663.989 0.00231651 0)
(663.982 0.00385285 0)
(663.971 0.00640788 0)
(663.954 0.0106564 0)
(663.925 0.0177192 0)
(663.879 0.0294568 0)
(663.806 0.0489554 0)
(663.687 0.0813297 0)
(663.496 0.135046 0)
(663.191 0.224099 0)
(662.702 0.371575 0)
(661.92 0.615478 0)
(660.676 1.0181 0)
(658.701 1.68119 0)
(655.58 2.76903 0)
(650.703 4.5452 0)
(643.115 7.4151 0)
(632.068 11.9952 0)
(664 -8.48873e-15 0)
(664 -3.07744e-14 0)
(664 -5.21045e-14 0)
(664 -5.42766e-14 0)
(664 -4.18849e-14 0)
(664 -4.99409e-14 0)
(664 -1.30834e-13 0)
(664 -2.0225e-13 0)
(664 -2.31475e-13 0)
(664 -2.21154e-13 0)
(664 -2.7776e-13 0)
(664 -3.65865e-13 0)
(664 -4.24998e-13 0)
(664 -3.87182e-13 0)
(664 -3.05819e-13 0)
(664 -2.5122e-13 0)
(664 -2.13503e-13 0)
(664 -1.91709e-13 0)
(664 -2.1541e-13 0)
(664 -2.1769e-13 0)
(664 -1.85916e-13 0)
(664 -1.23749e-13 0)
(664 -2.90511e-15 0)
(664 1.48088e-13 0)
(664 2.03552e-13 0)
(664 1.67618e-13 0)
(664 6.01456e-14 0)
(664 -4.75477e-14 0)
(664 -1.1398e-13 0)
(664 -2.43655e-13 0)
(664 -3.45574e-13 0)
(664 -4.17959e-13 0)
(664 -4.76678e-13 0)
(664 -5.22362e-13 0)
(664 -5.81773e-13 0)
(664 -6.33599e-13 0)
(664 -6.82766e-13 0)
(664 -7.18788e-13 0)
(664 -7.04534e-13 0)
(664 -6.43869e-13 0)
(664 -5.37622e-13 0)
(664 -5.09685e-13 0)
(664 -5.35815e-13 0)
(664 -5.95167e-13 0)
(664 -6.79373e-13 0)
(664 -7.5107e-13 0)
(664 -7.36211e-13 0)
(664 -7.01807e-13 0)
(664 -6.27708e-13 0)
(664 -5.60912e-13 0)
(664 -4.34881e-13 0)
(664 -3.56152e-13 0)
(664 -3.3904e-13 0)
(664 -3.65322e-13 0)
(664 -4.25699e-13 0)
(664 -4.913e-13 0)
(664 -6.02398e-13 0)
(664 -7.24127e-13 0)
(664 -7.90661e-13 0)
(664 -8.54895e-13 0)
(664 -9.54992e-13 0)
(664 -9.72108e-13 0)
(664 -9.67555e-13 0)
(664 -1.02453e-12 0)
(664 -1.11503e-12 0)
(664 -1.115e-12 0)
(664 -1.04201e-12 0)
(664 -9.39958e-13 0)
(664 -8.05919e-13 0)
(664 -6.93179e-13 0)
(664 -6.49572e-13 0)
(664 -6.51999e-13 0)
(664 -6.75414e-13 0)
(664 -6.38808e-13 0)
(664 -5.80798e-13 0)
(664 -5.81605e-13 0)
(664 -6.47209e-13 0)
(664 -6.98101e-13 0)
(664 -8.30071e-13 0)
(664 -1.06755e-12 0)
(664 -1.31495e-12 0)
(664 -1.46403e-12 0)
(664 -1.47817e-12 0)
(664 -1.40802e-12 0)
(664 -1.33665e-12 0)
(664 -1.29981e-12 0)
(664 -1.31598e-12 0)
(664 -1.30035e-12 0)
(664 -1.23323e-12 0)
(664 -1.22519e-12 0)
(664 -1.29871e-12 0)
(664 -1.36805e-12 0)
(664 -1.39358e-12 0)
(664 -1.37891e-12 0)
(664 -1.31676e-12 0)
(664 -1.20173e-12 0)
(664 -1.05463e-12 0)
(664 -9.8448e-13 0)
(664 -9.70084e-13 0)
(664 -9.55935e-13 0)
(664 -8.50141e-13 0)
(664 -6.28458e-13 0)
(664 -3.98557e-13 0)
(664 -2.95343e-13 0)
(664 -4.01927e-13 0)
(664 -5.99004e-13 0)
(664 -7.0511e-13 0)
(664 -6.36237e-13 0)
(664 -5.21043e-13 0)
(664 -5.14739e-13 0)
(664 -6.29548e-13 0)
(664 -7.32194e-13 0)
(664 -7.81767e-13 0)
(664 -8.11981e-13 0)
(664 -7.81149e-13 0)
(664 -7.45923e-13 0)
(664 -7.10591e-13 0)
(664 -7.54641e-13 0)
(664 -8.22681e-13 0)
(664 -9.71395e-13 0)
(664 -1.18039e-12 0)
(664 -1.23761e-12 0)
(664 -1.19032e-12 0)
(664 -1.09588e-12 0)
(664 -9.54509e-13 0)
(664 -7.5845e-13 0)
(664 -5.51489e-13 0)
(664 -3.11417e-13 0)
(664 -1.11726e-13 0)
(664 4.17843e-14 0)
(664 7.29004e-14 0)
(664 6.26981e-14 0)
(664 7.50613e-15 0)
(664 -1.01778e-13 0)
(664 -2.18939e-13 0)
(664 -3.31251e-13 0)
(664 -6.03788e-13 0)
(664 -9.35787e-13 0)
(664 -1.16068e-12 0)
(664 -1.29785e-12 0)
(664 -1.37662e-12 0)
(664 -1.44803e-12 0)
(664 -1.45147e-12 0)
(664 -1.38465e-12 0)
(664 -1.38988e-12 0)
(664 -1.51075e-12 0)
(664 -1.6398e-12 0)
(664 -1.66807e-12 0)
(664 -1.61218e-12 0)
(664 -1.5329e-12 0)
(664 -1.44024e-12 0)
(664 -1.46771e-12 0)
(664 -1.58026e-12 0)
(664 -1.63409e-12 0)
(664 -1.53963e-12 0)
(664 -1.38017e-12 0)
(664 -1.25481e-12 0)
(664 -1.26238e-12 0)
(664 -1.33175e-12 0)
(664 -1.35069e-12 0)
(664 -1.27255e-12 0)
(664 -1.08026e-12 0)
(664 -9.38406e-13 0)
(664 -9.42473e-13 0)
(664 -1.01525e-12 0)
(664 -9.56193e-13 0)
(664 -7.64074e-13 0)
(664 -5.91868e-13 0)
(664 -5.15425e-13 0)
(664 -5.4812e-13 0)
(664 -6.49123e-13 0)
(664 -7.01627e-13 0)
(664 -7.62798e-13 0)
(664 -8.97245e-13 0)
(664 -9.89944e-13 0)
(664 -9.53664e-13 0)
(664 -7.80845e-13 0)
(664 -6.08588e-13 0)
(664 -3.66869e-13 0)
(664 -9.6709e-14 0)
(664 -3.18914e-15 0)
(664 -1.291e-13 0)
(664 -4.60896e-13 0)
(664 -8.29706e-13 0)
(664 -1.05683e-12 0)
(664 -1.23e-12 0)
(664 -1.36598e-12 0)
(664 -1.34632e-12 0)
(664 -1.19388e-12 0)
(664 -1.05702e-12 0)
(664 -9.2874e-13 0)
(664 -8.52842e-13 0)
(664 -7.37543e-13 0)
(664 -5.52148e-13 0)
(664 -3.68367e-13 0)
(664 -2.20664e-13 0)
(664 -2.41664e-13 0)
(664 -3.3963e-13 0)
(664 -3.70656e-13 0)
(664 -3.36267e-13 0)
(664 -3.20073e-13 0)
(664 -3.51348e-13 0)
(664 -5.25138e-13 0)
(664 -7.25479e-13 0)
(664 -7.87087e-13 0)
(664 -7.82071e-13 0)
(664 -8.01416e-13 0)
(664 -8.40815e-13 0)
(664 -8.42337e-13 0)
(664 -7.02795e-13 0)
(664 -4.97947e-13 0)
(664 -3.33294e-13 0)
(664 -2.16829e-13 0)
(664 -8.99682e-14 0)
(664 6.40998e-15 0)
(664 1.44944e-14 0)
(664 -2.61823e-15 0)
(664 4.75212e-14 0)
(664 9.17708e-14 0)
(664 5.18047e-14 0)
(664 2.00244e-14 0)
(664 5.45536e-14 0)
(664 9.95488e-14 0)
(664 1.93158e-13 0)
(664 3.08206e-13 0)
(664 3.8899e-13 0)
(664 3.58809e-13 0)
(664 2.49918e-13 0)
(664 1.88826e-13 0)
(664 1.98488e-13 0)
(664 1.8113e-13 0)
(664 4.99599e-14 0)
(664 -1.67062e-13 0)
(664 -3.04488e-13 0)
(664 -3.11229e-13 0)
(664 -1.9814e-13 0)
(664 2.13546e-15 0)
(664 2.70273e-13 0)
(664 5.74147e-13 0)
(664 1.02353e-12 0)
(664 1.74207e-12 0)
(664 2.90081e-12 0)
(664 4.76005e-12 0)
(664 7.75743e-12 0)
(664 1.26711e-11 0)
(664 2.06648e-11 0)
(664 3.36988e-11 0)
(664 5.50412e-11 0)
(664 9.0231e-11 0)
(664 1.48384e-10 0)
(664 2.44188e-10 0)
(664 4.02015e-10 0)
(664 6.62129e-10 0)
(664 1.09082e-09 0)
(664 1.79713e-09 0)
(664 2.9608e-09 0)
(664 4.87786e-09 0)
(664 8.03598e-09 0)
(664 1.32385e-08 0)
(664 2.18087e-08 0)
(664 3.59268e-08 0)
(664 5.91836e-08 0)
(664 9.74944e-08 0)
(664 1.60602e-07 0)
(664 2.64555e-07 0)
(664 4.35783e-07 0)
(664 7.17813e-07 0)
(664 1.18232e-06 0)
(664 1.94731e-06 0)
(664 3.20708e-06 0)
(664 5.28145e-06 0)
(664 8.69675e-06 0)
(664 1.43191e-05 0)
(664 2.35734e-05 0)
(664 3.8803e-05 0)
(664 6.38609e-05 0)
(664 0.000105081 0)
(663.999 0.000172867 0)
(663.999 0.000284311 0)
(663.998 0.000467466 0)
(663.997 0.000768359 0)
(663.995 0.00126246 0)
(663.992 0.00207343 0)
(663.987 0.00340374 0)
(663.98 0.00558461 0)
(663.967 0.00915736 0)
(663.947 0.0150057 0)
(663.916 0.0245707 0)
(663.865 0.0401985 0)
(663.785 0.0657035 0)
(663.657 0.107275 0)
(663.454 0.174934 0)
(663.131 0.284862 0)
(662.62 0.463114 0)
(661.813 0.751416 0)
(660.541 1.21639 0)
(658.542 1.96292 0)
(655.428 3.15606 0)
(650.575 5.04315 0)
(643.45 8.00452 0)
(664 1.97545e-14 0)
(664 4.09418e-14 0)
(664 6.24472e-14 0)
(664 1.06442e-13 0)
(664 1.6764e-13 0)
(664 1.77565e-13 0)
(664 1.79635e-13 0)
(664 1.83654e-13 0)
(664 2.21258e-13 0)
(664 2.14323e-13 0)
(664 1.68277e-13 0)
(664 1.03599e-13 0)
(664 5.67993e-14 0)
(664 1.75727e-15 0)
(664 -1.51275e-14 0)
(664 -5.3619e-14 0)
(664 -7.97947e-14 0)
(664 -4.17896e-14 0)
(664 1.28714e-13 0)
(664 2.40861e-13 0)
(664 2.85027e-13 0)
(664 3.47491e-13 0)
(664 4.30888e-13 0)
(664 3.95116e-13 0)
(664 2.53493e-13 0)
(664 1.6514e-13 0)
(664 1.29809e-13 0)
(664 8.74746e-14 0)
(664 2.53777e-14 0)
(664 -6.14964e-14 0)
(664 -1.84576e-13 0)
(664 -3.126e-13 0)
(664 -3.68984e-13 0)
(664 -2.97595e-13 0)
(664 -2.01562e-13 0)
(664 -1.28069e-13 0)
(664 -9.01212e-14 0)
(664 -1.03043e-13 0)
(664 -1.06728e-13 0)
(664 -1.25015e-13 0)
(664 -2.25717e-13 0)
(664 -3.71754e-13 0)
(664 -4.67627e-13 0)
(664 -4.88786e-13 0)
(664 -5.04883e-13 0)
(664 -5.26005e-13 0)
(664 -6.28785e-13 0)
(664 -7.18412e-13 0)
(664 -7.71952e-13 0)
(664 -7.81934e-13 0)
(664 -7.02752e-13 0)
(664 -5.2084e-13 0)
(664 -3.30535e-13 0)
(664 -2.58331e-13 0)
(664 -2.7766e-13 0)
(664 -3.55957e-13 0)
(664 -4.31933e-13 0)
(664 -5.0662e-13 0)
(664 -6.18581e-13 0)
(664 -7.81561e-13 0)
(664 -1.0179e-12 0)
(664 -1.20125e-12 0)
(664 -1.27395e-12 0)
(664 -1.30617e-12 0)
(664 -1.32098e-12 0)
(664 -1.28263e-12 0)
(664 -1.22261e-12 0)
(664 -1.12225e-12 0)
(664 -1.11788e-12 0)
(664 -1.10642e-12 0)
(664 -1.06158e-12 0)
(664 -1.074e-12 0)
(664 -1.19815e-12 0)
(664 -1.32371e-12 0)
(664 -1.30276e-12 0)
(664 -1.14533e-12 0)
(664 -1.02817e-12 0)
(664 -9.17457e-13 0)
(664 -8.76523e-13 0)
(664 -8.97674e-13 0)
(664 -8.2654e-13 0)
(664 -7.32853e-13 0)
(664 -6.96936e-13 0)
(664 -7.2991e-13 0)
(664 -7.41082e-13 0)
(664 -7.26635e-13 0)
(664 -7.85277e-13 0)
(664 -9.0458e-13 0)
(664 -1.05446e-12 0)
(664 -1.18519e-12 0)
(664 -1.24214e-12 0)
(664 -1.22012e-12 0)
(664 -1.14815e-12 0)
(664 -1.06019e-12 0)
(664 -9.97251e-13 0)
(664 -8.58037e-13 0)
(664 -6.11873e-13 0)
(664 -4.26734e-13 0)
(664 -4.22392e-13 0)
(664 -5.19072e-13 0)
(664 -6.47772e-13 0)
(664 -7.93999e-13 0)
(664 -9.76717e-13 0)
(664 -1.18186e-12 0)
(664 -1.31035e-12 0)
(664 -1.30771e-12 0)
(664 -1.17844e-12 0)
(664 -1.01677e-12 0)
(664 -9.53108e-13 0)
(664 -8.57059e-13 0)
(664 -7.3e-13 0)
(664 -6.88545e-13 0)
(664 -6.89876e-13 0)
(664 -6.19535e-13 0)
(664 -5.126e-13 0)
(664 -4.71709e-13 0)
(664 -5.45627e-13 0)
(664 -7.2481e-13 0)
(664 -8.89375e-13 0)
(664 -9.93058e-13 0)
(664 -1.08496e-12 0)
(664 -1.17476e-12 0)
(664 -1.18669e-12 0)
(664 -1.2676e-12 0)
(664 -1.43446e-12 0)
(664 -1.61786e-12 0)
(664 -1.79941e-12 0)
(664 -1.92451e-12 0)
(664 -1.94659e-12 0)
(664 -1.85546e-12 0)
(664 -1.74116e-12 0)
(664 -1.6294e-12 0)
(664 -1.50939e-12 0)
(664 -1.37531e-12 0)
(664 -1.28167e-12 0)
(664 -1.21705e-12 0)
(664 -9.8058e-13 0)
(664 -6.38311e-13 0)
(664 -4.09878e-13 0)
(664 -3.90043e-13 0)
(664 -3.56195e-13 0)
(664 -3.27542e-13 0)
(664 -3.24168e-13 0)
(664 -2.42974e-13 0)
(664 -9.75004e-14 0)
(664 1.50422e-14 0)
(664 -1.49896e-14 0)
(664 -9.13814e-14 0)
(664 -1.06691e-13 0)
(664 -1.08715e-13 0)
(664 -2.36855e-13 0)
(664 -5.34697e-13 0)
(664 -8.2275e-13 0)
(664 -1.06405e-12 0)
(664 -1.1273e-12 0)
(664 -1.15777e-12 0)
(664 -1.19166e-12 0)
(664 -1.16532e-12 0)
(664 -1.12967e-12 0)
(664 -1.13924e-12 0)
(664 -1.22258e-12 0)
(664 -1.29306e-12 0)
(664 -1.26061e-12 0)
(664 -1.23498e-12 0)
(664 -1.23536e-12 0)
(664 -1.29399e-12 0)
(664 -1.35827e-12 0)
(664 -1.30539e-12 0)
(664 -1.15884e-12 0)
(664 -9.91043e-13 0)
(664 -8.54784e-13 0)
(664 -7.60471e-13 0)
(664 -6.38867e-13 0)
(664 -4.70837e-13 0)
(664 -2.61278e-13 0)
(664 -9.99429e-14 0)
(664 -9.82565e-15 0)
(664 -1.36937e-14 0)
(664 -1.23538e-13 0)
(664 -2.07812e-13 0)
(664 -1.78743e-13 0)
(664 -2.29717e-14 0)
(664 1.76934e-13 0)
(664 3.55786e-13 0)
(664 4.99492e-13 0)
(664 5.71398e-13 0)
(664 6.04841e-13 0)
(664 6.45097e-13 0)
(664 7.06335e-13 0)
(664 7.47546e-13 0)
(664 6.53387e-13 0)
(664 5.50211e-13 0)
(664 4.93941e-13 0)
(664 4.62596e-13 0)
(664 3.19381e-13 0)
(664 7.23793e-14 0)
(664 -1.96707e-13 0)
(664 -4.75462e-13 0)
(664 -7.30313e-13 0)
(664 -8.95762e-13 0)
(664 -9.04e-13 0)
(664 -8.53049e-13 0)