/*--------------------------------*- C++ -*----------------------------------*\
| =========                 |                                                 |
| \\      /  F ield         | OpenFOAM: The Open Source CFD Toolbox           |
|  \\    /   O peration     | Version:  2412                                  |
|   \\  /    A nd           | Website:  www.openfoam.com                      |
|    \\/     M anipulation  |                                                 |
\*---------------------------------------------------------------------------*/
FoamFile
{
    version     2.0;
    format      ascii;
    arch        "LSB;label=32;scalar=64";
    class       volVectorField;
    location    "0.002";
    object      U_0;
}
// * * * * * * * * * * * * * * * * * * * * * * * * * * * * * * * * * * * * * //

dimensions      [0 1 -1 0 0 0 0];

internalField   nonuniform List<vector> 
180000
(
(664 -1.25715e-14 0)
(664 -8.91164e-15 0)
(664 1.15226e-14 0)
(664 1.00492e-14 0)
(664 1.56361e-15 0)
(664 -3.40827e-14 0)
(664 -6.81422e-14 0)
(664 -1.08978e-13 0)
(664 -1.44772e-13 0)
(664 -1.84719e-13 0)
(664 -1.98073e-13 0)
(664 -2.11707e-13 0)
(664 -2.13396e-13 0)
(664 -1.8706e-13 0)
(664 -1.56932e-13 0)
(664 -1.42671e-13 0)
(664 -1.51192e-13 0)
(664 -1.64074e-13 0)
(664 -1.79193e-13 0)
(664 -1.80649e-13 0)
(664 -1.59686e-13 0)
(664 -1.37541e-13 0)
(664 -1.14767e-13 0)
(664 -8.35183e-14 0)
(664 -6.35639e-14 0)
(664 -4.25574e-14 0)
(664 -4.34001e-14 0)
(664 -4.40485e-14 0)
(664 -5.67872e-14 0)
(664 -7.87681e-14 0)
(664 -9.67592e-14 0)
(664 -1.182e-13 0)
(664 -1.5515e-13 0)
(664 -1.90122e-13 0)
(664 -2.02776e-13 0)
(664 -2.26745e-13 0)
(664 -2.37544e-13 0)
(664 -2.4355e-13 0)
(664 -2.58589e-13 0)
(664 -2.77573e-13 0)
(664 -2.89816e-13 0)
(664 -3.1008e-13 0)
(664 -3.10163e-13 0)
(664 -3.02125e-13 0)
(664 -3.04053e-13 0)
(664 -3.26095e-13 0)
(664 -3.49181e-13 0)
(664 -3.57288e-13 0)
(664 -3.70316e-13 0)
(664 -3.47097e-13 0)
(664 -3.1047e-13 0)
(664 -2.76377e-13 0)
(664 -2.20934e-13 0)
(664 -1.62857e-13 0)
(664 -9.61218e-14 0)
(664 -3.8473e-14 0)
(664 -1.61389e-14 0)
(664 -3.32668e-14 0)
(664 -3.4381e-14 0)
(664 -2.44384e-14 0)
(664 3.99013e-15 0)
(664 4.34024e-14 0)
(664 4.79751e-14 0)
(664 2.39702e-14 0)
(664 -3.21948e-15 0)
(664 -6.70036e-14 0)
(664 -1.37085e-13 0)
(664 -2.20489e-13 0)
(664 -3.13301e-13 0)
(664 -3.81016e-13 0)
(664 -4.36885e-13 0)
(664 -4.95366e-13 0)
(664 -5.4087e-13 0)
(664 -5.63249e-13 0)
(664 -5.65421e-13 0)
(664 -5.38133e-13 0)
(664 -5.1363e-13 0)
(664 -5.10553e-13 0)
(664 -5.19939e-13 0)
(664 -5.56016e-13 0)
(664 -6.16495e-13 0)
(664 -7.01431e-13 0)
(664 -7.7445e-13 0)
(664 -8.38253e-13 0)
(664 -8.82634e-13 0)
(664 -8.90143e-13 0)
(664 -8.77181e-13 0)
(664 -8.61481e-13 0)
(664 -8.33041e-13 0)
(664 -8.04314e-13 0)
(664 -7.77615e-13 0)
(664 -7.45222e-13 0)
(664 -7.2316e-13 0)
(664 -7.21043e-13 0)
(664 -7.19722e-13 0)
(664 -7.2169e-13 0)
(664 -7.14205e-13 0)
(664 -6.95516e-13 0)
(664 -6.8679e-13 0)
(664 -6.74069e-13 0)
(664 -6.4171e-13 0)
(664 -6.20566e-13 0)
(664 -5.84507e-13 0)
(664 -5.33347e-13 0)
(664 -4.90077e-13 0)
(664 -4.35634e-13 0)
(664 -3.58573e-13 0)
(664 -3.0097e-13 0)
(664 -2.3829e-13 0)
(664 -1.95256e-13 0)
(664 -2.12088e-13 0)
(664 -2.56028e-13 0)
(664 -3.17061e-13 0)
(664 -3.69024e-13 0)
(664 -4.13144e-13 0)
(664 -4.37766e-13 0)
(664 -4.74929e-13 0)
(664 -4.82941e-13 0)
(664 -4.76607e-13 0)
(664 -4.58561e-13 0)
(664 -4.23483e-13 0)
(664 -4.01556e-13 0)
(664 -3.82809e-13 0)
(664 -3.78964e-13 0)
(664 -3.90418e-13 0)
(664 -4.1305e-13 0)
(664 -4.46759e-13 0)
(664 -4.75933e-13 0)
(664 -5.27334e-13 0)
(664 -5.8485e-13 0)
(664 -6.61011e-13 0)
(664 -7.42657e-13 0)
(664 -7.95443e-13 0)
(664 -8.15201e-13 0)
(664 -8.16949e-13 0)
(664 -7.92537e-13 0)
(664 -7.69316e-13 0)
(664 -7.43545e-13 0)
(664 -7.04598e-13 0)
(664 -6.66748e-13 0)
(664 -6.52141e-13 0)
(664 -6.43035e-13 0)
(664 -6.35674e-13 0)
(664 -6.24467e-13 0)
(664 -6.16875e-13 0)
(664 -6.13138e-13 0)
(664 -6.07693e-13 0)
(664 -5.83186e-13 0)
(664 -5.4195e-13 0)
(664 -5.00761e-13 0)
(664 -4.83155e-13 0)
(664 -4.80543e-13 0)
(664 -4.94756e-13 0)
(664 -5.07026e-13 0)
(664 -5.26175e-13 0)
(664 -5.4495e-13 0)
(664 -5.46567e-13 0)
(664 -5.37024e-13 0)
(664 -5.26483e-13 0)
(664 -5.08369e-13 0)
(664 -4.98651e-13 0)
(664 -4.95066e-13 0)
(664 -4.98939e-13 0)
(664 -5.0654e-13 0)
(664 -5.31238e-13 0)
(664 -5.45044e-13 0)
(664 -5.57833e-13 0)
(664 -5.87241e-13 0)
(664 -6.1011e-13 0)
(664 -6.32226e-13 0)
(664 -6.53637e-13 0)
(664 -6.40755e-13 0)
(664 -6.3418e-13 0)
(664 -6.10361e-13 0)
(664 -5.97343e-13 0)
(664 -6.01141e-13 0)
(664 -6.15105e-13 0)
(664 -6.45294e-13 0)
(664 -6.74184e-13 0)
(664 -6.91183e-13 0)
(664 -6.88877e-13 0)
(664 -6.67836e-13 0)
(664 -6.61658e-13 0)
(664 -6.29406e-13 0)
(664 -6.01344e-13 0)
(664 -5.91553e-13 0)
(664 -5.95624e-13 0)
(664 -6.1026e-13 0)
(664 -6.08719e-13 0)
(664 -5.89879e-13 0)
(664 -5.79583e-13 0)
(664 -5.70673e-13 0)
(664 -5.58553e-13 0)
(664 -5.59311e-13 0)
(664 -5.41286e-13 0)
(664 -5.13555e-13 0)
(664 -4.83512e-13 0)
(664 -4.78227e-13 0)
(664 -4.62643e-13 0)
(664 -4.45878e-13 0)
(664 -4.36983e-13 0)
(664 -4.36806e-13 0)
(664 -4.5475e-13 0)
(664 -4.79851e-13 0)
(664 -5.01323e-13 0)
(664 -5.25629e-13 0)
(664 -5.3216e-13 0)
(664 -5.15839e-13 0)
(664 -4.88356e-13 0)
(664 -4.50156e-13 0)
(664 -4.14461e-13 0)
(664 -3.86044e-13 0)
(664 -3.72041e-13 0)
(664 -3.76302e-13 0)
(664 -3.86725e-13 0)
(664 -4.10523e-13 0)
(664 -4.29546e-13 0)
(664 -4.34985e-13 0)
(664 -4.44544e-13 0)
(664 -4.45975e-13 0)
(664 -4.73743e-13 0)
(664 -5.32094e-13 0)
(664 -5.9737e-13 0)
(664 -6.58533e-13 0)
(664 -6.95297e-13 0)
(664 -7.24647e-13 0)
(664 -7.40452e-13 0)
(664 -7.67377e-13 0)
(664 -7.79421e-13 0)
(664 -7.68503e-13 0)
(664 -7.78447e-13 0)
(664 -7.5673e-13 0)
(664 -7.40636e-13 0)
(664 -7.26623e-13 0)
(664 -7.08291e-13 0)
(664 -6.87084e-13 0)
(664 -6.79783e-13 0)
(664 -6.48713e-13 0)
(664 -5.83977e-13 0)
(664 -5.03714e-13 0)
(664 -3.81241e-13 0)
(664 -2.21068e-13 0)
(664 1.43089e-14 0)
(664 3.71065e-13 0)
(664 9.66868e-13 0)
(664 1.9668e-12 0)
(664 3.64465e-12 0)
(664 6.4673e-12 0)
(664 1.11758e-11 0)
(664 1.907e-11 0)
(664 3.23236e-11 0)
(664 5.45883e-11 0)
(664 9.19885e-11 0)
(664 1.54848e-10 0)
(664 2.60543e-10 0)
(664 4.38347e-10 0)
(664 7.3768e-10 0)
(664 1.24187e-09 0)
(664 2.09182e-09 0)
(664 3.52567e-09 0)
(664 5.94668e-09 0)
(664 1.00374e-08 0)
(664 1.6956e-08 0)
(664 2.86665e-08 0)
(664 4.85078e-08 0)
(664 8.21546e-08 0)
(664 1.39275e-07 0)
(664 2.36336e-07 0)
(664 4.01463e-07 0)
(664 6.82676e-07 0)
(664 1.16219e-06 0)
(664 1.98077e-06 0)
(664 3.38005e-06 0)
(664 5.7749e-06 0)
(664 9.87964e-06 0)
(664 1.69243e-05 0)
(663.999 2.90333e-05 0)
(663.999 4.98766e-05 0)
(663.998 8.58132e-05 0)
(663.997 0.000147865 0)
(663.995 0.000255196 0)
(663.992 0.000441138 0)
(663.986 0.000763851 0)
(663.977 0.00132486 0)
(663.962 0.00230197 0)
(663.936 0.00400669 0)
(663.894 0.00698662 0)
(663.824 0.0122047 0)
(663.706 0.0213605 0)
(663.51 0.037453 0)
(663.182 0.0657981 0)
(662.632 0.115801 0)
(661.712 0.204225 0)
(660.169 0.360789 0)
(657.581 0.639012 0)
(653.242 1.133 0)
(645.996 2.01456 0)
(633.831 3.57881 0)
(613.702 6.40053 0)
(581.853 11.3702 0)
(664 5.64981e-15 0)
(664 8.93343e-15 0)
(664 1.91056e-14 0)
(664 2.28422e-14 0)
(664 1.82747e-14 0)
(664 3.54926e-15 0)
(664 -3.8844e-14 0)
(664 -7.17974e-14 0)
(664 -1.1273e-13 0)
(664 -1.5436e-13 0)
(664 -1.87167e-13 0)
(664 -2.36732e-13 0)
(664 -2.71872e-13 0)
(664 -3.07035e-13 0)
(664 -3.40374e-13 0)
(664 -3.65287e-13 0)
(664 -3.84067e-13 0)
(664 -4.09806e-13 0)
(664 -4.42089e-13 0)
(664 -4.66444e-13 0)
(664 -4.80468e-13 0)
(664 -4.76666e-13 0)
(664 -4.5257e-13 0)
(664 -4.28839e-13 0)
(664 -3.79312e-13 0)
(664 -3.56108e-13 0)
(664 -3.22764e-13 0)
(664 -2.97911e-13 0)
(664 -2.76818e-13 0)
(664 -2.64653e-13 0)
(664 -2.54279e-13 0)
(664 -2.5086e-13 0)
(664 -2.30581e-13 0)
(664 -2.16165e-13 0)
(664 -2.11585e-13 0)
(664 -1.95723e-13 0)
(664 -1.98995e-13 0)
(664 -1.87239e-13 0)
(664 -1.85509e-13 0)
(664 -1.97016e-13 0)
(664 -2.2438e-13 0)
(664 -2.63335e-13 0)
(664 -2.8147e-13 0)
(664 -2.93634e-13 0)
(664 -3.00429e-13 0)
(664 -3.18434e-13 0)
(664 -3.16744e-13 0)
(664 -2.97258e-13 0)
(664 -2.96629e-13 0)
(664 -2.85604e-13 0)
(664 -2.88567e-13 0)
(664 -3.13086e-13 0)
(664 -3.29585e-13 0)
(664 -3.38307e-13 0)
(664 -3.39554e-13 0)
(664 -3.22951e-13 0)
(664 -3.41322e-13 0)
(664 -3.38652e-13 0)
(664 -3.41392e-13 0)
(664 -3.48066e-13 0)
(664 -3.37775e-13 0)
(664 -3.29416e-13 0)
(664 -3.29577e-13 0)
(664 -3.25977e-13 0)
(664 -3.35884e-13 0)
(664 -3.59852e-13 0)
(664 -3.86195e-13 0)
(664 -4.39082e-13 0)
(664 -4.93674e-13 0)
(664 -5.48621e-13 0)
(664 -5.85727e-13 0)
(664 -6.15688e-13 0)
(664 -6.60537e-13 0)
(664 -6.98975e-13 0)
(664 -7.27026e-13 0)
(664 -7.44415e-13 0)
(664 -7.47769e-13 0)
(664 -7.58673e-13 0)
(664 -7.83144e-13 0)
(664 -8.07517e-13 0)
(664 -8.46494e-13 0)
(664 -8.85459e-13 0)
(664 -8.93216e-13 0)
(664 -8.82133e-13 0)
(664 -8.41152e-13 0)
(664 -7.8221e-13 0)
(664 -7.26431e-13 0)
(664 -6.87803e-13 0)
(664 -6.6685e-13 0)
(664 -6.63089e-13 0)
(664 -6.68494e-13 0)
(664 -6.72956e-13 0)
(664 -6.9224e-13 0)
(664 -7.07113e-13 0)
(664 -7.33229e-13 0)
(664 -7.46457e-13 0)
(664 -7.48881e-13 0)
(664 -7.50387e-13 0)
(664 -7.48847e-13 0)
(664 -7.46899e-13 0)
(664 -7.54169e-13 0)
(664 -7.817e-13 0)
(664 -8.04149e-13 0)
(664 -8.10458e-13 0)
(664 -8.1236e-13 0)
(664 -7.87114e-13 0)
(664 -7.61577e-13 0)
(664 -7.3137e-13 0)
(664 -6.89933e-13 0)
(664 -6.52241e-13 0)
(664 -6.21346e-13 0)
(664 -6.19126e-13 0)
(664 -6.31658e-13 0)
(664 -6.74579e-13 0)
(664 -7.0974e-13 0)
(664 -7.5418e-13 0)
(664 -7.98948e-13 0)
(664 -8.37932e-13 0)
(664 -8.48313e-13 0)
(664 -8.52989e-13 0)
(664 -8.47957e-13 0)
(664 -8.29669e-13 0)
(664 -8.1936e-13 0)
(664 -7.89823e-13 0)
(664 -7.63385e-13 0)
(664 -7.35126e-13 0)
(664 -7.09154e-13 0)
(664 -6.92816e-13 0)
(664 -6.89864e-13 0)
(664 -7.05961e-13 0)
(664 -7.41352e-13 0)
(664 -7.85856e-13 0)
(664 -8.0117e-13 0)
(664 -8.09145e-13 0)
(664 -8.15552e-13 0)
(664 -8.25483e-13 0)
(664 -8.1984e-13 0)
(664 -8.12486e-13 0)
(664 -8.0097e-13 0)
(664 -8.14393e-13 0)
(664 -8.77789e-13 0)
(664 -9.50537e-13 0)
(664 -1.01064e-12 0)
(664 -1.0531e-12 0)
(664 -1.0791e-12 0)
(664 -1.10282e-12 0)
(664 -1.11983e-12 0)
(664 -1.11608e-12 0)
(664 -1.11808e-12 0)
(664 -1.13147e-12 0)
(664 -1.14964e-12 0)
(664 -1.17492e-12 0)
(664 -1.18076e-12 0)
(664 -1.14782e-12 0)
(664 -1.09933e-12 0)
(664 -1.02092e-12 0)
(664 -9.45135e-13 0)
(664 -8.68712e-13 0)
(664 -8.01751e-13 0)
(664 -7.25193e-13 0)
(664 -6.54988e-13 0)
(664 -6.04557e-13 0)
(664 -5.60919e-13 0)
(664 -5.04084e-13 0)
(664 -4.48689e-13 0)
(664 -4.21921e-13 0)
(664 -4.16669e-13 0)
(664 -4.3211e-13 0)
(664 -4.504e-13 0)
(664 -4.69266e-13 0)
(664 -4.80469e-13 0)
(664 -4.78971e-13 0)
(664 -4.7816e-13 0)
(664 -4.68454e-13 0)
(664 -4.51256e-13 0)
(664 -4.49602e-13 0)
(664 -4.74492e-13 0)
(664 -5.11597e-13 0)
(664 -5.57505e-13 0)
(664 -5.91523e-13 0)
(664 -6.16834e-13 0)
(664 -6.45667e-13 0)
(664 -6.62608e-13 0)
(664 -6.77351e-13 0)
(664 -6.78854e-13 0)
(664 -6.72306e-13 0)
(664 -6.57946e-13 0)
(664 -6.49077e-13 0)
(664 -6.49823e-13 0)
(664 -6.30474e-13 0)
(664 -6.03949e-13 0)
(664 -5.86277e-13 0)
(664 -5.80779e-13 0)
(664 -5.81921e-13 0)
(664 -5.93703e-13 0)
(664 -5.9729e-13 0)
(664 -5.85484e-13 0)
(664 -5.78144e-13 0)
(664 -5.60917e-13 0)
(664 -5.41341e-13 0)
(664 -5.008e-13 0)
(664 -4.57677e-13 0)
(664 -4.25632e-13 0)
(664 -3.98295e-13 0)
(664 -3.52353e-13 0)
(664 -3.12778e-13 0)
(664 -2.79224e-13 0)
(664 -2.45396e-13 0)
(664 -2.23665e-13 0)
(664 -2.23573e-13 0)
(664 -2.30148e-13 0)
(664 -2.40874e-13 0)
(664 -2.40161e-13 0)
(664 -2.29325e-13 0)
(664 -2.31211e-13 0)
(664 -2.45619e-13 0)
(664 -2.55832e-13 0)
(664 -2.68711e-13 0)
(664 -2.90031e-13 0)
(664 -3.08697e-13 0)
(664 -3.26936e-13 0)
(664 -3.80322e-13 0)
(664 -4.41752e-13 0)
(664 -4.93119e-13 0)
(664 -5.42907e-13 0)
(664 -5.88344e-13 0)
(664 -6.42495e-13 0)
(664 -7.11853e-13 0)
(664 -7.79857e-13 0)
(664 -8.24658e-13 0)
(664 -8.67394e-13 0)
(664 -8.79914e-13 0)
(664 -8.79123e-13 0)
(664 -8.60731e-13 0)
(664 -8.2784e-13 0)
(664 -7.80878e-13 0)
(664 -7.324e-13 0)
(664 -6.76833e-13 0)
(664 -6.02471e-13 0)
(664 -4.70022e-13 0)
(664 -2.72388e-13 0)
(664 6.01312e-14 0)
(664 6.08486e-13 0)
(664 1.52765e-12 0)
(664 3.1311e-12 0)
(664 5.87397e-12 0)
(664 1.05144e-11 0)
(664 1.83007e-11 0)
(664 3.13385e-11 0)
(664 5.31551e-11 0)
(664 8.96859e-11 0)
(664 1.50886e-10 0)
(664 2.53429e-10 0)
(664 4.25253e-10 0)
(664 7.13303e-10 0)
(664 1.19639e-09 0)
(664 2.00704e-09 0)
(664 3.3679e-09 0)
(664 5.65386e-09 0)
(664 9.49539e-09 0)
(664 1.59553e-08 0)
(664 2.68231e-08 0)
(664 4.51193e-08 0)
(664 7.59366e-08 0)
(664 1.27881e-07 0)
(664 2.15484e-07 0)
(664 3.63336e-07 0)
(664 6.13016e-07 0)
(664 1.035e-06 0)
(664 1.74862e-06 0)
(664 2.95648e-06 0)
(664 5.00221e-06 0)
(664 8.47015e-06 0)
(664 1.43532e-05 0)
(664 2.43427e-05 0)
(664 4.13179e-05 0)
(663.999 7.01926e-05 0)
(663.999 0.000119348 0)
(663.998 0.000203115 0)
(663.997 0.000345989 0)
(663.996 0.000589943 0)
(663.993 0.00100686 0)
(663.988 0.0017202 0)
(663.981 0.00294185 0)
(663.969 0.00503655 0)
(663.948 0.00863174 0)
(663.915 0.01481 0)
(663.86 0.0254377 0)
(663.77 0.0437432 0)
(663.622 0.0753049 0)
(663.379 0.129796 0)
(662.981 0.223957 0)
(662.329 0.386902 0)
(661.264 0.669048 0)
(659.527 1.15854 0)
(656.705 2.00679 0)
(652.148 3.47896 0)
(644.841 6.01802 0)
(633.183 10.4228 0)
(615.955 17.8876 0)
(664 2.03126e-14 0)
(664 2.56665e-14 0)
(664 3.56343e-14 0)
(664 3.72238e-14 0)
(664 4.67681e-14 0)
(664 5.80889e-14 0)
(664 5.8573e-14 0)
(664 5.84216e-14 0)
(664 3.46195e-14 0)
(664 2.72091e-14 0)
(664 2.11235e-14 0)
(664 2.91711e-14 0)
(664 4.43537e-14 0)
(664 4.41577e-14 0)
(664 4.25566e-14 0)
(664 4.28691e-14 0)
(664 3.65586e-14 0)
(664 4.34714e-14 0)
(664 5.42178e-14 0)
(664 6.3111e-14 0)
(664 6.1651e-14 0)
(664 5.54008e-14 0)
(664 5.03151e-14 0)
(664 2.99696e-14 0)
(664 1.3217e-14 0)
(664 -8.75669e-15 0)
(664 -6.32775e-14 0)
(664 -9.43802e-14 0)
(664 -1.16758e-13 0)
(664 -1.43758e-13 0)
(664 -1.66984e-13 0)
(664 -1.83979e-13 0)
(664 -2.12145e-13 0)
(664 -2.50548e-13 0)
(664 -3.02497e-13 0)
(664 -3.53812e-13 0)
(664 -3.90646e-13 0)
(664 -4.3787e-13 0)
(664 -4.80693e-13 0)
(664 -5.19306e-13 0)
(664 -5.4962e-13 0)
(664 -5.97275e-13 0)
(664 -6.31921e-13 0)
(664 -6.76954e-13 0)
(664 -6.99992e-13 0)
(664 -6.86417e-13 0)
(664 -6.81367e-13 0)
(664 -6.74811e-13 0)
(664 -6.61486e-13 0)
(664 -6.76083e-13 0)
(664 -6.90019e-13 0)
(664 -7.25445e-13 0)
(664 -7.79601e-13 0)
(664 -8.34021e-13 0)
(664 -8.75888e-13 0)
(664 -8.96947e-13 0)
(664 -8.72842e-13 0)
(664 -8.06645e-13 0)
(664 -7.12128e-13 0)
(664 -6.15468e-13 0)
(664 -5.32453e-13 0)
(664 -4.71344e-13 0)
(664 -4.2542e-13 0)
(664 -3.66775e-13 0)
(664 -2.926e-13 0)
(664 -2.30624e-13 0)
(664 -1.95867e-13 0)
(664 -1.69851e-13 0)
(664 -1.63992e-13 0)
(664 -1.61464e-13 0)
(664 -1.44211e-13 0)
(664 -1.39655e-13 0)
(664 -1.51991e-13 0)
(664 -1.59339e-13 0)
(664 -2.07669e-13 0)
(664 -2.48653e-13 0)
(664 -3.03759e-13 0)
(664 -3.48232e-13 0)
(664 -3.89755e-13 0)
(664 -4.42718e-13 0)
(664 -4.90718e-13 0)
(664 -5.46283e-13 0)
(664 -6.08011e-13 0)
(664 -6.58608e-13 0)
(664 -7.23394e-13 0)
(664 -7.81912e-13 0)
(664 -8.4169e-13 0)
(664 -8.95591e-13 0)
(664 -9.66191e-13 0)
(664 -1.03485e-12 0)
(664 -1.09664e-12 0)
(664 -1.11682e-12 0)
(664 -1.13275e-12 0)
(664 -1.12523e-12 0)
(664 -1.10788e-12 0)
(664 -1.10776e-12 0)
(664 -1.09123e-12 0)
(664 -1.08281e-12 0)
(664 -1.06231e-12 0)
(664 -1.03633e-12 0)
(664 -1.00862e-12 0)
(664 -9.99937e-13 0)
(664 -1.00363e-12 0)
(664 -1.01005e-12 0)
(664 -1.02562e-12 0)
(664 -1.00379e-12 0)
(664 -9.86484e-13 0)
(664 -9.59492e-13 0)
(664 -9.10519e-13 0)
(664 -8.54968e-13 0)
(664 -8.00158e-13 0)
(664 -7.3447e-13 0)
(664 -6.87449e-13 0)
(664 -6.70885e-13 0)
(664 -6.68384e-13 0)
(664 -6.76907e-13 0)
(664 -6.88792e-13 0)
(664 -7.09239e-13 0)
(664 -7.44174e-13 0)
(664 -7.78082e-13 0)
(664 -8.07121e-13 0)
(664 -8.51008e-13 0)
(664 -8.95605e-13 0)
(664 -9.40072e-13 0)
(664 -9.78327e-13 0)
(664 -1.00517e-12 0)
(664 -1.03015e-12 0)
(664 -1.02314e-12 0)
(664 -1.00373e-12 0)
(664 -9.73796e-13 0)
(664 -9.07134e-13 0)
(664 -8.20495e-13 0)
(664 -7.41227e-13 0)
(664 -6.56657e-13 0)
(664 -5.94409e-13 0)
(664 -5.67036e-13 0)
(664 -5.6998e-13 0)
(664 -6.06394e-13 0)
(664 -6.48158e-13 0)
(664 -6.93282e-13 0)
(664 -7.26616e-13 0)
(664 -7.55617e-13 0)
(664 -7.62947e-13 0)
(664 -7.62619e-13 0)
(664 -7.76672e-13 0)
(664 -8.10149e-13 0)
(664 -8.72475e-13 0)
(664 -9.60928e-13 0)
(664 -1.05188e-12 0)
(664 -1.14048e-12 0)
(664 -1.20406e-12 0)
(664 -1.22632e-12 0)
(664 -1.22122e-12 0)
(664 -1.22404e-12 0)
(664 -1.22984e-12 0)
(664 -1.23881e-12 0)
(664 -1.25488e-12 0)
(664 -1.26971e-12 0)
(664 -1.27278e-12 0)
(664 -1.27666e-12 0)
(664 -1.26274e-12 0)
(664 -1.23658e-12 0)
(664 -1.18807e-12 0)
(664 -1.12411e-12 0)
(664 -1.06677e-12 0)
(664 -1.00041e-12 0)
(664 -9.33218e-13 0)
(664 -8.47666e-13 0)
(664 -7.78653e-13 0)
(664 -7.31205e-13 0)
(664 -6.9524e-13 0)
(664 -6.62664e-13 0)
(664 -6.17666e-13 0)
(664 -5.72242e-13 0)
(664 -5.20462e-13 0)
(664 -4.75713e-13 0)
(664 -4.60071e-13 0)
(664 -4.39854e-13 0)
(664 -4.38022e-13 0)
(664 -4.47156e-13 0)
(664 -4.82147e-13 0)
(664 -5.18282e-13 0)
(664 -5.40097e-13 0)
(664 -5.63149e-13 0)
(664 -5.52719e-13 0)
(664 -5.18887e-13 0)
(664 -4.67496e-13 0)
(664 -4.40411e-13 0)
(664 -4.30445e-13 0)
(664 -4.30608e-13 0)
(664 -4.25823e-13 0)
(664 -4.05154e-13 0)
(664 -3.76656e-13 0)
(664 -3.34466e-13 0)
(664 -2.96709e-13 0)
(664 -2.63599e-13 0)
(664 -2.27149e-13 0)
(664 -1.98287e-13 0)
(664 -1.88549e-13 0)
(664 -1.67935e-13 0)
(664 -1.6225e-13 0)
(664 -1.34744e-13 0)
(664 -1.01919e-13 0)
(664 -5.12393e-14 0)
(664 9.28869e-15 0)
(664 5.02323e-14 0)
(664 5.25145e-14 0)
(664 3.51687e-14 0)
(664 4.98563e-15 0)
(664 -4.68742e-14 0)
(664 -9.17742e-14 0)
(664 -1.29597e-13 0)
(664 -1.56121e-13 0)
(664 -1.65648e-13 0)
(664 -1.71876e-13 0)
(664 -1.70428e-13 0)
(664 -1.70933e-13 0)
(664 -1.97997e-13 0)
(664 -2.179e-13 0)
(664 -2.39556e-13 0)
(664 -2.73521e-13 0)
(664 -3.01481e-13 0)
(664 -3.14317e-13 0)
(664 -3.25414e-13 0)
(664 -3.43668e-13 0)
(664 -3.79835e-13 0)
(664 -4.27041e-13 0)
(664 -4.76781e-13 0)
(664 -5.39263e-13 0)
(664 -6.09057e-13 0)
(664 -6.70749e-13 0)
(664 -7.10243e-13 0)
(664 -7.50007e-13 0)
(664 -7.78495e-13 0)
(664 -8.14034e-13 0)
(664 -8.52353e-13 0)
(664 -8.55523e-13 0)
(664 -8.53592e-13 0)
(664 -7.93305e-13 0)
(664 -6.45983e-13 0)
(664 -3.61724e-13 0)
(664 1.4723e-13 0)
(664 9.92492e-13 0)
(664 2.42575e-12 0)
(664 4.82191e-12 0)
(664 8.85279e-12 0)
(664 1.56058e-11 0)
(664 2.68568e-11 0)
(664 4.56003e-11 0)
(664 7.68272e-11 0)
(664 1.28893e-10 0)
(664 2.15699e-10 0)
(664 3.60559e-10 0)
(664 6.02271e-10 0)
(664 1.00577e-09 0)
(664 1.67945e-09 0)
(664 2.80463e-09 0)
(664 4.68424e-09 0)
(664 7.82524e-09 0)
(664 1.30749e-08 0)
(664 2.18524e-08 0)
(664 3.65308e-08 0)
(664 6.10866e-08 0)
(664 1.02173e-07 0)
(664 1.70946e-07 0)
(664 2.86078e-07 0)
(664 4.78895e-07 0)
(664 8.01863e-07 0)
(664 1.34304e-06 0)
(664 2.24997e-06 0)
(664 3.77041e-06 0)
(664 6.3197e-06 0)
(664 1.05955e-05 0)
(664 1.77679e-05 0)
(664 2.98028e-05 0)
(664 4.99984e-05 0)
(664 8.3898e-05 0)
(663.999 0.000140802 0)
(663.999 0.000236346 0)
(663.998 0.000396761 0)
(663.997 0.000666144 0)
(663.995 0.00111847 0)
(663.991 0.00187807 0)
(663.985 0.00315343 0)
(663.976 0.00529478 0)
(663.961 0.00888905 0)
(663.937 0.0149213 0)
(663.897 0.0250407 0)
(663.832 0.0420112 0)
(663.727 0.0704526 0)
(663.556 0.118092 0)
(663.28 0.197812 0)
(662.834 0.331083 0)
(662.115 0.55356 0)
(660.958 0.924362 0)
(659.106 1.54084 0)
(656.155 2.56166 0)
(651.488 4.24297 0)
(644.119 6.99195 0)
(633.263 11.4461 0)
(664 -5.86089e-15 0)
(664 -1.16421e-14 0)
(664 -1.73258e-14 0)
(664 -1.22999e-14 0)
(664 -1.23534e-14 0)
(664 2.87801e-15 0)
(664 1.17992e-14 0)
(664 1.57604e-15 0)
(664 -5.13782e-15 0)
(664 -2.04219e-14 0)
(664 -2.48506e-14 0)
(664 -1.69658e-14 0)
(664 -2.94613e-15 0)
(664 1.72178e-14 0)
(664 5.08076e-14 0)
(664 6.34424e-14 0)
(664 5.66513e-14 0)
(664 3.31755e-14 0)
(664 1.93583e-14 0)
(664 -3.06286e-15 0)
(664 -3.67792e-14 0)
(664 -7.55975e-14 0)
(664 -1.20137e-13 0)
(664 -1.48411e-13 0)
(664 -1.92786e-13 0)
(664 -2.22269e-13 0)
(664 -2.45308e-13 0)
(664 -2.74945e-13 0)
(664 -2.77833e-13 0)
(664 -2.92986e-13 0)
(664 -3.02807e-13 0)
(664 -3.20633e-13 0)
(664 -3.51548e-13 0)
(664 -3.66882e-13 0)
(664 -3.80335e-13 0)
(664 -4.13774e-13 0)
(664 -4.26121e-13 0)
(664 -4.42566e-13 0)
(664 -4.64978e-13 0)
(664 -4.64397e-13 0)
(664 -4.66055e-13 0)
(664 -4.69687e-13 0)
(664 -4.78708e-13 0)
(664 -4.99297e-13 0)
(664 -5.01719e-13 0)
(664 -4.96611e-13 0)
(664 -4.85787e-13 0)
(664 -4.71135e-13 0)
(664 -4.74079e-13 0)
(664 -4.60586e-13 0)
(664 -4.23977e-13 0)
(664 -3.70258e-13 0)
(664 -3.25783e-13 0)
(664 -3.12197e-13 0)
(664 -3.14346e-13 0)
(664 -3.24367e-13 0)
(664 -3.41176e-13 0)
(664 -3.65747e-13 0)
(664 -4.07657e-13 0)
(664 -4.47637e-13 0)
(664 -4.65982e-13 0)
(664 -4.80274e-13 0)
(664 -4.72139e-13 0)
(664 -4.42419e-13 0)
(664 -4.26963e-13 0)
(664 -4.29028e-13 0)
(664 -4.34737e-13 0)
(664 -4.30994e-13 0)
(664 -4.2995e-13 0)
(664 -4.16708e-13 0)
(664 -4.00285e-13 0)
(664 -3.87173e-13 0)
(664 -3.53923e-13 0)
(664 -3.44712e-13 0)
(664 -3.37333e-13 0)
(664 -3.48492e-13 0)
(664 -3.71421e-13 0)
(664 -4.09425e-13 0)
(664 -4.62691e-13 0)
(664 -5.08316e-13 0)
(664 -5.53649e-13 0)
(664 -5.93164e-13 0)
(664 -6.28394e-13 0)
(664 -6.69298e-13 0)
(664 -7.10153e-13 0)
(664 -7.58334e-13 0)
(664 -8.07477e-13 0)
(664 -8.51912e-13 0)
(664 -8.916e-13 0)
(664 -9.10633e-13 0)
(664 -8.96086e-13 0)
(664 -8.77813e-13 0)
(664 -8.54308e-13 0)
(664 -8.20384e-13 0)
(664 -7.9623e-13 0)
(664 -7.88845e-13 0)
(664 -7.71652e-13 0)
(664 -7.43632e-13 0)
(664 -7.24547e-13 0)
(664 -6.90201e-13 0)
(664 -6.52925e-13 0)
(664 -5.88561e-13 0)
(664 -5.40476e-13 0)
(664 -5.03622e-13 0)
(664 -4.79642e-13 0)
(664 -4.78302e-13 0)
(664 -4.68073e-13 0)
(664 -4.7689e-13 0)
(664 -4.92968e-13 0)
(664 -5.34455e-13 0)
(664 -5.90932e-13 0)
(664 -6.39648e-13 0)
(664 -6.77502e-13 0)
(664 -7.14825e-13 0)
(664 -7.40555e-13 0)
(664 -7.49071e-13 0)
(664 -7.54283e-13 0)
(664 -7.47304e-13 0)
(664 -7.5395e-13 0)
(664 -7.81541e-13 0)
(664 -8.136e-13 0)
(664 -8.46261e-13 0)
(664 -8.76333e-13 0)
(664 -9.08806e-13 0)
(664 -9.54409e-13 0)
(664 -1.00891e-12 0)
(664 -1.07161e-12 0)
(664 -1.14431e-12 0)
(664 -1.21107e-12 0)
(664 -1.22574e-12 0)
(664 -1.21067e-12 0)
(664 -1.19806e-12 0)
(664 -1.1588e-12 0)
(664 -1.11423e-12 0)
(664 -1.09026e-12 0)
(664 -1.05828e-12 0)
(664 -1.04511e-12 0)
(664 -1.04535e-12 0)
(664 -1.0276e-12 0)
(664 -9.92586e-13 0)
(664 -9.10598e-13 0)
(664 -8.34849e-13 0)
(664 -7.65523e-13 0)
(664 -7.13179e-13 0)
(664 -6.73136e-13 0)
(664 -6.54133e-13 0)
(664 -6.45646e-13 0)
(664 -6.63002e-13 0)
(664 -6.87161e-13 0)
(664 -7.18193e-13 0)
(664 -7.35669e-13 0)
(664 -7.39335e-13 0)
(664 -7.54883e-13 0)
(664 -7.79471e-13 0)
(664 -7.93134e-13 0)
(664 -8.32386e-13 0)
(664 -8.54939e-13 0)
(664 -8.79973e-13 0)
(664 -9.12209e-13 0)
(664 -9.23489e-13 0)
(664 -9.33865e-13 0)
(664 -9.32088e-13 0)
(664 -9.27689e-13 0)
(664 -9.30396e-13 0)
(664 -9.39547e-13 0)
(664 -9.26904e-13 0)
(664 -8.8504e-13 0)
(664 -8.23547e-13 0)
(664 -7.67323e-13 0)
(664 -7.12556e-13 0)
(664 -6.73522e-13 0)
(664 -6.49355e-13 0)
(664 -6.34021e-13 0)
(664 -6.34213e-13 0)
(664 -6.42317e-13 0)
(664 -6.38358e-13 0)
(664 -6.34235e-13 0)
(664 -6.20491e-13 0)
(664 -6.13382e-13 0)
(664 -6.24272e-13 0)
(664 -6.36476e-13 0)
(664 -6.58678e-13 0)
(664 -6.86618e-13 0)
(664 -6.95911e-13 0)
(664 -7.02938e-13 0)
(664 -7.19392e-13 0)
(664 -7.50184e-13 0)
(664 -7.77839e-13 0)
(664 -7.95088e-13 0)
(664 -8.1169e-13 0)
(664 -8.10562e-13 0)
(664 -7.94047e-13 0)
(664 -7.59847e-13 0)
(664 -7.09372e-13 0)
(664 -6.53527e-13 0)
(664 -5.90037e-13 0)
(664 -5.46091e-13 0)
(664 -4.90688e-13 0)
(664 -4.62478e-13 0)
(664 -4.39909e-13 0)
(664 -4.27609e-13 0)
(664 -4.22812e-13 0)
(664 -4.22596e-13 0)
(664 -4.43235e-13 0)
(664 -4.49635e-13 0)
(664 -4.55071e-13 0)
(664 -4.55386e-13 0)
(664 -4.51671e-13 0)
(664 -4.67796e-13 0)
(664 -4.69117e-13 0)
(664 -4.81828e-13 0)
(664 -4.87175e-13 0)
(664 -4.94978e-13 0)
(664 -5.2542e-13 0)
(664 -5.47043e-13 0)
(664 -5.54394e-13 0)
(664 -5.69113e-13 0)
(664 -5.83041e-13 0)
(664 -6.197e-13 0)
(664 -6.88452e-13 0)
(664 -7.44496e-13 0)
(664 -7.6713e-13 0)
(664 -7.91166e-13 0)
(664 -8.04301e-13 0)
(664 -8.19203e-13 0)
(664 -8.34398e-13 0)
(664 -8.52318e-13 0)
(664 -8.70633e-13 0)
(664 -8.72717e-13 0)
(664 -9.03949e-13 0)
(664 -9.28447e-13 0)
(664 -9.8555e-13 0)
(664 -1.04592e-12 0)
(664 -1.11013e-12 0)
(664 -1.17641e-12 0)
(664 -1.21277e-12 0)
(664 -1.22591e-12 0)
(664 -1.18767e-12 0)
(664 -1.06638e-12 0)
(664 -8.48455e-13 0)
(664 -4.55282e-13 0)
(664 1.91576e-13 0)
(664 1.25043e-12 0)
(664 2.98431e-12 0)
(664 5.80075e-12 0)
(664 1.04572e-11 0)
(664 1.81638e-11 0)
(664 3.09636e-11 0)
(664 5.22431e-11 0)
(664 8.75759e-11 0)
(664 1.4625e-10 0)
(664 2.4369e-10 0)
(664 4.05501e-10 0)
(664 6.74276e-10 0)
(664 1.12078e-09 0)
(664 1.86252e-09 0)
(664 3.09498e-09 0)
(664 5.14276e-09 0)
(664 8.5459e-09 0)
(664 1.42013e-08 0)
(664 2.3601e-08 0)
(664 3.92235e-08 0)
(664 6.51925e-08 0)
(664 1.08357e-07 0)
(664 1.80114e-07 0)
(664 2.99392e-07 0)
(664 4.97682e-07 0)
(664 8.2729e-07 0)
(664 1.37523e-06 0)
(664 2.28597e-06 0)
(664 3.79983e-06 0)
(664 6.31575e-06 0)
(664 1.0497e-05 0)
(664 1.74445e-05 0)
(664 2.89874e-05 0)
(664 4.81605e-05 0)
(664 8.00037e-05 0)
(663.999 0.000132871 0)
(663.999 0.00022063 0)
(663.998 0.000366243 0)
(663.998 0.000607786 0)
(663.996 0.00100825 0)
(663.994 0.00167194 0)
(663.99 0.00277116 0)
(663.983 0.00459081 0)
(663.973 0.00760067 0)
(663.956 0.0125759 0)
(663.928 0.0207916 0)
(663.884 0.0343465 0)
(663.814 0.0566831 0)
(663.7 0.0934467 0)
(663.518 0.153861 0)
(663.226 0.252976 0)
(662.759 0.41525 0)
(662.015 0.680283 0)
(660.832 1.11186 0)
(658.959 1.81125 0)
(656.007 2.93894 0)
(651.336 4.74204 0)
(644.39 7.60625 0)
(664 -3.6559e-16 0)
(664 6.54666e-15 0)
(664 2.4296e-14 0)
(664 5.28623e-14 0)
(664 7.66657e-14 0)
(664 1.00522e-13 0)
(664 1.40911e-13 0)
(664 1.79976e-13 0)
(664 2.32761e-13 0)
(664 2.6154e-13 0)
(664 2.7171e-13 0)
(664 2.7399e-13 0)
(664 2.495e-13 0)
(664 2.1428e-13 0)
(664 1.62963e-13 0)
(664 1.2891e-13 0)
(664 9.33365e-14 0)
(664 4.77215e-14 0)
(664 -2.30134e-14 0)
(664 -7.99185e-14 0)
(664 -1.42037e-13 0)
(664 -1.9464e-13 0)
(664 -2.29547e-13 0)
(664 -2.7124e-13 0)
(664 -2.84976e-13 0)
(664 -2.85656e-13 0)
(664 -2.60711e-13 0)
(664 -2.29295e-13 0)
(664 -2.23803e-13 0)
(664 -1.99681e-13 0)
(664 -1.81033e-13 0)
(664 -1.60232e-13 0)
(664 -1.43252e-13 0)
(664 -1.46826e-13 0)
(664 -1.63398e-13 0)
(664 -2.02392e-13 0)
(664 -2.22701e-13 0)
(664 -2.16369e-13 0)
(664 -2.07392e-13 0)
(664 -2.05445e-13 0)
(664 -2.10645e-13 0)
(664 -2.06346e-13 0)
(664 -2.45228e-13 0)
(664 -2.70357e-13 0)
(664 -2.8072e-13 0)
(664 -2.79026e-13 0)
(664 -2.62894e-13 0)
(664 -2.58735e-13 0)
(664 -2.51212e-13 0)
(664 -2.48742e-13 0)
(664 -2.47607e-13 0)
(664 -2.42823e-13 0)
(664 -2.25918e-13 0)
(664 -2.02487e-13 0)
(664 -1.85078e-13 0)
(664 -1.82884e-13 0)
(664 -2.11562e-13 0)
(664 -2.72339e-13 0)
(664 -3.63596e-13 0)
(664 -4.44166e-13 0)
(664 -5.04869e-13 0)
(664 -5.43387e-13 0)
(664 -5.76781e-13 0)
(664 -6.14744e-13 0)
(664 -6.47389e-13 0)
(664 -6.64409e-13 0)
(664 -6.62078e-13 0)
(664 -6.57652e-13 0)
(664 -6.39458e-13 0)
(664 -5.97659e-13 0)
(664 -5.48764e-13 0)
(664 -5.03287e-13 0)
(664 -4.69463e-13 0)
(664 -4.40321e-13 0)
(664 -4.26565e-13 0)
(664 -4.20342e-13 0)
(664 -4.23616e-13 0)
(664 -4.35476e-13 0)
(664 -4.45645e-13 0)
(664 -4.62508e-13 0)
(664 -4.78489e-13 0)
(664 -4.75648e-13 0)
(664 -4.68858e-13 0)
(664 -4.66746e-13 0)
(664 -4.64339e-13 0)
(664 -4.76834e-13 0)
(664 -4.99128e-13 0)
(664 -5.35599e-13 0)
(664 -5.59933e-13 0)
(664 -5.6815e-13 0)
(664 -5.94842e-13 0)
(664 -6.14466e-13 0)
(664 -6.32405e-13 0)
(664 -6.65037e-13 0)
(664 -6.88678e-13 0)
(664 -7.17138e-13 0)
(664 -7.29865e-13 0)
(664 -7.30966e-13 0)
(664 -7.37046e-13 0)
(664 -7.5535e-13 0)
(664 -7.7563e-13 0)
(664 -8.13568e-13 0)
(664 -8.37585e-13 0)
(664 -8.64123e-13 0)
(664 -8.82412e-13 0)
(664 -9.09922e-13 0)
(664 -9.45294e-13 0)
(664 -9.56057e-13 0)
(664 -9.70975e-13 0)
(664 -9.69699e-13 0)
(664 -9.62276e-13 0)
(664 -9.6292e-13 0)
(664 -9.41405e-13 0)
(664 -9.02793e-13 0)
(664 -8.34832e-13 0)
(664 -7.73682e-13 0)
(664 -7.19509e-13 0)
(664 -6.72511e-13 0)
(664 -6.27703e-13 0)
(664 -5.90584e-13 0)
(664 -5.72791e-13 0)
(664 -5.62381e-13 0)
(664 -5.49706e-13 0)
(664 -5.43399e-13 0)
(664 -5.41316e-13 0)
(664 -5.36493e-13 0)
(664 -5.20693e-13 0)
(664 -5.21906e-13 0)
(664 -5.03702e-13 0)
(664 -5.0507e-13 0)
(664 -5.51182e-13 0)
(664 -6.03208e-13 0)
(664 -6.56368e-13 0)
(664 -7.23519e-13 0)
(664 -7.7288e-13 0)
(664 -8.05387e-13 0)
(664 -8.35237e-13 0)
(664 -8.57775e-13 0)
(664 -8.87918e-13 0)
(664 -9.2806e-13 0)
(664 -9.64804e-13 0)
(664 -9.82999e-13 0)
(664 -1.01395e-12 0)
(664 -1.05403e-12 0)
(664 -1.08368e-12 0)
(664 -1.0827e-12 0)
(664 -1.0912e-12 0)
(664 -1.06805e-12 0)
(664 -1.0377e-12 0)
(664 -1.00992e-12 0)
(664 -1.00173e-12 0)
(664 -1.00642e-12 0)
(664 -1.01444e-12 0)
(664 -9.90939e-13 0)
(664 -9.63364e-13 0)
(664 -9.34587e-13 0)
(664 -9.07775e-13 0)
(664 -8.93202e-13 0)
(664 -8.90156e-13 0)
(664 -8.90412e-13 0)
(664 -8.99776e-13 0)
(664 -9.18155e-13 0)
(664 -9.67291e-13 0)
(664 -1.01878e-12 0)
(664 -1.06805e-12 0)
(664 -1.11651e-12 0)
(664 -1.15023e-12 0)
(664 -1.17869e-12 0)
(664 -1.19034e-12 0)
(664 -1.19183e-12 0)
(664 -1.19847e-12 0)
(664 -1.1997e-12 0)
(664 -1.20274e-12 0)
(664 -1.18898e-12 0)
(664 -1.18125e-12 0)
(664 -1.17157e-12 0)
(664 -1.13169e-12 0)
(664 -1.09565e-12 0)
(664 -1.05265e-12 0)
(664 -1.01599e-12 0)
(664 -9.7187e-13 0)
(664 -9.22616e-13 0)
(664 -8.79997e-13 0)
(664 -8.40576e-13 0)
(664 -8.33548e-13 0)
(664 -8.49403e-13 0)
(664 -8.55304e-13 0)
(664 -8.33299e-13 0)
(664 -7.97617e-13 0)
(664 -7.43274e-13 0)
(664 -6.85475e-13 0)
(664 -6.49269e-13 0)
(664 -6.24844e-13 0)
(664 -6.07809e-13 0)
(664 -5.83088e-13 0)
(664 -5.74267e-13 0)
(664 -5.61215e-13 0)
(664 -5.3749e-13 0)