/*--------------------------------*- C++ -*----------------------------------*\
| =========                 |                                                 |
| \\      /  F ield         | OpenFOAM: The Open Source CFD Toolbox           |
|  \\    /   O peration     | Version:  2412                                  |
|   \\  /    A nd           | Website:  www.openfoam.com                      |
|    \\/     M anipulation  |                                                 |
\*---------------------------------------------------------------------------*/
FoamFile
{
    version     2.0;
    format      ascii;
    arch        "LSB;label=32;scalar=64";
    class       volVectorField;
    location    "0.002";
    object      U_0;
}
// * * * * * * * * * * * * * * * * * * * * * * * * * * * * * * * * * * * * * //

dimensions      [0 1 -1 0 0 0 0];

internalField   nonuniform List<vector> 
180000
(
(664 8.65971e-15 0)
(664 -4.61102e-15 0)
(664 8.22484e-15 0)
(664 2.15971e-14 0)
(664 1.90055e-15 0)
(664 -6.04837e-14 0)
(664 -1.187e-13 0)
(664 -1.18344e-13 0)
(664 -1.94873e-13 0)
(664 -3.23864e-13 0)
(664 -4.14065e-13 0)
(664 -3.82421e-13 0)
(664 -3.5634e-13 0)
(664 -3.76429e-13 0)
(664 -4.14818e-13 0)
(664 -4.56181e-13 0)
(664 -5.02372e-13 0)
(664 -5.25726e-13 0)
(664 -5.06371e-13 0)
(664 -4.86418e-13 0)
(664 -5.15576e-13 0)
(664 -5.76222e-13 0)
(664 -5.86927e-13 0)
(664 -5.34135e-13 0)
(664 -4.5814e-13 0)
(664 -4.1455e-13 0)
(664 -4.28833e-13 0)
(664 -4.5621e-13 0)
(664 -5.22586e-13 0)
(664 -6.1485e-13 0)
(664 -6.44875e-13 0)
(664 -6.35391e-13 0)
(664 -6.80456e-13 0)
(664 -7.93427e-13 0)
(664 -9.08835e-13 0)
(664 -9.04036e-13 0)
(664 -8.28436e-13 0)
(664 -7.37636e-13 0)
(664 -6.55996e-13 0)
(664 -6.11525e-13 0)
(664 -5.93672e-13 0)
(664 -5.53142e-13 0)
(664 -4.91113e-13 0)
(664 -4.72942e-13 0)
(664 -5.07645e-13 0)
(664 -5.55036e-13 0)
(664 -6.27011e-13 0)
(664 -7.19835e-13 0)
(664 -7.45e-13 0)
(664 -7.42595e-13 0)
(664 -7.81153e-13 0)
(664 -8.17234e-13 0)
(664 -8.12729e-13 0)
(664 -7.79192e-13 0)
(664 -6.8956e-13 0)
(664 -5.91657e-13 0)
(664 -5.42888e-13 0)
(664 -5.57719e-13 0)
(664 -6.22713e-13 0)
(664 -6.13718e-13 0)
(664 -5.04782e-13 0)
(664 -4.19259e-13 0)
(664 -4.57068e-13 0)
(664 -5.5287e-13 0)
(664 -5.54048e-13 0)
(664 -4.53474e-13 0)
(664 -3.80352e-13 0)
(664 -4.03894e-13 0)
(664 -5.10598e-13 0)
(664 -6.65746e-13 0)
(664 -7.58606e-13 0)
(664 -7.63857e-13 0)
(664 -7.75914e-13 0)
(664 -7.60131e-13 0)
(664 -7.49012e-13 0)
(664 -8.10378e-13 0)
(664 -9.37525e-13 0)
(664 -9.29331e-13 0)
(664 -7.35345e-13 0)
(664 -5.16992e-13 0)
(664 -3.99218e-13 0)
(664 -3.35892e-13 0)
(664 -3.02313e-13 0)
(664 -2.91363e-13 0)
(664 -3.75881e-13 0)
(664 -4.91633e-13 0)
(664 -6.72374e-13 0)
(664 -9.1658e-13 0)
(664 -1.10661e-12 0)
(664 -1.25511e-12 0)
(664 -1.3935e-12 0)
(664 -1.54249e-12 0)
(664 -1.58059e-12 0)
(664 -1.48277e-12 0)
(664 -1.42885e-12 0)
(664 -1.52335e-12 0)
(664 -1.65001e-12 0)
(664 -1.6327e-12 0)
(664 -1.52326e-12 0)
(664 -1.40589e-12 0)
(664 -1.3176e-12 0)
(664 -1.27859e-12 0)
(664 -1.28274e-12 0)
(664 -1.33054e-12 0)
(664 -1.36706e-12 0)
(664 -1.31968e-12 0)
(664 -1.18493e-12 0)
(664 -1.04569e-12 0)
(664 -9.96107e-13 0)
(664 -9.58103e-13 0)
(664 -9.24354e-13 0)
(664 -9.77565e-13 0)
(664 -1.06943e-12 0)
(664 -1.05123e-12 0)
(664 -1.04968e-12 0)
(664 -1.16528e-12 0)
(664 -1.36159e-12 0)
(664 -1.54805e-12 0)
(664 -1.71023e-12 0)
(664 -1.75388e-12 0)
(664 -1.59754e-12 0)
(664 -1.40419e-12 0)
(664 -1.27579e-12 0)
(664 -1.12526e-12 0)
(664 -9.3978e-13 0)
(664 -8.10117e-13 0)
(664 -6.86122e-13 0)
(664 -4.96096e-13 0)
(664 -3.68672e-13 0)
(664 -3.44852e-13 0)
(664 -4.12362e-13 0)
(664 -5.59315e-13 0)
(664 -7.98352e-13 0)
(664 -1.02552e-12 0)
(664 -1.14591e-12 0)
(664 -1.06687e-12 0)
(664 -8.60765e-13 0)
(664 -6.96435e-13 0)
(664 -6.58934e-13 0)
(664 -7.71457e-13 0)
(664 -8.42338e-13 0)
(664 -7.89711e-13 0)
(664 -6.6407e-13 0)
(664 -5.90737e-13 0)
(664 -4.95795e-13 0)
(664 -3.58084e-13 0)
(664 -1.94747e-13 0)
(664 -6.42179e-14 0)
(664 -2.15879e-14 0)
(664 3.0347e-14 0)
(664 1.27946e-13 0)
(664 2.55647e-13 0)
(664 2.94358e-13 0)
(664 2.66409e-13 0)
(664 2.51429e-13 0)
(664 1.29837e-13 0)
(664 -6.71049e-14 0)
(664 -2.01845e-13 0)
(664 -3.07403e-13 0)
(664 -4.262e-13 0)
(664 -5.05903e-13 0)
(664 -5.1383e-13 0)
(664 -4.41e-13 0)
(664 -3.26808e-13 0)
(664 -3.06083e-13 0)
(664 -3.04366e-13 0)
(664 -2.22963e-13 0)
(664 -1.11666e-13 0)
(664 -1.33547e-13 0)
(664 -2.08512e-13 0)
(664 -2.13139e-13 0)
(664 -1.00742e-13 0)
(664 -3.65847e-14 0)
(664 -1.37504e-13 0)
(664 -3.13255e-13 0)
(664 -6.03514e-13 0)
(664 -9.4119e-13 0)
(664 -1.1758e-12 0)
(664 -1.20075e-12 0)
(664 -1.08832e-12 0)
(664 -1.05492e-12 0)
(664 -1.12779e-12 0)
(664 -1.12773e-12 0)
(664 -1.14635e-12 0)
(664 -1.22758e-12 0)
(664 -1.29118e-12 0)
(664 -1.34219e-12 0)
(664 -1.33861e-12 0)
(664 -1.23464e-12 0)
(664 -1.07046e-12 0)
(664 -9.8824e-13 0)
(664 -9.06917e-13 0)
(664 -8.17398e-13 0)
(664 -7.51386e-13 0)
(664 -7.24496e-13 0)
(664 -6.87482e-13 0)
(664 -5.97788e-13 0)
(664 -5.12412e-13 0)
(664 -5.5308e-13 0)
(664 -6.32466e-13 0)
(664 -5.87938e-13 0)
(664 -4.30649e-13 0)
(664 -3.37811e-13 0)
(664 -3.71585e-13 0)
(664 -4.37949e-13 0)
(664 -4.35863e-13 0)
(664 -4.69153e-13 0)
(664 -6.1868e-13 0)
(664 -6.95871e-13 0)
(664 -5.93514e-13 0)
(664 -3.06172e-13 0)
(664 -2.71063e-14 0)
(664 1.85373e-13 0)
(664 3.60881e-13 0)
(664 5.18545e-13 0)
(664 6.9884e-13 0)
(664 8.32122e-13 0)
(664 9.05939e-13 0)
(664 9.22519e-13 0)
(664 1.0162e-12 0)
(664 1.01672e-12 0)
(664 8.9025e-13 0)
(664 6.82519e-13 0)
(664 4.50059e-13 0)
(664 1.52528e-13 0)
(664 -1.74352e-13 0)
(664 -3.77684e-13 0)
(664 -4.91265e-13 0)
(664 -5.58935e-13 0)
(664 -5.59952e-13 0)
(664 -5.09634e-13 0)
(664 -5.43681e-13 0)
(664 -5.92668e-13 0)
(664 -5.68842e-13 0)
(664 -4.86281e-13 0)
(664 -3.23482e-13 0)
(664 -1.07798e-13 0)
(664 1.34166e-13 0)
(664 3.27254e-13 0)
(664 4.66903e-13 0)
(664 5.8372e-13 0)
(664 7.68448e-13 0)
(664 1.04461e-12 0)
(664 1.59897e-12 0)
(664 2.6179e-12 0)
(664 4.41151e-12 0)
(664 7.32387e-12 0)
(664 1.20241e-11 0)
(664 1.97336e-11 0)
(664 3.25287e-11 0)
(664 5.3937e-11 0)
(664 8.97742e-11 0)
(664 1.49477e-10 0)
(664 2.48899e-10 0)
(664 4.14384e-10 0)
(664 6.90114e-10 0)
(664 1.1499e-09 0)
(664 1.91709e-09 0)
(664 3.19803e-09 0)
(664 5.3379e-09 0)
(664 8.91501e-09 0)
(664 1.48993e-08 0)
(664 2.49181e-08 0)
(664 4.17045e-08 0)
(664 6.98533e-08 0)
(664 1.17096e-07 0)
(664 1.96459e-07 0)
(664 3.29906e-07 0)
(664 5.54521e-07 0)
(664 9.32987e-07 0)
(664 1.57139e-06 0)
(664 2.6495e-06 0)
(664 4.47239e-06 0)
(664 7.55845e-06 0)
(664 1.27899e-05 0)
(663.999 2.16704e-05 0)
(663.999 3.67667e-05 0)
(663.999 6.24678e-05 0)
(663.998 0.000106291 0)
(663.996 0.000181134 0)
(663.994 0.000309165 0)
(663.99 0.000528558 0)
(663.983 0.00090517 0)
(663.972 0.00155284 0)
(663.955 0.00266872 0)
(663.925 0.00459495 0)
(663.877 0.0079265 0)
(663.797 0.0137001 0)
(663.666 0.023726 0)
(663.448 0.0411716 0)
(663.087 0.0715932 0)
(662.49 0.12475 0)
(661.499 0.217854 0)
(659.856 0.381238 0)
(657.127 0.668811 0)
(652.595 1.1756 0)
(645.083 2.07294 0)
(632.655 3.65817 0)
(612.416 6.48422 0)
(580.599 11.4229 0)
(664 1.14823e-14 0)
(664 1.92744e-14 0)
(664 -1.24465e-14 0)
(664 -3.38096e-14 0)
(664 -3.8042e-14 0)
(664 -1.82654e-14 0)
(664 -3.5226e-14 0)
(664 -4.0959e-14 0)
(664 -5.41135e-14 0)
(664 -4.78072e-14 0)
(664 2.30132e-14 0)
(664 1.31949e-13 0)
(664 1.64214e-13 0)
(664 9.41768e-14 0)
(664 -1.22561e-13 0)
(664 -3.54252e-13 0)
(664 -4.85901e-13 0)
(664 -4.99717e-13 0)
(664 -4.49156e-13 0)
(664 -4.34415e-13 0)
(664 -5.00081e-13 0)
(664 -6.60107e-13 0)
(664 -8.45803e-13 0)
(664 -9.02718e-13 0)
(664 -8.91837e-13 0)
(664 -9.08114e-13 0)
(664 -9.12089e-13 0)
(664 -9.08258e-13 0)
(664 -8.59589e-13 0)
(664 -7.98699e-13 0)
(664 -7.14132e-13 0)
(664 -6.34756e-13 0)
(664 -6.01222e-13 0)
(664 -5.62122e-13 0)
(664 -5.90263e-13 0)
(664 -5.79071e-13 0)
(664 -4.34886e-13 0)
(664 -2.79612e-13 0)
(664 -2.0774e-13 0)
(664 -2.47539e-13 0)
(664 -3.66706e-13 0)
(664 -4.75061e-13 0)
(664 -4.95035e-13 0)
(664 -4.91652e-13 0)
(664 -5.00466e-13 0)
(664 -5.44945e-13 0)
(664 -6.4197e-13 0)
(664 -7.10158e-13 0)
(664 -7.56768e-13 0)
(664 -8.43977e-13 0)
(664 -9.24017e-13 0)
(664 -9.77751e-13 0)
(664 -9.65542e-13 0)
(664 -9.66826e-13 0)
(664 -9.55663e-13 0)
(664 -9.12861e-13 0)
(664 -8.43982e-13 0)
(664 -8.18786e-13 0)
(664 -7.99504e-13 0)
(664 -7.29736e-13 0)
(664 -6.70669e-13 0)
(664 -6.21426e-13 0)
(664 -6.83898e-13 0)
(664 -7.75935e-13 0)
(664 -7.77436e-13 0)
(664 -7.59314e-13 0)
(664 -8.0705e-13 0)
(664 -9.59063e-13 0)
(664 -1.11883e-12 0)
(664 -1.18226e-12 0)
(664 -1.24974e-12 0)
(664 -1.32038e-12 0)
(664 -1.39964e-12 0)
(664 -1.45334e-12 0)
(664 -1.52805e-12 0)
(664 -1.57479e-12 0)
(664 -1.6465e-12 0)
(664 -1.64795e-12 0)
(664 -1.42381e-12 0)
(664 -1.12078e-12 0)
(664 -8.89698e-13 0)
(664 -8.05548e-13 0)
(664 -8.15633e-13 0)
(664 -9.30186e-13 0)
(664 -1.14706e-12 0)
(664 -1.30777e-12 0)
(664 -1.34922e-12 0)
(664 -1.30626e-12 0)
(664 -1.20434e-12 0)
(664 -1.11825e-12 0)
(664 -1.10061e-12 0)
(664 -1.18599e-12 0)
(664 -1.22183e-12 0)
(664 -1.16199e-12 0)
(664 -1.21278e-12 0)
(664 -1.43461e-12 0)
(664 -1.61796e-12 0)
(664 -1.6573e-12 0)
(664 -1.61545e-12 0)
(664 -1.50396e-12 0)
(664 -1.41445e-12 0)
(664 -1.36078e-12 0)
(664 -1.22492e-12 0)
(664 -1.07344e-12 0)
(664 -8.62602e-13 0)
(664 -6.83959e-13 0)
(664 -6.72883e-13 0)
(664 -8.05724e-13 0)
(664 -9.59798e-13 0)
(664 -1.01157e-12 0)
(664 -9.639e-13 0)
(664 -9.18986e-13 0)
(664 -8.14761e-13 0)
(664 -6.13216e-13 0)
(664 -4.17915e-13 0)
(664 -4.20706e-13 0)
(664 -5.4699e-13 0)
(664 -6.49874e-13 0)
(664 -6.77394e-13 0)
(664 -6.14842e-13 0)
(664 -5.22118e-13 0)
(664 -5.06564e-13 0)
(664 -5.74465e-13 0)
(664 -6.37135e-13 0)
(664 -7.42299e-13 0)
(664 -8.86007e-13 0)
(664 -1.04227e-12 0)
(664 -1.16683e-12 0)
(664 -1.28285e-12 0)
(664 -1.3041e-12 0)
(664 -1.2674e-12 0)
(664 -1.23351e-12 0)
(664 -1.29531e-12 0)
(664 -1.38913e-12 0)
(664 -1.45568e-12 0)
(664 -1.39919e-12 0)
(664 -1.20517e-12 0)
(664 -9.43302e-13 0)
(664 -7.83473e-13 0)
(664 -7.90784e-13 0)
(664 -8.37991e-13 0)
(664 -8.44451e-13 0)
(664 -8.82832e-13 0)
(664 -9.19893e-13 0)
(664 -8.96178e-13 0)
(664 -8.64355e-13 0)
(664 -9.26203e-13 0)
(664 -9.88248e-13 0)
(664 -1.03946e-12 0)
(664 -1.01218e-12 0)
(664 -7.56814e-13 0)
(664 -4.60562e-13 0)
(664 -2.17047e-13 0)
(664 -1.38666e-13 0)
(664 -1.85709e-13 0)
(664 -3.04543e-13 0)
(664 -3.39483e-13 0)
(664 -3.2463e-13 0)
(664 -3.80204e-13 0)
(664 -4.94714e-13 0)
(664 -6.91079e-13 0)
(664 -9.14192e-13 0)
(664 -1.05749e-12 0)
(664 -1.16072e-12 0)
(664 -1.26676e-12 0)
(664 -1.30868e-12 0)
(664 -1.17988e-12 0)
(664 -1.02884e-12 0)
(664 -9.60703e-13 0)
(664 -9.08458e-13 0)
(664 -8.6105e-13 0)
(664 -7.38107e-13 0)
(664 -6.57666e-13 0)
(664 -6.96747e-13 0)
(664 -9.16255e-13 0)
(664 -1.20171e-12 0)
(664 -1.47353e-12 0)
(664 -1.63327e-12 0)
(664 -1.5733e-12 0)
(664 -1.31777e-12 0)
(664 -9.70356e-13 0)
(664 -6.35559e-13 0)
(664 -3.64555e-13 0)
(664 -2.95407e-13 0)
(664 -3.77798e-13 0)
(664 -5.77737e-13 0)
(664 -7.87781e-13 0)
(664 -9.24956e-13 0)
(664 -9.50831e-13 0)
(664 -8.99416e-13 0)
(664 -8.00378e-13 0)
(664 -7.69117e-13 0)
(664 -8.98489e-13 0)
(664 -1.08814e-12 0)
(664 -1.19166e-12 0)
(664 -1.11519e-12 0)
(664 -1.00693e-12 0)
(664 -9.07572e-13 0)
(664 -8.60006e-13 0)
(664 -8.22658e-13 0)
(664 -6.85439e-13 0)
(664 -4.60286e-13 0)
(664 -3.21868e-13 0)
(664 -3.02986e-13 0)
(664 -3.13378e-13 0)
(664 -3.15688e-13 0)
(664 -3.53205e-13 0)
(664 -4.26756e-13 0)
(664 -4.65919e-13 0)
(664 -4.31986e-13 0)
(664 -2.84803e-13 0)
(664 -1.98947e-14 0)
(664 2.93489e-13 0)
(664 5.0022e-13 0)
(664 6.30221e-13 0)
(664 6.81174e-13 0)
(664 6.38586e-13 0)
(664 5.12107e-13 0)
(664 4.26988e-13 0)
(664 4.18689e-13 0)
(664 4.02388e-13 0)
(664 3.79316e-13 0)
(664 3.05242e-13 0)
(664 1.59948e-13 0)
(664 4.02326e-14 0)
(664 2.88895e-14 0)
(664 6.28089e-14 0)
(664 1.15678e-13 0)
(664 1.98506e-13 0)
(664 2.14547e-13 0)
(664 1.53021e-13 0)
(664 1.1576e-13 0)
(664 6.78089e-14 0)
(664 2.96908e-14 0)
(664 2.79077e-14 0)
(664 1.41006e-13 0)
(664 3.32387e-13 0)
(664 5.37468e-13 0)
(664 7.21394e-13 0)
(664 8.8653e-13 0)
(664 1.22045e-12 0)
(664 1.84902e-12 0)
(664 2.92337e-12 0)
(664 4.68083e-12 0)
(664 7.70177e-12 0)
(664 1.27102e-11 0)
(664 2.07482e-11 0)
(664 3.37436e-11 0)
(664 5.51754e-11 0)
(664 9.08243e-11 0)
(664 1.50096e-10 0)
(664 2.48687e-10 0)
(664 4.12574e-10 0)
(664 6.84903e-10 0)
(664 1.13746e-09 0)
(664 1.88978e-09 0)
(664 3.1408e-09 0)
(664 5.22197e-09 0)
(664 8.68577e-09 0)
(664 1.44529e-08 0)
(664 2.40594e-08 0)
(664 4.00691e-08 0)
(664 6.67634e-08 0)
(664 1.11296e-07 0)
(664 1.85631e-07 0)
(664 3.0978e-07 0)
(664 5.17253e-07 0)
(664 8.64191e-07 0)
(664 1.44472e-06 0)
(664 2.41678e-06 0)
(664 4.04556e-06 0)
(664 6.77675e-06 0)
(664 1.136e-05 0)
(664 1.9057e-05 0)
(664 3.19941e-05 0)
(664 5.37567e-05 0)
(663.999 9.03973e-05 0)
(663.999 0.000152143 0)
(663.998 0.000256289 0)
(663.997 0.000432123 0)
(663.995 0.00072928 0)
(663.991 0.00123198 0)
(663.986 0.00208327 0)
(663.977 0.00352644 0)
(663.962 0.00597565 0)
(663.939 0.0101369 0)
(663.9 0.0172149 0)
(663.837 0.0292682 0)
(663.735 0.0498186 0)
(663.568 0.0848974 0)
(663.298 0.14485 0)
(662.858 0.247431 0)
(662.145 0.423175 0)
(660.992 0.72455 0)
(659.128 1.24204 0)
(656.129 2.13068 0)
(651.325 3.65848 0)
(643.719 6.27457 0)
(631.795 10.7515 0)
(614.424 18.2382 0)
(664 -2.16198e-15 0)
(664 -2.31627e-14 0)
(664 -6.82864e-14 0)
(664 -1.22041e-13 0)
(664 -1.0983e-13 0)
(664 -2.93159e-14 0)
(664 1.9791e-14 0)
(664 -5.65976e-15 0)
(664 3.92905e-15 0)
(664 8.84514e-14 0)
(664 1.24129e-13 0)
(664 7.87937e-14 0)
(664 6.76821e-14 0)
(664 2.88555e-14 0)
(664 -6.21622e-14 0)
(664 -2.20822e-13 0)
(664 -3.67886e-13 0)
(664 -4.94218e-13 0)
(664 -5.82727e-13 0)
(664 -6.31952e-13 0)
(664 -6.13268e-13 0)
(664 -5.93331e-13 0)
(664 -6.18392e-13 0)
(664 -6.61395e-13 0)
(664 -7.06463e-13 0)
(664 -7.93483e-13 0)
(664 -8.67795e-13 0)
(664 -8.90542e-13 0)
(664 -8.55145e-13 0)
(664 -7.58581e-13 0)
(664 -6.52802e-13 0)
(664 -5.67511e-13 0)
(664 -4.86612e-13 0)
(664 -4.01507e-13 0)
(664 -3.70693e-13 0)
(664 -4.74685e-13 0)
(664 -5.69595e-13 0)
(664 -5.85075e-13 0)
(664 -5.68316e-13 0)
(664 -5.8298e-13 0)
(664 -5.91924e-13 0)
(664 -6.34277e-13 0)
(664 -7.0946e-13 0)
(664 -7.74246e-13 0)
(664 -7.94256e-13 0)
(664 -7.71024e-13 0)
(664 -7.15324e-13 0)
(664 -6.3856e-13 0)
(664 -6.00487e-13 0)
(664 -6.31175e-13 0)
(664 -6.59521e-13 0)
(664 -6.66458e-13 0)
(664 -6.40122e-13 0)
(664 -6.02514e-13 0)
(664 -6.56128e-13 0)
(664 -7.0506e-13 0)
(664 -7.71823e-13 0)
(664 -7.8838e-13 0)
(664 -7.21393e-13 0)
(664 -5.86429e-13 0)
(664 -4.24855e-13 0)
(664 -3.40935e-13 0)
(664 -3.928e-13 0)
(664 -4.40981e-13 0)
(664 -5.28931e-13 0)
(664 -6.74811e-13 0)
(664 -8.15991e-13 0)
(664 -8.71623e-13 0)
(664 -8.46866e-13 0)
(664 -7.93857e-13 0)
(664 -7.01252e-13 0)
(664 -5.71499e-13 0)
(664 -4.37879e-13 0)
(664 -3.05275e-13 0)
(664 -2.59749e-13 0)
(664 -2.70088e-13 0)
(664 -3.17373e-13 0)
(664 -4.6345e-13 0)
(664 -6.8362e-13 0)
(664 -9.40915e-13 0)
(664 -1.14858e-12 0)
(664 -1.28732e-12 0)
(664 -1.38479e-12 0)
(664 -1.46277e-12 0)
(664 -1.51317e-12 0)
(664 -1.47725e-12 0)
(664 -1.25486e-12 0)
(664 -9.3268e-13 0)
(664 -6.16492e-13 0)
(664 -4.39873e-13 0)
(664 -4.12977e-13 0)
(664 -4.22533e-13 0)
(664 -4.96438e-13 0)
(664 -5.48861e-13 0)
(664 -5.54673e-13 0)
(664 -5.99116e-13 0)
(664 -6.83127e-13 0)
(664 -8.50144e-13 0)
(664 -1.00835e-12 0)
(664 -1.08214e-12 0)
(664 -1.05826e-12 0)
(664 -9.84379e-13 0)
(664 -8.87597e-13 0)
(664 -7.96731e-13 0)
(664 -7.73578e-13 0)
(664 -8.58634e-13 0)
(664 -1.08207e-12 0)
(664 -1.33341e-12 0)
(664 -1.48574e-12 0)
(664 -1.57904e-12 0)
(664 -1.54658e-12 0)
(664 -1.32226e-12 0)
(664 -1.07316e-12 0)
(664 -8.55087e-13 0)
(664 -6.11211e-13 0)
(664 -4.25432e-13 0)
(664 -2.72968e-13 0)
(664 -2.28816e-13 0)
(664 -3.5708e-13 0)
(664 -5.32199e-13 0)
(664 -7.63213e-13 0)
(664 -1.02464e-12 0)
(664 -1.19908e-12 0)
(664 -1.28467e-12 0)
(664 -1.38258e-12 0)
(664 -1.41237e-12 0)
(664 -1.41176e-12 0)
(664 -1.47031e-12 0)
(664 -1.57771e-12 0)
(664 -1.67832e-12 0)
(664 -1.65796e-12 0)
(664 -1.52404e-12 0)
(664 -1.31291e-12 0)
(664 -1.16906e-12 0)
(664 -1.10751e-12 0)
(664 -1.15524e-12 0)
(664 -1.24615e-12 0)
(664 -1.24191e-12 0)
(664 -1.0671e-12 0)
(664 -8.08914e-13 0)
(664 -6.14669e-13 0)
(664 -5.13846e-13 0)
(664 -5.00969e-13 0)
(664 -4.96039e-13 0)
(664 -5.93951e-13 0)
(664 -7.64581e-13 0)
(664 -8.74057e-13 0)
(664 -9.31358e-13 0)
(664 -8.79842e-13 0)
(664 -7.59874e-13 0)
(664 -6.27105e-13 0)
(664 -4.69889e-13 0)
(664 -3.43105e-13 0)
(664 -3.29018e-13 0)
(664 -3.78198e-13 0)
(664 -3.2226e-13 0)
(664 -2.16165e-13 0)
(664 -1.7997e-13 0)
(664 -1.62266e-13 0)
(664 -1.14535e-13 0)
(664 -7.02314e-14 0)
(664 -1.13515e-13 0)
(664 -2.09513e-13 0)
(664 -2.80642e-13 0)
(664 -2.76329e-13 0)
(664 -2.37528e-13 0)
(664 -2.26914e-13 0)
(664 -2.59947e-13 0)
(664 -3.19621e-13 0)
(664 -4.01881e-13 0)
(664 -4.51023e-13 0)
(664 -5.35229e-13 0)
(664 -6.68143e-13 0)
(664 -8.53841e-13 0)
(664 -1.07681e-12 0)
(664 -1.18903e-12 0)
(664 -1.17073e-12 0)
(664 -1.03632e-12 0)
(664 -8.98847e-13 0)
(664 -8.20978e-13 0)
(664 -6.99899e-13 0)
(664 -5.74593e-13 0)
(664 -5.92317e-13 0)
(664 -6.40856e-13 0)
(664 -6.43653e-13 0)
(664 -6.57222e-13 0)
(664 -6.29772e-13 0)
(664 -6.10444e-13 0)
(664 -6.12093e-13 0)
(664 -6.20216e-13 0)
(664 -5.46544e-13 0)
(664 -5.23319e-13 0)
(664 -6.61369e-13 0)
(664 -8.67341e-13 0)
(664 -9.94599e-13 0)
(664 -1.05469e-12 0)
(664 -1.07625e-12 0)
(664 -1.07208e-12 0)
(664 -9.19618e-13 0)
(664 -7.26231e-13 0)
(664 -6.09296e-13 0)
(664 -5.94326e-13 0)
(664 -5.84776e-13 0)
(664 -5.2946e-13 0)
(664 -4.48152e-13 0)
(664 -4.06871e-13 0)
(664 -3.43962e-13 0)
(664 -1.47365e-13 0)
(664 2.5377e-14 0)
(664 6.79178e-14 0)
(664 6.16126e-14 0)
(664 1.67169e-13 0)
(664 2.40425e-13 0)
(664 1.67494e-13 0)
(664 1.19702e-16 0)
(664 -1.8931e-13 0)
(664 -3.31047e-13 0)
(664 -3.85717e-13 0)
(664 -3.98607e-13 0)
(664 -4.58323e-13 0)
(664 -4.2971e-13 0)
(664 -2.97997e-13 0)
(664 -2.12368e-13 0)
(664 -9.40827e-14 0)
(664 1.59869e-13 0)
(664 4.72847e-13 0)
(664 7.09529e-13 0)
(664 8.1476e-13 0)
(664 8.73923e-13 0)
(664 8.76153e-13 0)
(664 7.53301e-13 0)
(664 6.02592e-13 0)
(664 4.82471e-13 0)
(664 3.98117e-13 0)
(664 3.66695e-13 0)
(664 3.47694e-13 0)
(664 3.57872e-13 0)
(664 3.90385e-13 0)
(664 4.76024e-13 0)
(664 6.33383e-13 0)
(664 1.0243e-12 0)
(664 1.84908e-12 0)
(664 3.40215e-12 0)
(664 5.98311e-12 0)
(664 1.02029e-11 0)
(664 1.71197e-11 0)
(664 2.85535e-11 0)
(664 4.74268e-11 0)
(664 7.85725e-11 0)
(664 1.30003e-10 0)
(664 2.14969e-10 0)
(664 3.55476e-10 0)
(664 5.87945e-10 0)
(664 9.72476e-10 0)
(664 1.60881e-09 0)
(664 2.66222e-09 0)
(664 4.40639e-09 0)
(664 7.2946e-09 0)
(664 1.20782e-08 0)
(664 2.00026e-08 0)
(664 3.31324e-08 0)
(664 5.48912e-08 0)
(664 9.0958e-08 0)
(664 1.50755e-07 0)
(664 2.49916e-07 0)
(664 4.14393e-07 0)
(664 6.87271e-07 0)
(664 1.1401e-06 0)
(664 1.89171e-06 0)
(664 3.13954e-06 0)
(664 5.21166e-06 0)
(664 8.65333e-06 0)
(664 1.43709e-05 0)
(664 2.38715e-05 0)
(664 3.96611e-05 0)
(664 6.59075e-05 0)
(663.999 0.000109543 0)
(663.999 0.0001821 0)
(663.998 0.00030276 0)
(663.997 0.000503438 0)
(663.996 0.000837221 0)
(663.993 0.00139242 0)
(663.989 0.00231589 0)
(663.982 0.00385185 0)
(663.971 0.0064063 0)
(663.954 0.0106539 0)
(663.925 0.0177151 0)
(663.879 0.0294503 0)
(663.806 0.048945 0)
(663.687 0.081313 0)
(663.497 0.135019 0)
(663.191 0.224056 0)
(662.702 0.371507 0)
(661.921 0.615368 0)
(660.677 1.01792 0)
(658.703 1.6809 0)
(655.583 2.76858 0)
(650.708 4.54449 0)
(643.122 7.41398 0)
(632.079 11.9935 0)
(664 -1.08242e-14 0)
(664 -3.61993e-14 0)
(664 -4.59123e-14 0)
(664 -4.04982e-14 0)
(664 -2.13868e-14 0)
(664 -6.60211e-14 0)
(664 -1.46288e-13 0)
(664 -1.8227e-13 0)
(664 -1.77537e-13 0)
(664 -2.24267e-13 0)
(664 -3.15184e-13 0)
(664 -3.90782e-13 0)
(664 -3.92582e-13 0)
(664 -3.32465e-13 0)
(664 -2.94076e-13 0)
(664 -2.46163e-13 0)
(664 -2.25356e-13 0)
(664 -2.43083e-13 0)
(664 -2.80839e-13 0)
(664 -2.67179e-13 0)
(664 -1.97747e-13 0)
(664 -8.55972e-14 0)
(664 6.20285e-14 0)
(664 1.67912e-13 0)
(664 1.68895e-13 0)
(664 9.74491e-14 0)
(664 -3.98078e-15 0)
(664 -6.90579e-14 0)
(664 -1.98369e-13 0)
(664 -3.31415e-13 0)
(664 -3.98891e-13 0)
(664 -4.70757e-13 0)
(664 -5.28726e-13 0)
(664 -6.05141e-13 0)
(664 -6.43225e-13 0)
(664 -6.71939e-13 0)
(664 -6.95543e-13 0)
(664 -6.8869e-13 0)
(664 -6.22458e-13 0)
(664 -5.24634e-13 0)
(664 -4.55545e-13 0)
(664 -4.44179e-13 0)
(664 -4.98516e-13 0)
(664 -5.96193e-13 0)
(664 -6.93777e-13 0)
(664 -7.14804e-13 0)
(664 -6.77104e-13 0)
(664 -6.10774e-13 0)
(664 -5.65838e-13 0)
(664 -4.63137e-13 0)
(664 -3.79483e-13 0)
(664 -3.62108e-13 0)
(664 -3.85579e-13 0)
(664 -4.39745e-13 0)
(664 -5.00411e-13 0)
(664 -5.83593e-13 0)
(664 -6.93033e-13 0)
(664 -7.62678e-13 0)
(664 -8.34756e-13 0)
(664 -9.39413e-13 0)
(664 -9.7701e-13 0)
(664 -9.74127e-13 0)
(664 -1.01349e-12 0)
(664 -1.12555e-12 0)
(664 -1.14819e-12 0)
(664 -1.08872e-12 0)
(664 -9.9243e-13 0)
(664 -8.69603e-13 0)
(664 -7.31515e-13 0)
(664 -6.52523e-13 0)
(664 -6.318e-13 0)
(664 -6.4685e-13 0)
(664 -6.21125e-13 0)
(664 -5.75926e-13 0)
(664 -5.38772e-13 0)
(664 -5.71461e-13 0)
(664 -6.04131e-13 0)
(664 -6.91913e-13 0)
(664 -9.0706e-13 0)
(664 -1.19265e-12 0)
(664 -1.37317e-12 0)
(664 -1.4304e-12 0)
(664 -1.38438e-12 0)
(664 -1.3058e-12 0)
(664 -1.2894e-12 0)
(664 -1.28703e-12 0)
(664 -1.26264e-12 0)
(664 -1.20082e-12 0)
(664 -1.17127e-12 0)
(664 -1.24138e-12 0)
(664 -1.3298e-12 0)
(664 -1.38374e-12 0)
(664 -1.37773e-12 0)
(664 -1.3374e-12 0)
(664 -1.24459e-12 0)
(664 -1.08068e-12 0)
(664 -9.99001e-13 0)
(664 -9.94921e-13 0)
(664 -9.7961e-13 0)
(664 -9.18216e-13 0)
(664 -7.29875e-13 0)
(664 -4.79268e-13 0)
(664 -3.28329e-13 0)
(664 -3.83758e-13 0)
(664 -5.8775e-13 0)
(664 -7.31505e-13 0)
(664 -6.88005e-13 0)
(664 -5.76065e-13 0)
(664 -5.3412e-13 0)
(664 -6.13859e-13 0)
(664 -7.25924e-13 0)
(664 -7.70864e-13 0)
(664 -7.86628e-13 0)
(664 -7.45081e-13 0)
(664 -7.2092e-13 0)
(664 -6.97944e-13 0)
(664 -7.35947e-13 0)
(664 -8.00808e-13 0)
(664 -9.2616e-13 0)
(664 -1.12512e-12 0)
(664 -1.21963e-12 0)
(664 -1.1835e-12 0)
(664 -1.10661e-12 0)
(664 -9.74763e-13 0)
(664 -7.74877e-13 0)
(664 -5.70263e-13 0)
(664 -3.52034e-13 0)
(664 -1.72454e-13 0)
(664 -4.62239e-14 0)
(664 7.98553e-15 0)
(664 -7.62665e-15 0)
(664 -5.62165e-14 0)
(664 -1.45053e-13 0)
(664 -2.64385e-13 0)
(664 -3.68355e-13 0)
(664 -6.06071e-13 0)
(664 -9.35571e-13 0)
(664 -1.17142e-12 0)
(664 -1.31174e-12 0)
(664 -1.3713e-12 0)
(664 -1.44375e-12 0)
(664 -1.46668e-12 0)
(664 -1.40372e-12 0)
(664 -1.3746e-12 0)
(664 -1.46907e-12 0)
(664 -1.59032e-12 0)
(664 -1.63496e-12 0)
(664 -1.58549e-12 0)
(664 -1.4968e-12 0)
(664 -1.43344e-12 0)
(664 -1.43575e-12 0)
(664 -1.53729e-12 0)
(664 -1.61855e-12 0)
(664 -1.55503e-12 0)
(664 -1.42138e-12 0)
(664 -1.28274e-12 0)
(664 -1.26814e-12 0)
(664 -1.3302e-12 0)
(664 -1.36328e-12 0)
(664 -1.2896e-12 0)
(664 -1.13028e-12 0)
(664 -9.67698e-13 0)
(664 -9.52797e-13 0)
(664 -1.02239e-12 0)
(664 -1.01743e-12 0)
(664 -8.5263e-13 0)
(664 -6.42665e-13 0)
(664 -5.22286e-13 0)
(664 -5.10733e-13 0)
(664 -5.91521e-13 0)
(664 -6.48049e-13 0)
(664 -6.95075e-13 0)
(664 -8.20686e-13 0)
(664 -9.33467e-13 0)
(664 -9.14813e-13 0)
(664 -7.82721e-13 0)
(664 -6.14454e-13 0)
(664 -4.06207e-13 0)
(664 -1.42227e-13 0)
(664 2.66002e-16 0)
(664 -9.0294e-14 0)
(664 -3.81325e-13 0)
(664 -7.76406e-13 0)
(664 -1.02502e-12 0)
(664 -1.19079e-12 0)
(664 -1.32939e-12 0)
(664 -1.3618e-12 0)
(664 -1.21368e-12 0)
(664 -1.05539e-12 0)
(664 -9.18969e-13 0)
(664 -8.49e-13 0)
(664 -7.6375e-13 0)
(664 -5.9333e-13 0)
(664 -4.01326e-13 0)
(664 -2.46723e-13 0)
(664 -2.53898e-13 0)
(664 -3.48015e-13 0)
(664 -3.88492e-13 0)
(664 -3.60474e-13 0)
(664 -3.23641e-13 0)
(664 -3.55269e-13 0)
(664 -5.0079e-13 0)
(664 -7.06691e-13 0)
(664 -8.08079e-13 0)
(664 -8.15431e-13 0)
(664 -8.08755e-13 0)
(664 -8.27163e-13 0)
(664 -8.42305e-13 0)
(664 -7.60905e-13 0)
(664 -5.74807e-13 0)
(664 -3.93076e-13 0)
(664 -2.703e-13 0)
(664 -1.4227e-13 0)
(664 -3.20702e-14 0)
(664 -1.90751e-14 0)
(664 -3.78164e-14 0)
(664 2.32142e-14 0)
(664 1.0732e-13 0)
(664 1.01262e-13 0)
(664 6.21399e-14 0)
(664 1.01061e-13 0)
(664 1.36125e-13 0)
(664 2.00295e-13 0)
(664 3.06126e-13 0)
(664 3.97258e-13 0)
(664 4.08893e-13 0)
(664 3.00159e-13 0)
(664 2.17565e-13 0)
(664 2.0213e-13 0)
(664 2.00453e-13 0)
(664 1.1738e-13 0)
(664 -9.83999e-14 0)
(664 -2.84251e-13 0)
(664 -3.42253e-13 0)
(664 -2.75035e-13 0)
(664 -1.29331e-13 0)
(664 7.54683e-14 0)
(664 3.1153e-13 0)
(664 5.90566e-13 0)
(664 1.04523e-12 0)
(664 1.79315e-12 0)
(664 2.96112e-12 0)
(664 4.80171e-12 0)
(664 7.82972e-12 0)
(664 1.27358e-11 0)
(664 2.06607e-11 0)
(664 3.35708e-11 0)
(664 5.48394e-11 0)
(664 9.00365e-11 0)
(664 1.48086e-10 0)
(664 2.43703e-10 0)
(664 4.0136e-10 0)
(664 6.61255e-10 0)
(664 1.08948e-09 0)
(664 1.7951e-09 0)
(664 2.95767e-09 0)
(664 4.87302e-09 0)
(664 8.02841e-09 0)
(664 1.32265e-08 0)
(664 2.17899e-08 0)
(664 3.58971e-08 0)
(664 5.91368e-08 0)
(664 9.74209e-08 0)
(664 1.60487e-07 0)
(664 2.64374e-07 0)
(664 4.35498e-07 0)
(664 7.17363e-07 0)
(664 1.18161e-06 0)
(664 1.94619e-06 0)
(664 3.20532e-06 0)
(664 5.27867e-06 0)
(664 8.69236e-06 0)
(664 1.43122e-05 0)
(664 2.35624e-05 0)
(664 3.87856e-05 0)
(664 6.38336e-05 0)
(664 0.000105037 0)
(663.999 0.000172799 0)
(663.999 0.000284203 0)
(663.998 0.000467294 0)
(663.997 0.000768086 0)
(663.995 0.00126203 0)
(663.992 0.00207274 0)
(663.987 0.00340265 0)
(663.98 0.00558288 0)
(663.967 0.00915462 0)
(663.947 0.0150014 0)
(663.916 0.0245638 0)
(663.865 0.0401876 0)
(663.785 0.0656861 0)
(663.657 0.107247 0)
(663.454 0.17489 0)
(663.132 0.284792 0)
(662.621 0.463003 0)
(661.814 0.75124 0)
(660.542 1.21612 0)
(658.544 1.96248 0)
(655.432 3.15537 0)
(650.581 5.04207 0)
(643.458 8.00287 0)
(664 2.58294e-14 0)
(664 4.35813e-14 0)
(664 7.87628e-14 0)
(664 1.32198e-13 0)
(664 1.55312e-13 0)
(664 1.57938e-13 0)
(664 1.65157e-13 0)
(664 1.99119e-13 0)
(664 2.2574e-13 0)
(664 1.84759e-13 0)
(664 1.18676e-13 0)
(664 5.01592e-14 0)
(664 1.04018e-14 0)
(664 -2.32871e-14 0)
(664 -5.25882e-14 0)
(664 -9.40074e-14 0)
(664 -7.22808e-14 0)
(664 7.7078e-14 0)
(664 2.0575e-13 0)
(664 2.52501e-13 0)
(664 3.05474e-13 0)
(664 4.02665e-13 0)
(664 4.03037e-13 0)
(664 2.76465e-13 0)
(664 1.76874e-13 0)
(664 1.53623e-13 0)
(664 1.20252e-13 0)
(664 6.53218e-14 0)
(664 1.20593e-14 0)
(664 -9.26595e-14 0)
(664 -2.38053e-13 0)
(664 -3.13458e-13 0)
(664 -2.77619e-13 0)
(664 -1.93988e-13 0)
(664 -1.31689e-13 0)
(664 -9.71223e-14 0)
(664 -9.98101e-14 0)
(664 -1.06627e-13 0)
(664 -1.05936e-13 0)
(664 -1.59914e-13 0)
(664 -3.08081e-13 0)
(664 -4.32018e-13 0)
(664 -4.74071e-13 0)
(664 -4.97412e-13 0)
(664 -5.33332e-13 0)
(664 -6.19231e-13 0)
(664 -7.13783e-13 0)
(664 -7.63842e-13 0)
(664 -7.87305e-13 0)
(664 -7.21988e-13 0)
(664 -5.55814e-13 0)
(664 -3.30207e-13 0)
(664 -2.16335e-13 0)
(664 -2.46142e-13 0)
(664 -3.23614e-13 0)
(664 -4.21322e-13 0)
(664 -4.7806e-13 0)
(664 -5.7671e-13 0)
(664 -7.10142e-13 0)
(664 -9.38918e-13 0)
(664 -1.14496e-12 0)
(664 -1.25165e-12 0)
(664 -1.30194e-12 0)
(664 -1.32553e-12 0)
(664 -1.29984e-12 0)
(664 -1.26457e-12 0)
(664 -1.16877e-12 0)
(664 -1.12896e-12 0)
(664 -1.13768e-12 0)
(664 -1.09484e-12 0)
(664 -1.0935e-12 0)
(664 -1.20905e-12 0)
(664 -1.36286e-12 0)
(664 -1.38034e-12 0)
(664 -1.25943e-12 0)
(664 -1.14629e-12 0)
(664 -1.02948e-12 0)
(664 -9.51325e-13 0)
(664 -9.30826e-13 0)
(664 -8.50812e-13 0)
(664 -7.36866e-13 0)
(664 -6.65129e-13 0)
(664 -6.64256e-13 0)
(664 -6.90922e-13 0)
(664 -6.70986e-13 0)
(664 -7.06773e-13 0)
(664 -8.34926e-13 0)
(664 -9.73659e-13 0)
(664 -1.1035e-12 0)
(664 -1.1811e-12 0)
(664 -1.17797e-12 0)
(664 -1.14213e-12 0)
(664 -1.05689e-12 0)
(664 -9.90992e-13 0)
(664 -8.57042e-13 0)
(664 -6.36116e-13 0)
(664 -4.28791e-13 0)
(664 -3.89103e-13 0)
(664 -4.61108e-13 0)
(664 -5.7662e-13 0)
(664 -7.26856e-13 0)
(664 -9.00684e-13 0)
(664 -1.11439e-12 0)
(664 -1.2798e-12 0)
(664 -1.30029e-12 0)
(664 -1.19294e-12 0)
(664 -1.01866e-12 0)
(664 -9.12029e-13 0)
(664 -8.36423e-13 0)
(664 -7.05218e-13 0)
(664 -6.45146e-13 0)
(664 -6.45672e-13 0)
(664 -5.94283e-13 0)
(664 -4.95069e-13 0)
(664 -4.38627e-13 0)
(664 -4.9846e-13 0)
(664 -6.59829e-13 0)
(664 -8.69477e-13 0)
(664 -9.78886e-13 0)
(664 -1.05031e-12 0)
(664 -1.14154e-12 0)
(664 -1.17596e-12 0)
(664 -1.25024e-12 0)
(664 -1.41237e-12 0)
(664 -1.62067e-12 0)
(664 -1.8304e-12 0)
(664 -1.9786e-12 0)
(664 -2.01997e-12 0)
(664 -1.94354e-12 0)
(664 -1.82263e-12 0)
(664 -1.72791e-12 0)
(664 -1.62888e-12 0)
(664 -1.49115e-12 0)
(664 -1.36341e-12 0)
(664 -1.26126e-12 0)
(664 -1.03468e-12 0)
(664 -6.74058e-13 0)
(664 -4.0385e-13 0)
(664 -3.7428e-13 0)
(664 -3.80602e-13 0)
(664 -3.27712e-13 0)
(664 -3.28004e-13 0)
(664 -2.73068e-13 0)
(664 -1.58277e-13 0)
(664 -3.4819e-14 0)
(664 -1.36157e-14 0)
(664 -9.56172e-14 0)
(664 -1.12677e-13 0)
(664 -1.2998e-13 0)
(664 -2.2444e-13 0)
(664 -5.02178e-13 0)
(664 -7.98314e-13 0)
(664 -1.06686e-12 0)
(664 -1.16826e-12 0)
(664 -1.18811e-12 0)
(664 -1.2302e-12 0)
(664 -1.21317e-12 0)
(664 -1.15281e-12 0)
(664 -1.12619e-12 0)
(664 -1.22283e-12 0)
(664 -1.28781e-12 0)
(664 -1.2713e-12 0)
(664 -1.24534e-12 0)
(664 -1.2216e-12 0)
(664 -1.24995e-12 0)
(664 -1.31654e-12 0)
(664 -1.29786e-12 0)
(664 -1.1691e-12 0)
(664 -1.00652e-12 0)
(664 -8.54957e-13 0)
(664 -7.60549e-13 0)
(664 -6.58437e-13 0)
(664 -5.04981e-13 0)
(664 -3.00774e-13 0)
(664 -1.28315e-13 0)
(664 -2.88051e-14 0)
(664 -1.23721e-14 0)
(664 -1.14473e-13 0)
(664 -2.10778e-13 0)
(664 -2.25509e-13 0)
(664 -6.87113e-14 0)
(664 1.30562e-13 0)
(664 3.51755e-13 0)
(664 5.32713e-13 0)
(664 6.06721e-13 0)
(664 6.56149e-13 0)
(664 6.86338e-13 0)
(664 7.58233e-13 0)
(664 7.98215e-13 0)
(664 7.37368e-13 0)
(664 6.08713e-13 0)
(664 5.53756e-13 0)
(664 5.18278e-13 0)
(664 4.1397e-13 0)
(664 1.94749e-13 0)
(664 -7.41952e-14 0)
(664 -3.66285e-13 0)
(664 -6.35145e-13 0)
(664 -8.58677e-13 0)
(664 -9.12037e-13 0)
(664 -8.86781e-13 0)
(664 -8.31238e-13 0)
(664 -7.69318e-13 0)