/*--------------------------------*- C++ -*----------------------------------*\
| =========                 |                                                 |
| \\      /  F ield         | OpenFOAM: The Open Source CFD Toolbox           |
|  \\    /   O peration     | Version:  2412                                  |
|   \\  /    A nd           | Website:  www.openfoam.com                      |
|    \\/     M anipulation  |                                                 |
\*---------------------------------------------------------------------------*/
FoamFile
{
    version     2.0;
    format      ascii;
    arch        "LSB;label=32;scalar=64";
    class       volScalarField;
    location    "8.5";
    object      p;
}
// * * * * * * * * * * * * * * * * * * * * * * * * * * * * * * * * * * * * * //

dimensions      [1 -1 -2 0 0 0 0];

internalField   nonuniform List<scalar> 
5250
(
1.00001
1.00005
1.00012
1.00035
1.00072
1.00207
1.00411
1.01245
1.02255
1.07988
1.13693
1.51769
2.15907
4.63697
10.4027
11.073
10.9599
10.9608
11.0551
11.2826
11.4967
11.6335
11.742
11.8284
11.8954
1.00001
1.00005
1.00012
1.00034
1.00071
1.00204
1.00404
1.0123
1.02216
1.07908
1.13473
1.5129
2.14121
4.5989
10.3178
11.0639
10.953
10.9535
11.0475
11.2745
11.4876
11.6245
11.7344
11.822
11.8902
1.00001
1.00005
1.00011
1.00033
1.00069
1.00198
1.0039
1.01198
1.02132
1.07744
1.13011
1.50281
2.10337
4.51604
10.1269
11.0439
10.9351
10.9286
11.0197
11.2419
11.4507
11.5852
11.6939
11.78
11.8474
1.00001
1.00004
1.00011
1.00032
1.00066
1.00189
1.00371
1.01149
1.02029
1.07455
1.12366
1.48646
2.04615
4.38667
9.82339
11.0226
10.912
10.8861
10.9719
11.1849
11.3868
11.516
11.6207
11.7037
11.7706
1.00001
1.00004
1.0001
1.0003
1.00062
1.00178
1.00349
1.01086
1.01903
1.07052
1.11565
1.4622
1.9718
4.20654
9.39513
11.0097
10.889
10.8285
10.9065
11.1062
11.2994
11.4212
11.5191
11.597
11.6641
1.00001
1.00004
1.00009
1.00028
1.00058
1.00166
1.00325
1.0101
1.01771
1.06561
1.10725
1.42835
1.89128
3.96442
8.82448
11.0146
10.8709
10.7562
10.8237
11.0049
11.1857
11.2954
11.3824
11.452
11.5186
1.00001
1.00004
1.00009
1.00026
1.00053
1.00152
1.00298
1.00924
1.01623
1.05995
1.09778
1.38846
1.80332
3.66345
8.0982
11.0411
10.8601
10.6689
10.7233
10.8804
11.0439
11.1348
11.202
11.2526
11.3119
1
1.00003
1.00008
1.00023
1.00048
1.00138
1.00273
1.00827
1.01496
1.05296
1.08791
1.34222
1.70184
3.31841
7.21177
11.0966
10.8571
10.569
10.6063
10.7298
10.869
10.9321
10.9673
10.981
11.013
1
1.00003
1.00007
1.00021
1.00043
1.00122
1.00246
1.00722
1.01359
1.04547
1.07752
1.29315
1.5951
2.95496
6.21493
11.1148
10.8462
10.4659
10.4767
10.5538
10.6589
10.6798
10.6628
10.5993
10.5414
1
1.00002
1.00006
1.00018
1.00037
1.00104
1.00209
1.00613
1.01151
1.0383
1.06514
1.24495
1.48044
2.60313
5.20556
10.9817
10.7713
10.37
10.3166
10.3538
10.4044
10.379
10.2795
10.0557
9.72669
1
1.00002
1.00006
1.00013
1.00038
1.00077
1.00221
1.00433
1.01344
1.02391
1.08572
1.15004
1.54725
2.25276
4.75425
10.383
10.4998
10.2835
10.1256
10.1265
10.114
10.0266
9.77832
9.21142
7.80321
1
1.00002
1.00005
1.00014
1.00029
1.00081
1.00164
1.0047
1.00924
1.02857
1.05127
1.18493
1.33638
2.24958
4.0054
9.34474
10.2706
10.144
9.9394
9.88677
9.81464
9.64253
9.26424
8.51187
7.09614
1
1.00002
1.00004
1.00012
1.00025
1.0007
1.00143
1.00405
1.00803
1.0243
1.0443
1.15667
1.28215
2.04919
3.47847
8.13571
10.1345
10.0283
9.78427
9.64822
9.52321
9.27496
8.81724
8.07088
6.96426
1
1.00001
1.00003
1.0001
1.00021
1.00059
1.0012
1.00339
1.00669
1.02035
1.03658
1.13087
1.22942
1.86478
2.99021
6.84314
10.0515
9.93732
9.64662
9.4199
9.23932
8.95419
8.48859
7.81263
6.94287
1
1.00001
1.00003
1.00008
1.00018
1.0005
1.00101
1.00285
1.00575
1.01655
1.03255
1.10139
1.19421
1.66243
2.53918
5.47348
9.87531
9.80806
9.53685
9.21454
8.98308
8.68483
8.24536
7.64026
6.91139
1
1.00001
1.00002
1.00007
1.00014
1.0004
1.00082
1.00231
1.00466
1.01333
1.02642
1.08006
1.15714
1.51098
2.18136
4.45681
9.32413
9.57993
9.39918
9.03386
8.76278
8.46029
8.0502
7.51054
6.87637
1
1.00001
1.00002
1.00005
1.00011
1.00031
1.00064
1.0018
1.0036
1.01053
1.01966
1.06576
1.11358
1.42113
1.89248
3.81203
8.12541
9.29614
9.18437
8.89792
8.58299
8.2723
7.88589
7.40016
6.83816
1
1.00001
1.00001
1.00004
1.00009
1.00025
1.0005
1.00141
1.00283
1.00825
1.01549
1.05147
1.08769
1.33
1.66696
3.17589
6.58179
9.07603
9.02043
8.80187
8.44206
8.11472
7.74898
7.30752
6.80494
1
1
1.00001
1.00003
1.00007
1.00019
1.00039
1.00108
1.00218
1.00624
1.01202
1.03828
1.06642
1.24314
1.47633
2.55907
4.90822
8.77051
8.89496
8.7302
8.36207
7.9917
7.63309
7.22945
6.7776
1
1
1.00001
1.00002
1.00006
1.00013
1.00035
1.00071
1.00201
1.00405
1.01163
1.02297
1.06986
1.13599
1.43869
2.00516
3.87265
7.97545
8.71393
8.59429
8.28763
7.89276
7.537
7.16295
6.7549
1
1
1.00001
1.00002
1.00005
1.00009
1.00026
1.00053
1.00148
1.00299
1.00859
1.01645
1.05278
1.09323
1.33333
1.69651
3.15801
6.41936
8.44147
8.40546
8.2173
7.83005
7.46483
7.11387
6.74071
1
1
1
1.00001
1.00003
1.00008
1.00017
1.00046
1.00094
1.00264
1.00531
1.0154
1.02977
1.0939
1.17984
1.59561
2.36852
4.78772
8.06567
8.2719
8.13899
7.81566
7.42432
7.0778
6.7342
1
1
1
1.00001
1.00002
1.00005
1.00014
1.00028
1.00077
1.00155
1.00441
1.00859
1.02646
1.04715
1.16614
1.30292
2.06094
3.44191
7.21906
8.13057
8.04418
7.80011
7.42113
7.0661
6.73624
1
1
1
1.00001
1.00001
1.00004
1.00008
1.00022
1.00045
1.00128
1.00248
1.00767
1.01334
1.048
1.07853
1.29831
1.58512
2.88392
5.59041
7.87094
7.89024
7.76147
7.44179
7.07149
6.74629
1
1
1
1
1.00001
1.00003
1.00007
1.00014
1.0004
1.0008
1.00224
1.00452
1.0129
1.02544
1.07673
1.15017
1.47213
2.07552
3.86612
7.3279
7.80186
7.70999
7.46567
7.09573
6.77744
1
1
1
1
1.00001
1.00002
1.00005
1.0001
1.00028
1.00057
1.00157
1.00318
1.00896
1.01775
1.05318
1.10058
1.32695
1.71893
3.06685
6.0778
7.60109
7.59073
7.46156
7.16256
6.84716
1
1
1
1
1.00001
1.00001
1.00003
1.00008
1.00016
1.00046
1.00092
1.00258
1.00518
1.01484
1.02897
1.08896
1.17213
1.55356
2.2564
4.38002
7.16754
7.51512
7.44326
7.25026
6.97831
1
1
1
1
1
1.00001
1.00002
1.00005
1.00013
1.00026
1.00071
1.00144
1.00404
1.0079
1.02391
1.04287
1.14765
1.26753
1.92
3.06456
6.21049
7.36667
7.40208
7.33974
7.1944
1
1
1
1
1
1.00001
1.00001
1.00004
1.00007
1.0002
1.00041
1.00114
1.0023
1.00653
1.01248
1.03938
1.06861
1.24312
1.46896
2.48769
4.52912
6.99964
7.41775
7.46389
7.49102
1
1
1
1
1
1
1.00001
1.00002
1.00005
1.00014
1.00028
1.00077
1.00156
1.00433
1.00868
1.02499
1.04748
1.15197
1.28901
1.93856
3.11259
6.19548
7.37343
7.71307
7.93532
1
1
1
1
1
1
1.00001
1.00001
1.00004
1.00008
1.00021
1.00043
1.00119
1.00241
1.00677
1.01316
1.04035
1.07177
1.24924
1.48406
2.51045
4.56859
7.15475
8.13691
8.68363
1
1
1
1
1
1
1
1.00001
1.00003
1.00005
1.00015
1.0003
1.00081
1.00165
1.00456
1.00917
1.02621
1.05053
1.15819
1.30793
1.98518
3.2339
6.55832
8.82766
9.76882
1
1
1
1
1
1
1
1.00001
1.00002
1.00004
1.00008
1.00023
1.00047
1.0013
1.0026
1.00743
1.0141
1.04499
1.0782
1.2792
1.54872
2.72134
5.10935
9.72577
10.9454
1
1
1
1
1
1
1
1
1.00001
1.00003
1.00007
1.00015
1.00042
1.00086
1.00242
1.00489
1.01405
1.0277
1.08525
1.16428
1.54503
2.26121
4.64519
9.92346
11.6406
1
1
1
1
1
1
1
1
1.00001
1.00002
1.00006
1.00012
1.00035
1.0007
1.002
1.00404
1.01176
1.02293
1.07362
1.13505
1.48374
2.10808
4.4107
9.87662
11.8693
1
1
1
1
1
1
1
1
1.00001
1.00002
1.00005
1.0001
1.00028
1.00056
1.00167
1.00315
1.01051
1.01798
1.06899
1.11577
1.45722
2.01478
4.2492
9.73047
11.8497
1
1
1
1
1
1
1
1
1.00001
1.00002
1.00004
1.00011
1.00022
1.00064
1.00127
1.00389
1.0072
1.02508
1.04281
1.16641
1.29994
2.17661
3.86581
9.51596
11.7961
1
1
1
1
1
1
1
1
1.00001
1.00002
1.00004
1.0001
1.0002
1.00059
1.00117
1.00361
1.00656
1.02349
1.03934
1.15666
1.27835
2.12313
3.70714
9.22258
11.7618
1
1
1
1
1
1
1
1
1.00001
1.00001
1.00004
1.00007
1.00021
1.0004
1.00135
1.00227
1.00874
1.01404
1.05748
1.09419
1.39327
1.83628
3.80753
8.7967
11.7823
1
1
1
1
1
1
1
1
1.00001
1.00002
1.00003
1.00009
1.00019
1.00054
1.00108
1.00327
1.00604
1.02109
1.0354
1.14025
1.24538
2.00476
3.38937
8.38448
11.8659
1
1
1
1
1
1
1
1
1.00001
1.00002
1.00003
1.00009
1.00018
1.00052
1.00104
1.00307
1.00593
1.01942
1.03372
1.13034
1.22804
1.92446
3.20585
7.91469
12.0213
1
1
1
1
1
1
1
1
1.00001
1.00001
1.00003
1.00006
1.00019
1.00036
1.00113
1.00198
1.00726
1.01173
1.04708
1.07687
1.31519
1.65571
3.21568
7.25555
12.2166
1
1
1
1
1
1
1
1
1
1.00001
1.00003
1.00008
1.00016
1.00046
1.00093
1.00274
1.00529
1.01716
1.03003
1.11302
1.19969
1.77197
2.83943
6.73841
12.4231
1
1
1
1
1
1
1
1
1.00001
1.00001
1.00003
1.00006
1.00018
1.00037
1.00106
1.00208
1.00642
1.01147
1.04155
1.06856
1.26938
1.54334
2.82045
6.02342
12.5378
1
1
1
1
1
1
1
1
1.00001
1.00001
1.00003
1.00006
1.00018
1.00037
1.00104
1.00208
1.00621
1.01143
1.03951
1.06626
1.25612
1.51041
2.71629
5.70762
12.4295
1
1
1
1
1
1
1
1
1
1.00001
1.00003
1.00008
1.00016
1.00044
1.0009
1.00258
1.00518
1.01541
1.02927
1.09793
1.1807
1.65082
2.52858
5.69421
12.2024
1
1
1
1
1
1
1
1
1
1.00001
1.00003
1.00008
1.00016
1.00044
1.0009
1.00257
1.00518
1.01513
1.02974
1.0941
1.17965
1.62731
2.48263
5.56749
12.0215
1
1
1
1
1
1
1
1
1
1.00001
1.00003
1.00008
1.00015
1.00043
1.00088
1.00252
1.00507
1.01493
1.02868
1.09419
1.17472
1.62456
2.46489
5.50451
11.9485
1
1
1
1
1
1
1
1
1.00001
1.00001
1.00003
1.00006
1.00017
1.00034
1.00097
1.00189
1.00588
1.01026
1.03766
1.06126
1.23959
1.46652
2.60353
5.2481
11.8821
1
1
1
1
1
1
1
1
1
1.00001
1.00003
1.00007
1.00015
1.00043
1.00087
1.00247
1.00497
1.01468
1.02801
1.09288
1.17113
1.61357
2.43649
5.41383
11.8212
3.86083
3.27343
4.19689
4.27275
4.01752
3.90665
3.84944
3.76684
3.66407
3.57009
3.49518
3.42647
3.3524
3.3118
3.29627
3.29349
3.31561
3.36806
3.44476
3.53795
3.64005
3.74624
3.85057
3.95188
4.04937
4.14317
4.23337
4.32003
4.40301
4.48206
4.55758
4.62848
4.69374
4.75252
4.80508
4.85115
4.89162
4.92627
4.95857
4.98497
5.00333
5.01584
5.02291
5.02502
5.02356
5.01819
5.00689
4.99077
4.97186
4.94997
4.92558
4.89827
4.86867
4.83662
4.80274
4.76679
4.72935
4.69017
4.64975
4.60789
4.56496
4.5209
4.47593
4.43004
4.38343
4.33608
4.28819
4.23972
4.19085
4.14157
4.09203
4.04224
3.99233
3.94233
3.89237
3.84247
3.79276
3.74327
3.69409
3.64523
3.59676
3.54871
3.50112
3.454
3.40742
3.36141
3.31596
3.27103
3.22678
3.1832
3.1403
3.09814
3.05683
3.01669
2.97791
2.9409
2.90622
2.87485
2.84801
2.82884
4.7208
4.18156
4.32579
4.21671
3.9928
3.9342
3.89603
3.78759
3.66009
3.55077
3.47354
3.41571
3.35685
3.31269
3.29302
3.28896
3.30873
3.36064
3.43828
3.53252
3.63467
3.74161
3.84609
3.94714
4.04418
4.13727
4.22668
4.31252
4.39464
4.47177
4.54806
4.61938
4.68475
4.74358
4.79648
4.84317
4.88398
4.91933
4.95098
4.97694
4.99596
5.00874
5.01621
5.01845
5.01741
5.01306
5.00275
4.98576
4.96664
4.94515
4.9211
4.89421
4.86484
4.8331
4.79935
4.76369
4.72632
4.6874
4.64702
4.60536
4.5625
4.51858
4.47367
4.42791
4.38135
4.33412
4.28625
4.23787
4.18903
4.13981
4.09029
4.04055
3.99066
3.94069
3.89075
3.84089
3.79122
3.74177
3.69263
3.64381
3.59539
3.54737
3.49982
3.4527
3.40618
3.36018
3.31472
3.26969
3.22549
3.18192
3.13906
3.09699
3.05584
3.01568
2.97683
2.93972
2.90488
2.87326
2.84601
2.82635
5.49939
4.73675
4.48707
4.24926
4.0286
3.92839
3.84838
3.75476
3.64734
3.54883
3.47699
3.41973
3.35595
3.30413
3.2753
3.27042
3.29737
3.34985
3.42515
3.519
3.61998
3.7302
3.83397
3.93551
4.03295
4.1268
4.21707
4.30379
4.38687
4.46586
4.54167
4.61247
4.67765
4.73656
4.78945
4.83625
4.87711
4.91258
4.94331
4.96878
4.98786
5.00088
5.00834
5.01058
5.00975
5.00626
4.99752
4.98031
4.96057
4.93898
4.91509
4.88861
4.85953
4.82807
4.79452
4.75906
4.72188
4.68311
4.64289
4.60137
4.55864
4.51483
4.47003
4.42436
4.37789
4.33073
4.28294
4.23462
4.18582
4.13666
4.08716
4.03745
3.98758
3.93765
3.88773
3.83792
3.7883
3.73891
3.68983
3.64108
3.59273
3.54482
3.49735
3.45021
3.40384
3.35802
3.31271
3.2681
3.22382
3.18017
3.13724
3.09515
3.05395
3.01382
2.97494
2.93774
2.90269
2.87074
2.84291
2.82248
5.85572
5.06039
4.61753
4.32547
4.10023
3.9525
3.855
3.7557
3.64759
3.54651
3.4714
3.40762
3.34998
3.30682
3.28351
3.28178
3.29782
3.34577
3.42376
3.51537
3.61519
3.72095
3.82485
3.92604
4.02363
4.11751
4.20764
4.29397
4.37646
4.45492
4.5297
4.59979
4.66448
4.7229
4.77551
4.82205
4.86298
4.89822
4.92848
4.95337
4.9725
4.9857
4.99343
4.99575
4.99513
4.99242
4.98534
4.97042
4.94987
4.9278
4.90406
4.87808
4.8496
4.81874
4.78566
4.75061
4.71376
4.67531
4.63538
4.59412
4.55163
4.50805
4.46347
4.41799
4.3717
4.3247
4.27705
4.22885
4.18016
4.13107
4.08166
4.032
3.9822
3.93235
3.88253
3.83284
3.78338
3.73415
3.68526
3.63666
3.58849
3.54076
3.49354
3.44693
3.40056
3.35464
3.30934
3.26462
3.2205
3.17696
3.13418
3.09215
3.05106
3.01097
2.97216
2.9349
2.89972
2.86744
2.83907
2.81786
6.03594
5.2895
4.78103
4.44514
4.19875
4.01475
3.88793
3.77809
3.67032
3.575
3.50303
3.44223
3.38996
3.34983
3.3262
3.32346
3.33313
3.36611
3.4351
3.52045
3.61163
3.70965
3.8116
3.91269
4.01074
4.10506
4.19534
4.28149
4.36347
4.44133
4.51511
4.5842
4.64802
4.70592
4.75803
4.80419
4.84482
4.87997
4.90998
4.93458
4.95367
4.96706
4.97504
4.97752
4.97701
4.97484
4.96915
4.95688
4.9368
4.91447
4.89068
4.86498
4.83703
4.80676
4.77425
4.7397
4.70331
4.66525
4.62569
4.58477
4.5426
4.49931
4.455
4.40978
4.36371
4.31691
4.26944
4.2214
4.17284
4.12387
4.07455
4.025
3.9753
3.92558
3.87588
3.82641
3.77715
3.7281
3.67938
3.63109
3.58324
3.53576
3.48873
3.44215
3.39599
3.35026
3.30509
3.26049
3.21653
3.17319
3.13056
3.0887
3.04771
3.00777
2.96902
2.93186
2.89661
2.86418
2.83538
2.81333
6.14077
5.46941
4.95248
4.58127
4.31307
4.10925
3.95873
3.83601
3.73171
3.64613
3.5807
3.52933
3.48885
3.45813
3.43917
3.43498
3.43773
3.44924
3.47943
3.53983
3.61041
3.69373
3.79323
3.89724
3.9983
4.09415
4.18436
4.26913
4.349
4.42445
4.49579
4.56279
4.62499
4.68188
4.7333
4.77917
4.81963
4.85469
4.88456
4.90915
4.92845
4.94237
4.95097
4.9541
4.95374
4.9521
4.94769
4.93804
4.91978
4.89796
4.87413
4.84854
4.82101
4.79136
4.75952
4.72561
4.68979
4.65224
4.61313
4.57262
4.53082
4.48789
4.44389
4.39898
4.35317
4.30663
4.25936
4.21152
4.1631
4.11428
4.06507
4.01566
3.96611
3.91659
3.86702
3.81782
3.7689
3.72033
3.67208
3.62416
3.57657
3.52931
3.48244
3.43601
3.39004
3.34454
3.29956
3.25515
3.21136
3.16826
3.12584
3.08424
3.04348
3.00382
2.96531
2.9284
2.89332
2.861
2.8321
2.80968
6.21071
5.60903
5.10975
4.72423
4.43344
4.21564
4.05274
3.92812
3.83311
3.76326
3.71603
3.68421
3.66132
3.64338
3.62783
3.61309
3.59765
3.57803
3.57669
3.58523
3.6133
3.67493
3.75831
3.86435
3.97087
4.07203
4.16522
4.25029
4.32881
4.40205
4.4711
4.53608
4.59682
4.65292
4.70397
4.74963
4.79007
4.82517
4.85518
4.87991
4.89957
4.91413
4.92353
4.92761
4.92737
4.92613
4.92271
4.91509
4.89969
4.87889
4.85535
4.82993
4.8027
4.77353
4.74231
4.70904
4.67384
4.63686
4.59825
4.5582
4.51683
4.47428
4.43064
4.38606
4.34056
4.29429
4.24726
4.19961
4.15138
4.10272
4.05369
4.00447
3.95512
3.90595
3.85715
3.80836
3.75985
3.71159
3.66363
3.61592
3.56855
3.52149
3.47486
3.42863
3.38291
3.33765
3.29296
3.24882
3.20532
3.1625
3.12042
3.07918
3.03882
2.99957
2.96152
2.92508
2.89047
2.8586
2.82999
2.80787
6.25774
5.71953
5.24815
4.86394
4.56308
4.33232
4.16582
4.04344
3.9641
3.92126
3.90123
3.89581
3.8962
3.89365
3.88461
3.86294
3.81817
3.74941
3.68919
3.66103
3.66552
3.6859
3.73562
3.82205
3.92715
4.03509
4.13516
4.22461
4.30449
4.37697
4.44381
4.50629
4.56482
4.61941
4.66962
4.71481
4.75514
4.79048
4.8207
4.84575
4.8659
4.88118
4.89152
4.89685
4.89679
4.89596
4.89337
4.88737
4.87501
4.85587
4.83329
4.80838
4.78151
4.75273
4.72202
4.68936
4.6548
4.61844
4.58041
4.54089
4.5
4.4579
4.41467
4.37046
4.32531
4.27933
4.23257
4.18516
4.13715
4.08871
4.03995
3.9911
3.94242
3.89374
3.84531
3.79694
3.7488
3.70081
3.65314
3.60569
3.55862
3.51186
3.46556
3.41964
3.37425
3.32932
3.28499
3.24123
3.19812
3.15572
3.1141
3.07336
3.03357
2.99495
2.9576
2.92193
2.88816
2.85722
2.82939
2.80833
6.29232
5.8107
5.37009
4.99736
4.69723
4.46534
4.30136
4.19403
4.14401
4.14087
4.14709
4.16643
4.20158
4.20036
4.18922
4.15473
4.07666
3.94576
3.83256
3.75901
3.73348
3.73793
3.75666
3.80231
3.88621
3.98225
4.08421
4.17974
4.26581
4.34204
4.40988
4.47147
4.52826
4.5811
4.63
4.67468
4.71484
4.75029
4.78087
4.8066
4.8275
4.84371
4.85521
4.86191
4.86287
4.8623
4.86032
4.85561
4.84579
4.82898
4.80806
4.78414
4.75783
4.72949
4.69923
4.66711
4.63315
4.59743
4.56002
4.52108
4.48072
4.43911
4.39632
4.35251
4.30771
4.26205
4.21556
4.16839
4.1206
4.07249
4.02432
3.97611
3.92798
3.87982
3.83178
3.78381
3.73603
3.6884
3.64107
3.59398
3.54727
3.50089
3.45495
3.40942
3.36441
3.3199
3.27598
3.23268
3.19006
3.14821
3.10716
3.0671
3.02805
2.99031
2.95394
2.91944
2.88696
2.85751
2.8308
2.8116
6.32049
5.88598
5.47962
5.12634
4.83783
4.61712
4.46836
4.39467
4.39517
4.40753
4.44264
4.51471
4.55273
4.5472
4.52213
4.4566
4.31937
4.14531
3.99761
3.8921
3.83119
3.81293
3.8167
3.83244
3.87094
3.94533
4.02314
4.11442
4.20621
4.29022
4.36427
4.42922
4.48696
4.53922
4.58696
4.63063
4.67015
4.70546
4.73638
4.76286
4.78458
4.80191
4.81479
4.8229
4.82562
4.82524
4.8238
4.82021
4.81262
4.79831
4.77934
4.75679
4.7314
4.70371
4.67398
4.64238
4.60899
4.57387
4.53708
4.49876
4.45897
4.4179
4.37559
4.33222
4.28779
4.24245
4.19624
4.14936
4.10213
4.05468
4.00715
3.95952
3.91188
3.86418
3.81656
3.769
3.72163
3.67441
3.62749
3.58082
3.53453
3.48856
3.44306
3.39798
3.35343
3.30942
3.26602
3.22329
3.18129
3.14012
3.09984
3.06065
3.02261
2.98603
2.95103
2.91815
2.88743
2.85986
2.83511
2.81926
6.34615
5.95287
5.58362
5.25852
4.9945
4.80047
4.68805
4.67466
4.68829
4.73065
4.82178
4.9131
4.92171
4.90652
4.85425
4.73433
4.53406
4.34117
4.17931
4.05533
3.96877
3.91767
3.89586
3.89742
3.90723
3.93449
3.99135
4.0523
4.13174
4.21799
4.29961
4.37221
4.43554
4.49075
4.53943
4.58285
4.62181
4.6567
4.68763
4.71457
4.73737
4.75588
4.77006
4.77975
4.78469
4.78459
4.78373
4.78123
4.77557
4.76407
4.74691
4.72591
4.70179
4.67503
4.646
4.61499
4.58215
4.5476
4.51141
4.4737
4.43451
4.39399
4.35221
4.30927
4.26524
4.2202
4.1744
4.12812
4.08158
4.03478
3.98784
3.94072
3.89358
3.84636
3.79924
3.75215
3.70528
3.65853
3.6121
3.56589
3.5201
3.47462
3.42964
3.38509
3.34111
3.29769
3.25494
3.21291
3.17168
3.13137
3.09208
3.05402
3.01731
2.98229
2.94917
2.91848
2.88991
2.86543
2.84385
2.83294
6.37651
6.01965
5.68861
5.40069
5.17619
5.03005
4.98887
5.00105
5.0433
5.13831
5.26284
5.3097
5.29886
5.25618
5.15287
4.9484
4.73342
4.53903
4.3742
4.23971
4.13435
4.05644
4.00421
3.97391
3.96748
3.97153
3.98725
4.02413
4.07274
4.13885
4.2178
4.29609
4.36753
4.42998
4.48367
4.52983
4.56986
4.60495
4.63586
4.663
4.68642
4.70606
4.72146
4.73265
4.73965
4.74104
4.74054
4.73878
4.73458
4.72582
4.71072
4.69154
4.66894
4.64337
4.61527
4.58499
4.55277
4.51883
4.48324
4.44613
4.40756
4.36762
4.32637
4.28388
4.2402
4.19565
4.15055
4.10501
4.05915
4.01298
3.96662
3.92008
3.8735
3.82684
3.78028
3.73375
3.68743
3.64123
3.59535
3.54971
3.50447
3.45958
3.4152
3.37128
3.32797
3.28527
3.2433
3.20212
3.16185
3.12263
3.08459
3.048
3.01302
2.98007
2.94944
2.92113
2.89592
2.87586
2.85873
2.8538
6.40842
6.09294
5.80635
5.57005
5.40506
5.33772
5.34668
5.38455
5.4747
5.61768
5.6931
5.68702
5.65248
5.56044
5.37135
5.14272
4.92912
4.74114
4.57797
4.43704
4.31713
4.21764
4.13879
4.08014
4.04185
4.02075
4.02147
4.02826
4.04804
4.08765
4.1375
4.20812
4.28174
4.35136
4.41316
4.46613
4.51084
4.5486
4.58086
4.60869
4.63267
4.65299
4.66967
4.68202
4.69068
4.6943
4.69406
4.69292
4.68995
4.68355
4.67081
4.65353
4.63253
4.60835
4.58141
4.55208
4.52065
4.48738
4.45242
4.41592
4.37794
4.33857
4.29783
4.25576
4.21268
4.16886
4.12452
4.07969
4.03451
3.98899
3.94328
3.89735
3.8514
3.80535
3.75941
3.71349
3.66779
3.62221
3.57696
3.53194
3.48736
3.44314
3.39947
3.35629
3.31378
3.27193
3.23091
3.19079
3.15171
3.11387
3.07745
3.04277
3.01007
2.97995
2.95194
2.92736
2.90708
2.89251
2.88221
2.88246
6.44929
6.18143
5.95544
5.79053
5.71315
5.7202
5.75609
5.84403
5.9916
6.08129
6.07763
6.04664
5.95875
5.7757
5.5472
5.32675
5.12689
4.94814
4.7865
4.63977
4.5077
4.39092
4.29061
4.20748
4.14202
4.09494
4.06575
4.05537
4.05795
4.06915
4.09404
4.13226
4.19053
4.25812
4.32488
4.38571
4.43829
4.48251
4.51935
4.55007
4.57575
4.59714
4.61478
4.62833
4.63818
4.64384
4.6442
4.64361
4.64163
4.63697
4.6273
4.61169
4.59231
4.56969
4.54414
4.51598
4.48552
4.45305
4.41879
4.38292
4.34555
4.30672
4.26645
4.22499
4.18271
4.13972
4.09617
4.05209
4.00765
3.96284
3.91784
3.87262
3.82737
3.78201
3.73677
3.69153
3.64653
3.60165
3.55712
3.51284
3.46903
3.42559
3.38275
3.34046
3.29891
3.25812
3.21825
3.17945
3.14189
3.10582
3.07151
3.03931
3.00976
2.98244
2.95844
2.93929
2.92556
2.91802
2.91689
2.91842
6.51987
6.3106
6.16326
6.09737
6.10631
6.14803
6.24692
6.39443
6.48444
6.48034
6.44648
6.35205
6.15874
5.93292
5.71427
5.51309
5.32788
5.15506
4.99269
4.84028
4.69834
4.5683
4.4515
4.34941
4.26279
4.19208
4.13799
4.10101
4.07831
4.07784
4.08217
4.09497
4.12238
4.16807
4.2274
4.2894
4.34813
4.40064
4.44555
4.48272
4.51289
4.53716
4.55653
4.57163
4.58254
4.5895
4.59158
4.59122
4.58984
4.58641
4.57916
4.5657
4.54825
4.52739
4.5034
4.47659
4.44727
4.41575
4.3823
4.34713
4.31038
4.27204
4.2324
4.19176
4.15035
4.1082
4.06549
4.02222
3.97859
3.93457
3.89036
3.84592
3.80144
3.75685
3.71237
3.66791
3.62368
3.5796
3.53588
3.49245
3.4495
3.407
3.36513
3.32391
3.28349
3.24399
3.20556
3.16842
3.13281
3.09903
3.06747
3.03869
3.01226
2.98921
2.97114
2.95919
2.95385
2.95457
2.95772
2.96658
6.63783
6.50844
6.47125
6.48692
6.54516
6.67402
6.82732
6.90948
6.90196
6.85833
6.74682
6.52964
6.30247
6.08616
5.88694
5.70199
5.5264
5.35658
5.19257
5.03521
4.88562
4.7456
4.61646
4.49977
4.39625
4.30693
4.23197
4.17257
4.12746
4.09812
4.08408
4.08543
4.0912
4.10717
4.14066
4.18937
4.24473
4.30167
4.35468
4.40072
4.43871
4.46901
4.4925
4.51033
4.5231
4.53147
4.53546
4.53531
4.53442
4.53195
4.52654
4.5156
4.50015
4.48112
4.45882
4.43352
4.40552
4.37513
4.34264
4.30828
4.27218
4.23451
4.19572
4.15597
4.11546
4.07421
4.03239
3.99002
3.94727
3.90414
3.86079
3.81721
3.77358
3.72986
3.68622
3.64264
3.59927
3.55612
3.51331
3.47087
3.42893
3.38754
3.34682
3.30689
3.26787
3.22996
3.19335
3.15834
3.12525
3.09448
3.0667
3.04128
3.01946
3.00281
2.9924
2.99035
2.99173
2.99686
3.00948
3.03739
6.83172
6.82135
6.84913
6.93565
7.11592
7.28612
7.35906
7.34554
7.28484
7.14054
6.90367
6.66353
6.44424
6.24601
6.06248
5.8875
5.71681
5.5484
5.38308
5.22213
5.06723
4.92007
4.78205
4.65446
4.53805
4.43379
4.34171
4.26275
4.19765
4.14611
4.10899
4.08562
4.07962
4.08038
4.08658
4.10441
4.14195
4.19218
4.24677
4.29943
4.34645
4.3858
4.4169
4.44038
4.45735
4.46845
4.4748
4.47568
4.47516
4.47343
4.46941
4.4611
4.44755
4.43039
4.40992
4.38634
4.35988
4.33085
4.29953
4.26612
4.23085
4.1941
4.15628
4.1175
4.07795
4.03767
3.99682
3.95543
3.91365
3.87148
3.8291
3.78649
3.7438
3.70105
3.65837
3.61578
3.57341
3.5313
3.48956
3.44826
3.40752
3.36742
3.32811
3.28972
3.25246
3.21654
3.18227
3.15003
3.12025
3.09365
3.0695
3.04896
3.03434
3.02568
3.02594
3.0283
3.03553
3.05207
3.08103
3.13889
7.16522
7.20489
7.32333
7.5649
7.76933
7.83732
7.816
7.73364
7.54821
7.28202
7.02314
6.79372
6.59187
6.40846
6.23463
6.06483
5.89644
5.7286
5.56246
5.39946
5.24131
5.08947
4.94532
4.80976
4.68382
4.56784
4.46272
4.3685
4.2861
4.21577
4.158
4.11324
4.08212
4.0679
4.05894
4.06058
4.06927
4.09052
4.1333
4.18229
4.23381
4.28154
4.32236
4.35514
4.37975
4.39701
4.40726
4.4116
4.4114
4.41032
4.40752
4.40153
4.39011
4.3749
4.35634
4.33464
4.30997
4.28255
4.25263
4.2204
4.18624
4.15068
4.11396
4.07628
4.03777
3.99856
3.95876
3.91844
3.87772
3.83663
3.79529
3.75375
3.71212
3.67045
3.62885
3.58739
3.54616
3.50525
3.46476
3.42479
3.38547
3.34692
3.30932
3.27285
3.2378
3.20445
3.17325
3.14464
3.1195
3.09681
3.0779
3.06516
3.0599
3.06075
3.06468
3.07486
3.09657
3.13892
3.18132
3.25451
7.56855
7.74457
8.03987
8.27433
8.34267
8.31311
8.20674
7.97506
7.67224
7.38737
7.14204
6.93139
6.74421
6.56978
6.4009
6.23361
6.06654
5.89963
5.73331
5.56952
5.4097
5.25497
5.1065
4.96517
4.8318
4.7069
4.59105
4.48469
4.38814
4.30199
4.22668
4.16284
4.11111
4.07237
4.04897
4.03214
4.02483
4.02797
4.03983
4.0664
4.11053
4.15789
4.20541
4.24822
4.28354
4.31029
4.32873
4.33903
4.34227
4.34181
4.34008
4.33603
4.32769
4.31449
4.29785
4.27811
4.2554
4.22984
4.20158
4.17087
4.13825
4.1041
4.06869
4.03223
3.9949
3.95686
3.91822
3.87908
3.83951
3.79961
3.75944
3.7191
3.67865
3.6382
3.59782
3.55763
3.5177
3.47819
3.43914
3.40076
3.36313
3.32648
3.29099
3.25696
3.22473
3.19478
3.16759
3.14416
3.12316
3.10632
3.09547
3.09393
3.09557
3.10143
3.11566
3.14509
3.18964
3.24799
3.29938
3.37447
8.22836
8.55891
8.81459
8.87604
8.83633
8.70026
8.41296
8.07343
7.76124
7.49534
7.2711
7.07605
6.89823
6.72875
6.56234
6.39629
6.22998
6.06374
5.89793
5.73422
5.57346
5.41677
5.26513
5.11938
4.98016
4.84811
4.72368
4.60735
4.49943
4.40032
4.31056
4.23049
4.16091
4.10261
4.0565
4.02419
4.00066
3.98217
3.98229
3.98691
4.00079
4.03075
4.07418
4.12059
4.1644
4.20203
4.23134
4.25173
4.26303
4.26629
4.2657
4.26356
4.25865
4.24865
4.23425
4.21651
4.19582
4.1723
4.14602
4.11726
4.08652
4.05409
4.02024
3.98523
3.94927
3.91255
3.8752
3.83734
3.79907
3.76045
3.72159
3.68255
3.64345
3.60435
3.5654
3.52665
3.48826
3.45034
3.41305
3.37653
3.34099
3.30666
3.27386
3.24297
3.21448
3.18905
3.16758
3.14844
3.13409
3.12622
3.12672
3.12981
3.13854
3.15765
3.19576
3.24647
3.3047
3.36957
3.42103
3.48715
9.14436
9.4238
9.45877
9.40223
9.22355
8.86162
8.48419
8.14366
7.85677
7.61696
7.41126
7.22691
7.0541
6.88647
6.72057
6.555
6.38929
6.22377
6.05879
5.895
5.73355
5.57541
5.42126
5.27196
5.12799
4.99006
4.85846
4.7338
4.61634
4.50658
4.40481
4.31149
4.22708
4.15229
4.08791
4.03472
3.99454
3.96326
3.93912
3.92469
3.92623
3.93344
3.95111
3.98676
4.02812
4.07138
4.11044
4.14236
4.16505
4.17893
4.18325
4.18274
4.18062
4.17552
4.16506
4.14984
4.13118
4.10966
4.08553
4.05911
4.03063
4.00029
3.96835
3.93507
3.90073
3.86553
3.82965
3.79323
3.75638
3.71921
3.6818
3.64425
3.60665
3.56911
3.53176
3.49469
3.45809
3.42207
3.38686
3.35262
3.31967
3.2883
3.25897
3.23226
3.20879
3.18964
3.17266
3.16083
3.15725
3.15865
3.16393
3.17698
3.20412
3.24841
3.30393
3.36646
3.42919
3.48991
3.53229
3.58325
10.1211
10.1146
10.0265
9.78184
9.32945
8.9004
8.53147
8.22472
7.97052
7.75417
7.56218
7.38386
7.21257
7.04454
6.87788
6.71187
6.54613
6.38081
6.21621
6.05218
5.89016
5.73061
5.57415
5.42162
5.27353
5.13055
4.993
4.8615
4.73625
4.61768
4.506
4.40166
4.30504
4.21662
4.13708
4.06708
4.00758
3.95943
3.92267
3.89011
3.86607
3.86093
3.86352
3.8728
3.89384
3.93062
3.97029
4.00979
4.044
4.06998
4.08684
4.09375
4.09351
4.09181
4.08716
4.0774
4.06164
4.04224
4.0203
3.99633
3.97036
3.94245
3.91279
3.88162
3.84923
3.81583
3.78165
3.74686
3.71161
3.67604
3.64024
3.60435
3.56845
3.53269
3.49718
3.46209
3.42758
3.39388
3.36118
3.32981
3.30013
3.27262
3.24794
3.2269
3.20991
3.19618
3.18684
3.18723
3.19009
3.19848
3.21703
3.25418
3.3041
3.36401
3.42863
3.49259
3.54905
3.59664
3.62518
3.65986
10.9149
10.7461
10.3534
9.81461
9.33092
8.92631
8.59925
8.3327
8.10783
7.90863
7.72408
7.54733
7.37491
7.20484
7.03634
6.86879
6.70208
6.53594
6.37069
6.20532
6.04276
5.88175
5.72319
5.56777
5.41614
5.26885
5.12632
4.98895
4.85702
4.73096
4.61098
4.49748
4.39076
4.29125
4.19935
4.11565
4.0408
3.97554
3.9206
3.87743
3.83738
3.80726
3.78912
3.78944
3.79316
3.80435
3.82854
3.86473
3.90312
3.93871
3.96783
3.98762
3.99864
3.99915
3.99802
3.99434
3.98607
3.97015
3.95101
3.92946
3.90593
3.88054
3.85342
3.82473
3.79466
3.76342
3.73125
3.69836
3.66495
3.63118
3.59721
3.56317
3.52922
3.49548
3.46213
3.42936
3.39738
3.36646
3.33693
3.30919
3.28381
3.2614
3.24327
3.22883
3.21795
3.21375
3.21517
3.22069
3.23421
3.26222
3.3067
3.36243
3.42605
3.49222
3.55513
3.61033
3.65214
3.68296
3.69788
3.71846
11.4945
11.0636
10.355
9.78551
9.33382
8.9768
8.69904
8.47045
8.26811
8.07855
7.89571
7.71679
7.54082
7.36721
7.19565
7.02567
6.85696
6.68921
6.52235
6.35712
6.19177
6.02866
5.86791
5.70985
5.555
5.40388
5.25686
5.11443
4.97676
4.84435
4.71731
4.59609
4.48086
4.372
4.26982
4.17474
4.08723
4.00792
3.93743
3.87669
3.82757
3.78213
3.74421
3.71987
3.70953
3.71059
3.71609
3.73009
3.75858
3.79348
3.82941
3.86046
3.88347
3.89739
3.90157
3.90087
3.89811
3.8914
3.87765
3.85935
3.83824
3.81522
3.7906
3.76453
3.73705
3.7083
3.67848
3.64781
3.61652
3.58482
3.55293
3.52102
3.48928
3.45789
3.42709
3.39709
3.36821
3.34079
3.3153
3.29228
3.27265
3.25747
3.24643
3.23853
3.23898
3.24234
3.25153
3.27187
3.31096
3.36169
3.42288
3.48956
3.55638
3.61764
3.66922
3.70755
3.73312
3.74857
3.75352
3.76358
11.6337
11.0249
10.2947
9.73979
9.35453
9.06699
8.83784
8.63573
8.44395
8.25603
8.07042
7.88723
7.70679
7.52914
7.35398
7.18091
7.00943
6.83921
6.66999
6.50203
6.33485
6.16982
6.00687
5.8463
5.68854
5.53403
5.38312
5.23625
5.09362
4.95571
4.82262
4.69479
4.57238
4.45571
4.34508
4.24071
4.14307
4.05246
3.96951
3.89471
3.82866
3.7735
3.7229
3.67957
3.64786
3.62947
3.62568
3.62787
3.63572
3.65328
3.68477
3.71828
3.75011
3.77617
3.79335
3.80203
3.80182
3.80009
3.79522
3.78471
3.76753
3.74734
3.72524
3.70171
3.67686
3.65079
3.62363
3.59555
3.56675
3.53748
3.508
3.47855
3.44939
3.42078
3.393
3.3664
3.34136
3.31842
3.2982
3.28147
3.27026
3.26174
3.25931
3.26109
3.26766
3.28326
3.31502
3.36109
3.41887
3.48452
3.55334
3.6197
3.67858
3.72627
3.7606
3.78249
3.79338
3.7977
3.79804
3.79978
11.5466
10.8454
10.1648
9.72871
9.41943
9.20066
9.00517
8.81402
8.62264
8.43113
8.24083
8.05293
7.86809
7.68648
7.50762
7.33115
7.15654
6.98345
6.81164
6.64109
6.47192
6.30415
6.13881
5.9759
5.81553
5.65803
5.50367
5.35288
5.20592
5.06318
4.92487
4.79136
4.66283
4.53956
4.42178
4.30972
4.20367
4.10392
4.01084
3.92489
3.84661
3.77667
3.71644
3.66164
3.6134
3.57573
3.55144
3.53825
3.53876
3.54253
3.55306
3.57537
3.60713
3.63998
3.66815
3.6886
3.70056
3.70316
3.7023
3.6991
3.69161
3.67654
3.65801
3.6371
3.61473
3.59129
3.56691
3.54166
3.5157
3.48926
3.46264
3.43612
3.41006
3.38477
3.36071
3.3383
3.31815
3.30097
3.28745
3.28025
3.27612
3.27708
3.28176
3.29371
3.31875
3.36035
3.41377
3.47711
3.54627
3.61605
3.68102
3.73656
3.78004
3.81051
3.82824
3.83689
3.83679
3.83594