/*--------------------------------*- C++ -*----------------------------------*\
| =========                 |                                                 |
| \\      /  F ield         | OpenFOAM: The Open Source CFD Toolbox           |
|  \\    /   O peration     | Version:  2412                                  |
|   \\  /    A nd           | Website:  www.openfoam.com                      |
|    \\/     M anipulation  |                                                 |
\*---------------------------------------------------------------------------*/
FoamFile
{
    version     2.0;
    format      ascii;
    arch        "LSB;label=32;scalar=64";
    class       surfaceScalarField;
    location    "8.5";
    object      phi;
}
// * * * * * * * * * * * * * * * * * * * * * * * * * * * * * * * * * * * * * //

dimensions      [1 0 -1 0 0 0 0];

oriented        oriented;

internalField   nonuniform List<scalar> 
10325
(
0.00840003
1.0824e-10
0.00840003
8.37637e-10
0.00840002
2.58876e-09
0.00840002
7.77069e-09
0.0084
1.85521e-08
0.00839994
4.80256e-08
0.00839983
1.13489e-07
0.00839952
2.65577e-07
0.00839885
6.54691e-07
0.00839715
1.47639e-06
0.00839322
3.79514e-06
0.00838233
1.00323e-05
0.00834746
3.3934e-05
0.00822011
0.000124118
0.00762885
0.000582044
0.00700986
0.000618982
0.0063896
0.000620277
0.00575483
0.000634676
0.00509291
0.000661404
0.00438848
0.00070379
0.00362886
0.000759003
0.00281175
0.00081628
0.00193979
0.000871263
0.00100742
0.000931358
0.00100624
0.00840003
2.18088e-10
0.00840003
1.69096e-09
0.00840002
5.17632e-09
0.00840002
1.5606e-08
0.0084
3.7162e-08
0.00839994
9.65834e-08
0.00839982
2.29875e-07
0.00839952
5.31886e-07
0.00839881
1.33861e-06
0.0083971
2.97558e-06
0.00839292
7.81232e-06
0.00838154
2.05619e-05
0.00834485
6.96557e-05
0.0082115
0.00025422
0.00760489
0.00117923
0.00697784
0.00124608
0.00636797
0.0012302
0.00573715
0.00126538
0.0050781
0.00131996
0.00436787
0.0014134
0.00360155
0.00152472
0.00277845
0.00163857
0.00189773
0.00175131
0.000964083
0.00186401
0.00196912
0.00840003
2.98882e-10
0.00840003
2.31868e-09
0.00840003
7.13341e-09
0.00840002
2.14903e-08
0.0084
5.10569e-08
0.00839996
1.3459e-07
0.00839988
3.088e-07
0.00839959
7.81116e-07
0.00839913
1.77177e-06
0.00839717
4.71385e-06
0.00839353
1.12761e-05
0.0083813
3.19147e-05
0.00834438
0.000105563
0.00820893
0.000386361
0.00759274
0.00178549
0.00695657
0.00188253
0.00635606
0.00183094
0.00573606
0.00188517
0.00508431
0.00197127
0.00437953
0.00211769
0.00361371
0.00228993
0.00278863
0.00246282
0.00190361
0.00263571
0.000964132
0.00280251
0.00293207
0.00840003
3.71827e-10
0.00840003
2.88351e-09
0.00840003
8.84136e-09
0.00840002
2.6686e-08
0.00840001
6.32046e-08
0.00839997
1.68092e-07
0.00839989
3.80662e-07
0.00839964
9.95589e-07
0.00839921
2.18837e-06
0.00839743
6.25097e-06
0.00839435
1.42429e-05
0.0083811
4.42395e-05
0.00834714
0.000138502
0.0082124
0.000517671
0.00759344
0.0023937
0.00695426
0.00252247
0.00636687
0.00241884
0.00576085
0.00249103
0.0051219
0.00260982
0.00442613
0.00281323
0.00367176
0.00304387
0.00284787
0.0032862
0.00195279
0.00352984
0.000994129
0.00376025
0.00392512
0.00840003
4.1599e-10
0.00840003
3.22577e-09
0.00840003
9.92755e-09
0.00840002
2.99379e-08
0.00840001
7.07677e-08
0.00839999
1.89914e-07
0.00839994
4.20059e-07
0.00839974
1.15506e-06
0.0083995
2.42347e-06
0.00839807
7.42839e-06
0.00839644
1.58425e-05
0.00838258
5.70027e-05
0.00836191
0.000158566
0.00822642
0.000649452
0.00763924
0.00296894
0.00699968
0.00316361
0.00642017
0.00299923
0.00582786
0.0030832
0.00520573
0.00323166
0.00452474
0.00349371
0.00377712
0.00379114
0.00295862
0.00410407
0.00205412
0.00443474
0.00105788
0.00475561
0.004982
0.00840003
4.57846e-10
0.00840003
3.55022e-09
0.00840003
1.08819e-08
0.00840002
3.2891e-08
0.00840002
7.74931e-08
0.00839999
2.09656e-07
0.00839995
4.59398e-07
0.00839977
1.29099e-06
0.0083995
2.68501e-06
0.00839831
8.3837e-06
0.0083962
1.78945e-05
0.00838649
6.56577e-05
0.00836716
0.000176979
0.00825559
0.0007565
0.00775826
0.00345269
0.00710945
0.00381473
0.00652841
0.00358166
0.00594732
0.0036644
0.00534188
0.00383716
0.00468525
0.00414998
0.0039531
0.00452343
0.0031305
0.00492586
0.0022049
0.00535965
0.00115789
0.0058019
0.00613908
0.00840003
4.6955e-10
0.00840003
3.6397e-09
0.00840003
1.12284e-08
0.00840003
3.38727e-08
0.00840002
7.95009e-08
0.00840001
2.18711e-07
0.00840001
4.55588e-07
0.00839984
1.42028e-06
0.00839991
2.60868e-06
0.00839829
9.75649e-06
0.0083969
1.92172e-05
0.00838785
7.36134e-05
0.00836619
0.000197625
0.00829576
0.000822609
0.00798851
0.00374451
0.00731228
0.00449437
0.00671706
0.00417874
0.00614137
0.00424045
0.00555089
0.00442789
0.00490964
0.00479098
0.00419632
0.00523668
0.00338757
0.005735
0.0024457
0.00630196
0.00132773
0.00691956
0.00746619
0.00840003
5.11812e-10
0.00840003
3.97403e-09
0.00840003
1.22871e-08
0.00840002
3.70564e-08
0.00840001
8.72564e-08
0.00839999
2.38546e-07
0.00839994
5.03461e-07
0.00839979
1.53712e-06
0.00839956
2.83655e-06
0.00839856
1.05074e-05
0.00839731
2.04344e-05
0.00839252
7.73246e-05
0.00838329
0.000205748
0.00837317
0.000828887
0.00840659
0.00369452
0.00770398
0.00520155
0.00702983
0.00485515
0.00644616
0.00482476
0.00587384
0.00500044
0.00524733
0.00541803
0.00454744
0.00593629
0.00374182
0.00653989
0.00279507
0.00724828
0.00160086
0.00811388
0.00906685
0.00840003
4.59582e-10
0.00840003
4.5926e-09
0.00840003
1.34516e-08
0.00840002
4.18054e-08
0.00840001
9.59322e-08
0.00839998
2.63862e-07
0.00839991
5.67419e-07
0.00839982
1.59988e-06
0.00839951
3.13951e-06
0.00839932
1.04674e-05
0.00840072
1.8988e-05
0.00840167
7.53234e-05
0.00841664
0.000189652
0.00848436
0.000757958
0.00911419
0.00304762
0.0083647
0.00595365
0.00752268
0.00569995
0.00692317
0.0054258
0.00630285
0.00562128
0.00569784
0.00602317
0.00502123
0.00661386
0.00427593
0.007286
0.00337229
0.00815231
0.00210725
0.00937865
0.0111739
0.00840003
1.04886e-10
0.00840003
5.47314e-09
0.00840004
6.94041e-09
0.00840003
4.66577e-08
0.00840007
5.09828e-08
0.00840004
2.91427e-07
0.00840032
2.84522e-07
0.00840006
1.84051e-06
0.00840197
1.24776e-06
0.0083992
1.30651e-05
0.00841244
5.32905e-06
0.00839791
8.8936e-05
0.00850092
8.58254e-05
0.00867772
0.00057944
0.00977353
0.00194186
0.00915786
0.00656561
0.00818502
0.00667213
0.00755868
0.00605431
0.00691909
0.00626157
0.00630808
0.00663408
0.00568499
0.00723623
0.00500999
0.00796106
0.00416031
0.00900229
0.00294601
0.0105934
0.0141201
0.00840003
8.82367e-10
0.00840003
1.46279e-09
0.00840003
1.35883e-08
0.00840006
1.5972e-08
0.00840001
9.43556e-08
0.0084002
1.02409e-07
0.00839989
5.77688e-07
0.00840116
5.74598e-07
0.00839856
3.77218e-06
0.00840862
3.00796e-06
0.00838631
2.77757e-05
0.00845577
1.94159e-05
0.00833218
0.000207894
0.008627
0.000283929
0.00884355
0.00171746
0.00893564
0.00646285
0.00870078
0.00690556
0.00800741
0.00674793
0.00746894
0.00680064
0.00695192
0.00715174
0.0064621
0.00772629
0.00594024
0.00848278
0.00548105
0.00946134
0.00543221
0.0106425
0.0114227
0.0081302
0.00840003
4.67073e-10
0.00840003
2.63036e-09
0.00840003
8.86167e-09
0.00840002
2.52454e-08
0.00840005
6.31037e-08
0.00839999
1.61371e-07
0.00840018
3.83874e-07
0.00839978
9.59243e-07
0.00840122
2.33123e-06
0.00839831
5.79396e-06
0.00841103
1.50635e-05
0.00839006
3.9738e-05
0.00848779
0.000109963
0.00836205
0.000407587
0.00885117
0.00122311
0.0090085
0.00629322
0.00868039
0.00723219
0.0082441
0.00718369
0.00783713
0.00720698
0.00742537
0.0075635
0.00706232
0.00808956
0.00676435
0.00878101
0.00663746
0.00958797
0.00701324
0.0102666
0.0104878
0.00794861
0.00840003
3.69883e-10
0.00840003
2.87518e-09
0.00840003
8.77601e-09
0.00840003
2.66024e-08
0.00840003
6.29117e-08
0.00840002
1.68756e-07
0.00840002
3.80011e-07
0.00839996
1.00187e-06
0.00840005
2.23055e-06
0.00839973
6.01586e-06
0.00840144
1.32434e-05
0.00840057
4.01617e-05
0.00841293
9.69094e-05
0.0084553
0.000363376
0.00858857
0.00108563
0.00908447
0.0057839
0.00883228
0.00748356
0.00850965
0.00750563
0.00818731
0.00752855
0.00789335
0.00785695
0.00762541
0.00835738
0.0074899
0.00891702
0.00760105
0.00947737
0.00801879
0.00984901
0.00987876
0.00862797
0.00840003
3.26341e-10
0.00840003
2.52376e-09
0.00840003
7.81882e-09
0.00840003
2.34456e-08
0.00840004
5.55428e-08
0.00840006
1.46718e-07
0.00840011
3.28381e-07
0.00840023
8.69482e-07
0.00840064
1.81236e-06
0.00840093
5.63964e-06
0.00840438
9.75403e-06
0.00840299
4.10887e-05
0.00842379
7.57897e-05
0.00843294
0.000352599
0.00857679
0.000938929
0.00943329
0.00491463
0.00917233
0.00774491
0.00878956
0.00788843
0.00852145
0.00779611
0.00832749
0.00804966
0.00819089
0.008493
0.00816141
0.00894608
0.00829278
0.00934663
0.00863407
0.00950854
0.00941043
0.00910281
0.00840003
3.17416e-10
0.00840003
2.46079e-09
0.00840003
7.55895e-09
0.00840003
2.27858e-08
0.00840003
5.39678e-08
0.00840003
1.43444e-07
0.00840004
3.22803e-07
0.00840005
8.41878e-07
0.00839999
1.86502e-06
0.00840058
4.98528e-06
0.00839942
1.08598e-05
0.00840751
3.2576e-05
0.00841195
7.10944e-05
0.00849505
0.000267807
0.00870186
0.000730174
0.0102461
0.00335515
0.00974597
0.00824614
0.00933777
0.0082982
0.00894213
0.00819302
0.00874024
0.00825107
0.00866906
0.00856334
0.00870922
0.00890509
0.00885244
0.009203
0.00909617
0.00926471
0.00905069
0.00945593
0.00840003
2.93589e-10
0.00840003
2.28112e-09
0.00840003
6.97747e-09
0.00840003
2.11044e-08
0.00840004
4.994e-08
0.00840004
1.3342e-07
0.00840006
3.00694e-07
0.00840011
7.82544e-07
0.0084002
1.77156e-06
0.00840069
4.43982e-06
0.00840072
1.07868e-05
0.00840793
2.50867e-05
0.00840937
6.92947e-05
0.00849114
0.000184688
0.00864774
0.000573814
0.00977806
0.0022188
0.0100791
0.00793865
0.00980784
0.0085675
0.00935892
0.00864082
0.00914425
0.00846612
0.00907863
0.0086281
0.00912742
0.00885561
0.00929539
0.00903452
0.0094965
0.00906324
0.00881491
0.00973193
0.00840003
2.36263e-10
0.00840003
1.83239e-09
0.00840003
5.67292e-09
0.00840004
1.70284e-08
0.00840004
4.04452e-08
0.00840007
1.06626e-07
0.00840013
2.40275e-07
0.00840028
6.2029e-07
0.00840068
1.3691e-06
0.00840144
3.63416e-06
0.00840443
7.75612e-06
0.00840674
2.25331e-05
0.00842706
4.87031e-05
0.00845088
0.000159781
0.00857694
0.000446306
0.0090355
0.00175653
0.00999785
0.00696388
0.00990691
0.0086556
0.00971088
0.00883485
0.00950139
0.00867499
0.00944148
0.00868781
0.00947228
0.00882305
0.00960602
0.00889957
0.00979853
0.00886995
0.00863818
0.00997505
0.00840003
1.87437e-10
0.00840003
1.54105e-09
0.00840003
4.75485e-09
0.00840003
1.41779e-08
0.00840004
3.37655e-08
0.00840006
8.84599e-08
0.0084001
1.99842e-07
0.0084002
5.14479e-07
0.00840043
1.13023e-06
0.00840099
3.04313e-06
0.00840245
6.27574e-06
0.00840549
1.92615e-05
0.00841512
3.90149e-05
0.00843674
0.000137122
0.00852417
0.000357889
0.00884187
0.00143455
0.010184
0.00560877
0.0101599
0.00867917
0.00998877
0.00900509
0.00978161
0.00888198
0.00974456
0.00872504
0.0097934
0.00877385
0.0098935
0.00879789
0.0100425
0.00871905
0.00849289
0.0101862
0.00840003
6.31082e-11
0.00840003
1.55814e-09
0.00840003
2.78426e-09
0.00840003
1.35772e-08
0.00840005
2.04603e-08
0.00840005
8.37745e-08
0.00840013
1.21112e-07
0.00840015
4.84535e-07
0.0084006
6.77118e-07
0.00840075
2.8586e-06
0.00840346
3.5408e-06
0.00840377
1.87516e-05
0.00842388
1.88218e-05
0.00842777
0.000132215
0.00858871
0.00019585
0.00902201
0.000997682
0.0111193
0.00349553
0.0108412
0.00895619
0.0106236
0.00922382
0.0102919
0.0092141
0.0100889
0.008928
0.0100704
0.00879205
0.010141
0.0087266
0.0102562
0.00860242
0.00837218
0.0103751
0.00840003
1.55659e-10
0.00840003
8.84304e-10
0.00840003
3.30696e-09
0.00840004
8.41754e-09
0.00840003
2.34122e-08
0.00840006
5.30712e-08
0.00840004
1.39718e-07
0.00840022
3.09088e-07
0.00840007
8.07326e-07
0.00840114
1.78459e-06
0.00839998
4.63743e-06
0.00840796
1.07263e-05
0.00839906
2.73742e-05
0.00846131
6.95396e-05
0.00845486
0.000200515
0.00885133
0.000603175
0.0100279
0.00231166
0.0111228
0.00785273
0.0109876
0.00935821
0.0107256
0.00947633
0.0104748
0.00917823
0.0103791
0.00888695
0.0103823
0.00872191
0.0104403
0.00854256
0.00828441
0.0105256
0.00840003
1.84567e-10
0.00840003
5.36375e-10
0.00840003
3.13937e-09
0.00840003
5.49306e-09
0.00840003
2.17361e-08
0.00840005
3.49529e-08
0.00840006
1.28446e-07
0.00840017
2.01867e-07
0.00840023
7.38105e-07
0.00840087
1.13444e-06
0.00840112
4.34913e-06
0.00840566
6.1365e-06
0.00840471
2.81003e-05
0.00843822
3.57426e-05
0.00844298
0.00019468
0.00868006
0.000364629
0.00938605
0.00160233
0.0110465
0.00617926
0.0111298
0.00927351
0.0110438
0.00956173
0.0108105
0.00941163
0.0106886
0.00900832
0.010662
0.00874743
0.010669
0.0085327
0.00825752
0.0106931
0.00840003
6.60332e-11
0.00840003
7.3046e-10
0.00840003
1.66659e-09
0.00840003
6.58453e-09
0.00840004
1.20529e-08
0.00840003
4.12122e-08
0.00840009
7.2331e-08
0.00840005
2.40308e-07
0.00840037
4.17154e-07
0.0084001
1.38689e-06
0.00840205
2.38629e-06
0.00839992
8.18266e-06
0.00841441
1.35785e-05
0.00839757
5.20784e-05
0.00850499
8.69925e-05
0.00847371
0.000393961
0.00915812
0.000915295
0.011626
0.00369552
0.0116221
0.00927366
0.0114696
0.00971331
0.0112231
0.00965739
0.0109766
0.0092539
0.0108976
0.00882463
0.0108975
0.00853028
0.00824666
0.0109036
0.00840003
9.02712e-11
0.00840003
3.49736e-10
0.00840003
1.73506e-09
0.00840003
3.45202e-09
0.00840003
1.21477e-08
0.00840005
2.1953e-08
0.00840005
7.22387e-08
0.00840016
1.27855e-07
0.00840016
4.16871e-07
0.00840082
7.23242e-07
0.00840073
2.45442e-06
0.00840497
3.92726e-06
0.00840318
1.52237e-05
0.00843366
2.15597e-05
0.00842023
9.96821e-05
0.00865589
0.000157804
0.00878377
0.000785231
0.0103439
0.00212924
0.0119132
0.00769508
0.0118907
0.00973392
0.0116497
0.0098964
0.011317
0.00958471
0.0111748
0.0089636
0.0111064
0.00859451
0.00825329
0.0110952
0.00840003
2.98009e-11
0.00840003
3.63721e-10
0.00840003
8.03919e-10
0.00840003
3.25897e-09
0.00840004
5.81159e-09
0.00840004
2.01691e-08
0.00840008
3.43869e-08
0.00840009
1.15717e-07
0.00840031
1.93933e-07
0.00840036
6.63656e-07
0.00840175
1.06565e-06
0.00840163
4.00137e-06
0.00841091
5.93557e-06
0.0084065
2.56947e-05
0.00846851
3.76082e-05
0.00844482
0.000180183
0.00887513
0.000353971
0.00940869
0.00159187
0.0116851
0.00540445
0.0120293
0.00938546
0.0120726
0.00985063
0.0118876
0.0097676
0.0115272
0.00932047
0.0113553
0.00876139
0.00832499
0.0112777
0.00840003
3.63922e-11
0.00840003
2.07376e-10
0.00840003
7.73146e-10
0.00840003
1.9725e-09
0.00840003
5.45313e-09
0.00840004
1.23708e-08
0.00840004
3.22698e-08
0.00840009
7.13067e-08
0.00840009
1.84059e-07
0.00840035
4.05083e-07
0.00840036
1.04427e-06
0.00840203
2.32297e-06
0.00840186
6.03661e-06
0.00841376
1.37643e-05
0.00841358
3.74016e-05
0.0085038
8.97614e-05
0.00857882
0.000277512
0.00937365
0.000794812
0.0117915
0.0029802
0.012431
0.00873545
0.0123878
0.00988953
0.0121788
0.00997253
0.0119076
0.00958697
0.0117072
0.00895579
0.00848949
0.0115337
0.00840003
3.91227e-11
0.00840003
1.26342e-10
0.00840003
6.81773e-10
0.00840003
1.27822e-09
0.00840003
4.72323e-09
0.00840004
8.12221e-09
0.00840004
2.78392e-08
0.00840006
4.70056e-08
0.00840009
1.58826e-07
0.00840023
2.66098e-07
0.00840036
9.03387e-07
0.00840118
1.49682e-06
0.00840194
5.22434e-06
0.00840732
8.34442e-06
0.00841223
3.22241e-05
0.00845266
4.90391e-05
0.00851182
0.000217116
0.00883841
0.000466441
0.00999682
0.00181739
0.0121857
0.00652988
0.0124276
0.00964135
0.0125116
0.00988238
0.0123153
0.00977715
0.0120313
0.0092319
0.00867044
0.0118391
0.00840003
1.39671e-11
0.00840003
1.44741e-10
0.00840003
3.45884e-10
0.00840003
1.3081e-09
0.00840003
2.4925e-09
0.00840003
8.14982e-09
0.00840005
1.48833e-08
0.00840004
4.71213e-08
0.00840012
8.53072e-08
0.00840011
2.68605e-07
0.00840053
4.84526e-07
0.00840047
1.53489e-06
0.00840295
2.73807e-06
0.00840219
9.00251e-06
0.00841891
1.54587e-05
0.00841106
5.62792e-05
0.00853027
9.75488e-05
0.00858093
0.000413276
0.00940061
0.000994239
0.0122267
0.00368401
0.012746
0.00911376
0.0127024
0.00991803
0.012536
0.00993521
0.0122917
0.00946471
0.00882257
0.0121208
0.00840003
1.72751e-11
0.00840003
6.52376e-11
0.00840003
3.22769e-10
0.00840003
6.48152e-10
0.00840003
2.24973e-09
0.00840004
4.10734e-09
0.00840004
1.3253e-08
0.00840006
2.37538e-08
0.00840007
7.53405e-08
0.0084002
1.34405e-07
0.00840026
4.25963e-07
0.00840103
7.55741e-07
0.00840129
2.4431e-06
0.00840609
4.17945e-06
0.00840648
1.48899e-05
0.00843957
2.30799e-05
0.00843775
9.8422e-05
0.00868921
0.000161022
0.00891718
0.000762971
0.0105598
0.00203378
0.0127116
0.00694379
0.0128066
0.00981448
0.0128396
0.0098849
0.0126304
0.0096531
0.00900656
0.0124221
0.00840003
8.10754e-12
0.00840003
5.78909e-11
0.00840003
1.79418e-10
0.00840003
5.3884e-10
0.00840003
1.2744e-09
0.00840003
3.35885e-09
0.00840004
7.5248e-09
0.00840004
1.92599e-08
0.00840007
4.25942e-08
0.0084001
1.08349e-07
0.00840029
2.38476e-07
0.00840042
6.08756e-07
0.00840152
1.3328e-06
0.00840214
3.5024e-06
0.00840957
7.43306e-06
0.00841083
2.14574e-05
0.00846476
4.43472e-05
0.00847926
0.000144805
0.00888779
0.00035252
0.00954748
0.0013679
0.0123955
0.0040734
0.013101
0.00909362
0.0129083
0.0100603
0.0128091
0.00972272
0.009118
0.0126602
0.00840003
3.21335e-12
0.00840003
4.81894e-11
0.00840003
1.05855e-10
0.00840003
4.2648e-10
0.00840003
7.6924e-10
0.00840003
2.62875e-09
0.00840003
4.57144e-09
0.00840004
1.50438e-08
0.00840005
2.59696e-08
0.00840008
8.47296e-08
0.00840017
1.4578e-07
0.00840029
4.76498e-07
0.0084008
8.13508e-07
0.00840156
2.70803e-06
0.00840448
4.4605e-06
0.0084095
1.62157e-05
0.00842974
2.38156e-05
0.00846656
0.000106761
0.00864708
0.000170284
0.00920643
0.00080293
0.0110585
0.00220983
0.0130773
0.00704299
0.0131981
0.00991452
0.0131709
0.00970557
0.00900353
0.0132018
0.00840003
4.12422e-12
0.00840003
2.37585e-11
0.00840003
8.78266e-11
0.00840003
2.26485e-10
0.00840003
6.1851e-10
0.00840003
1.41497e-09
0.00840003
3.63277e-09
0.00840004
8.10133e-09
0.00840004
2.04933e-08
0.00840008
4.54349e-08
0.00840011
1.14529e-07
0.00840033
2.5332e-07
0.00840049
6.40033e-07
0.00840178
1.41047e-06
0.00840251
3.64798e-06
0.00841081
7.83704e-06
0.00841197
2.21142e-05
0.0084728
4.57427e-05
0.00849181
0.000148386
0.00893214
0.000360081
0.0097467
0.0013838
0.0127283
0.00402452
0.0134548
0.00914767
0.0135577
0.00951111
0.00871606
0.0137037
0.00840003
3.84377e-12
0.00840003
1.27952e-11
0.00840003
6.73167e-11
0.00840003
1.28697e-10
0.00840003
4.64043e-10
0.00840003
8.11553e-10
0.00840003
2.70882e-09
0.00840004
4.64823e-09
0.00840004
1.52449e-08
0.00840006
2.6017e-08
0.00840009
8.5114e-08
0.00840019
1.44567e-07
0.00840034
4.75153e-07
0.00840094
7.98334e-07
0.00840182
2.68193e-06
0.00840524
4.30769e-06
0.00841087
1.59799e-05
0.00843342
2.2549e-05
0.00847602
0.000102934
0.00867033
0.000161715
0.00927136
0.000768258
0.0111659
0.00209959
0.0135048
0.00673221
0.014049
0.00878022
0.00820716
0.0143791
0.00840003
9.96488e-13
0.00840003
1.2147e-11
0.00840003
2.69238e-11
0.00840003
1.08527e-10
0.00840003
1.93143e-10
0.00840003
6.65169e-10
0.00840003
1.12804e-09
0.00840003
3.75447e-09
0.00840004
6.26242e-09
0.00840005
2.07491e-08
0.0084001
3.42003e-08
0.00840012
1.13892e-07
0.0084004
1.84933e-07
0.00840054
6.2521e-07
0.00840219
9.87526e-07
0.00840271
3.52614e-06
0.00841343
5.12723e-06
0.00841274
2.1466e-05
0.00848699
2.77183e-05
0.00849575
0.000143658
0.00901328
0.000237719
0.0100171
0.00105298
0.0132989
0.00332047
0.0143206
0.00747259
0.00755561
0.0148594
0.00840003
8.87364e-13
0.00840003
5.69901e-12
0.00840003
2.03851e-11
0.00840003
5.361e-11
0.00840003
1.43052e-10
0.00840003
3.31307e-10
0.00840003
8.30258e-10
0.00840003
1.86934e-09
0.00840003
4.60267e-09
0.00840004
1.02963e-08
0.00840005
2.51686e-08
0.0084001
5.62366e-08
0.00840013
1.3673e-07
0.00840042
3.06415e-07
0.00840053
7.37518e-07
0.0084022
1.68747e-06
0.00840256
3.89948e-06
0.00841337
9.61375e-06
0.00841534
2.0529e-05
0.00849545
5.75699e-05
0.0085648
0.000143012
0.00917706
0.000413464
0.0107569
0.00158488
0.0129525
0.00490499
0.0060883
0.0144319
0.00840003
6.98274e-13
0.00840003
3.54066e-12
0.00840003
1.32045e-11
0.00840003
3.36975e-11
0.00840003
9.21178e-11
0.00840003
2.10089e-10
0.00840003
5.40633e-10
0.00840003
1.20039e-09
0.00840003
3.06109e-09
0.00840003
6.74598e-09
0.00840004
1.72444e-08
0.00840005
3.78771e-08
0.00840006
9.63864e-08
0.00840013
2.13435e-07
0.00840018
5.11282e-07
0.00840047
1.21047e-06
0.00840084
2.54671e-06
0.00840296
6.26375e-06
0.0084046
1.35963e-05
0.00842471
2.85587e-05
0.00845249
8.71074e-05
0.00863389
0.000208248
0.00931337
0.000770088
0.0108601
0.00297189
0.00441624
0.0126515
0.00840003
7.40263e-13
0.00840003
7.67588e-13
0.00840003
1.00453e-11
0.00840003
9.47924e-12
0.00840003
6.7735e-11
0.00840003
6.00244e-11
0.00840003
3.90532e-10
0.00840003
3.28743e-10
0.00840003
2.17487e-09
0.00840004
1.72184e-09
0.00840004
1.20835e-08
0.00840006
8.78004e-09
0.00840006
6.827e-08
0.0084002
4.09988e-08
0.00840009
4.19112e-07
0.00840091
1.20041e-07
0.00839935
2.9633e-06
0.00840498
-8.11487e-07
0.00839174
2.10256e-05
0.00842408
-1.34168e-05
0.00835124
0.000136578
0.00849838
1.79068e-05
0.00854865
0.000627709
0.00910927
0.00198205
0.00315541
0.0105178
0.00840003
1.85456e-13
0.00840003
1.297e-12
0.00840003
4.12347e-12
0.00840003
1.21528e-11
0.00840003
2.93164e-11
0.00840003
7.56941e-11
0.00840003
1.72979e-10
0.00840003
4.32156e-10
0.00840003
9.76954e-10
0.00840003
2.41951e-09
0.00840003
5.44969e-09
0.00840002
1.35664e-08
0.00840005
3.01641e-08
0.00839994
7.73453e-08
0.00840011
1.67775e-07
0.00839929
4.38099e-07
0.00840061
9.63324e-07
0.00839489
2.43669e-06
0.008407
5.44855e-06
0.00836651
1.51271e-05
0.008449
3.68558e-05
0.00829569
0.000119911
0.00843031
0.000373141
0.00821279
0.00180083
0.00252879
0.00903007
0.00840003
-4.37489e-14
0.00840003
1.97601e-12
0.00840003
1.48822e-12
0.00840003
1.62578e-11
0.00840003
1.17829e-11
0.00840003
1.01123e-10
0.00840003
7.38932e-11
0.00840003
5.98994e-10
0.00840003
4.42168e-10
0.00840003
3.53084e-09
0.00840003
2.54409e-09
0.00840002
2.10701e-08
0.00840003
1.25416e-08
0.00839993
1.33522e-07
0.00839998
4.13017e-08
0.00839916
8.82889e-07
0.00839993
-1.4823e-07
0.00839405
5.85877e-06
0.00840001
-2.59684e-06
0.00836232
4.03026e-05
0.00839597
-1.35854e-05
0.00822538
0.00024923
0.00823648
0.00026183
0.00760944
0.00203457
0.00234946
0.00799855
0.00840003
2.55336e-13
0.00840003
-3.40793e-13
0.00840003
2.5801e-12
0.00840003
-1.61403e-12
0.00840003
1.67069e-11
0.00840003
-9.92928e-12
0.00840003
9.33338e-11
0.00840003
-7.04654e-11
0.00840003
5.0291e-10
0.00840003
-5.10723e-10
0.00840003
2.75332e-09
0.00840005
-4.04124e-09
0.00840003
1.77757e-08
0.00840018
-3.50491e-08
0.00839995
1.48473e-07
0.00840098
-2.45884e-07
0.00839868
1.36456e-06
0.00840512
-1.44824e-06
0.00838535
1.1953e-05
0.00842743
-7.63576e-06
0.00829397
9.13547e-05
0.00849098
2.56476e-05
0.00808379
0.000555185
0.00764279
0.0020308
0.00232268
0.0078884
0.00840003
7.01326e-14
0.00840003
4.73954e-13
0.00840003
1.49378e-12
0.00840003
4.29864e-12
0.00840003
1.04188e-11
0.00840003
2.65719e-11
0.00840003
6.10824e-11
0.00840003
1.51924e-10
0.00840003
3.43266e-10
0.00840003
8.62097e-10
0.00840003
1.92554e-09
0.00840001
4.98643e-09
0.00840001
1.13144e-08
0.00839992
2.99378e-08
0.00839995
7.09798e-08
0.00839924
2.23686e-07
0.00840019
4.26506e-07
0.00839494
1.78048e-06
0.00840261
3.51526e-06
0.00837025
1.28364e-05
0.00841504
3.08375e-05
0.00825974
0.000138562
0.00831679
0.000390735
0.00772752
0.00218256
0.00239617
0.00789966
0.00840003
-9.64833e-14
0.00840003
1.42089e-12
0.00840003
5.52662e-13
0.00840003
1.15068e-11
0.00840003
5.38432e-12
0.00840003
7.28929e-11
0.00840003
3.77137e-11
0.00840003
4.45586e-10
0.00840003
2.55194e-10
0.00840003
2.72562e-09
0.00840003
1.70326e-09
0.00840001
1.67921e-08
0.00840001
1.05832e-08
0.00839991
1.06844e-07
0.0083999
4.96303e-08
0.00839922
7.28427e-07
0.00839929
7.20943e-08
0.00839439
4.99027e-06
0.00839786
-1.28298e-06
0.00836697
3.49065e-05
0.00838645
-5.29134e-06
0.00824329
0.00024168
0.00821668
0.000306623
0.00764499
0.00232761
0.00244884
0.00784188
0.00840003
1.2872e-13
0.00840003
-9.40578e-14
0.00840003
1.73586e-12
0.00840003
2.47469e-16
0.00840003
1.1869e-11
0.00840003
1.21034e-12
0.00840003
7.13641e-11
0.00840003
1.02647e-11
0.00840003
4.19248e-10
0.00840003
6.37836e-11
0.00840003
2.4533e-09
0.00840005
2.85306e-10
0.00840004
1.50054e-08
0.00840013
-1.34532e-09
0.0084
1.1113e-07
0.0084008
-4.66404e-08
0.00839924
9.4554e-07
0.00840424
-1.97099e-07
0.00839115
7.38519e-06
0.00841984
6.11369e-07
0.00833061
5.7721e-05
0.00847682
5.58681e-05
0.00816685
0.000472156
0.00823239
0.00181319
0.00232672
0.00857852
0.00840003
-1.7851e-13
0.00840003
7.26113e-13
0.00840003
-1.16732e-12
0.00840003
5.31034e-12
0.00840003
-6.66436e-12
0.00840003
3.26657e-11
0.00840003
-3.5705e-11
0.00840003
1.95888e-10
0.00840003
-1.88451e-10
0.00840003
1.17358e-09
0.00840003
-9.87135e-10
0.00840002
7.09879e-09
0.00840004
-4.803e-09
0.00839997
4.32774e-08
0.00840007
-1.69689e-08
0.00839957
2.96397e-07
0.00840056
-1.34338e-07
0.00839625
2.82743e-06
0.00840439
-1.8903e-06
0.00837237
2.43528e-05
0.00842221
-6.38476e-06
0.00826603
0.000171388
0.00840567
0.00020268
0.00823702
0.00157968
0.00216317
0.00849629
0.00840003
6.15141e-15
0.00840003
3.862e-14
0.00840003
1.32239e-13
0.00840003
3.89201e-13
0.00840003
1.01387e-12
0.00840003
2.70179e-12
0.00840003
6.71335e-12
0.00840003
1.74545e-11
0.00840003
4.34751e-11
0.00840003
1.11416e-10
0.00840003
2.87967e-10
0.00840003
7.23788e-10
0.00840002
2.0391e-09
0.00840005
5.04463e-09
0.00839998
1.79682e-08
0.00840018
3.70236e-08
0.00839955
1.68594e-07
0.0084019
3.53403e-07
0.00839568
1.58913e-06
0.00841405
3.95073e-06
0.00837726
1.52909e-05
0.00847132
4.61987e-05
0.00846097
0.000185187
0.00887224
0.000772892
0.00196999
0.00899829
0.00840003
2.78895e-13
0.00840003
-8.79694e-13
0.00840003
2.04858e-12
0.00840003
-6.08266e-12
0.00840003
1.26013e-11
0.00840003
-3.62264e-11
0.00840003
7.17469e-11
0.00840003
-2.13273e-10
0.00840003
3.99909e-10
0.00840003
-1.26514e-09
0.00840003
2.20808e-09
0.00840004
-7.61827e-09
0.00840002
1.22136e-08
0.00840007
-4.68507e-08
0.00839999
7.20256e-08
0.00840029
-3.08055e-07
0.00839965
5.65957e-07
0.00840235
-2.39932e-06
0.00839601
6.07052e-06
0.00841665
-1.80925e-05
0.00837113
5.09659e-05
0.00846727
-7.11549e-05
0.00843334
0.000173253
0.00868545
0.000293734
0.00143276
0.00903809
0.00840003
6.86995e-14
0.00840003
-1.40954e-13
0.00840003
5.38015e-13
0.00840003
-8.63811e-13
0.00840003
3.42704e-12
0.00840003
-5.02528e-12
0.00840003
1.95188e-11
0.00840003
-3.04124e-11
0.00840003
1.07528e-10
0.00840003
-1.87264e-10
0.00840003
5.85507e-10
0.00840002
-1.16642e-09
0.00840003
3.19148e-09
0.00839997
-7.36701e-09
0.00840001
1.83311e-08
0.00839966
-4.84897e-08
0.00839999
1.31441e-07
0.00839733
-3.53204e-07
0.00840147
1.20195e-06
0.00838211
-2.40288e-06
0.00841671
1.1151e-05
0.00833072
-5.55943e-06
0.00842247
6.28049e-05
0.00825936
0.000293288
0.00108247
0.00841425
0.00840003
-3.42374e-14
0.00840003
3.92007e-13
0.00840003
3.97448e-13
0.00840003
3.20326e-12
0.00840003
3.381e-12
0.00840003
1.94737e-11
0.00840003
2.09584e-11
0.00840003
1.13355e-10
0.00840003
1.26018e-10
0.00840003
6.6069e-10
0.00840003
7.66953e-10
0.00840002
3.89849e-09
0.00840002
4.71157e-09
0.00839997
2.335e-08
0.00839995
2.70019e-08
0.00839968
1.46128e-07
0.00839963
9.77629e-08
0.00839782
9.52414e-07
0.0083985
-7.93005e-08
0.00838681
6.0182e-06
0.00839656
-2.64384e-06
0.00833541
3.80862e-05
0.00834287
4.35476e-05
0.0082269
0.000265506
0.000866742
0.00826302
0.00840003
-1.42598e-13
0.00840003
9.12147e-13
0.00840003
-3.58638e-13
0.00840003
6.90548e-12
0.00840003
-1.50389e-12
0.00840003
4.21163e-11
0.00840003
-6.51873e-12
0.00840003
2.48745e-10
0.00840003
-2.48049e-11
0.00840003
1.47198e-09
0.00840003
-5.78779e-11
0.00840002
8.81422e-09
0.00840003
1.62367e-10
0.00839998
5.35771e-08
0.0084
-1.89674e-10
0.00839973
3.46353e-07
0.00839985
-1.04439e-07
0.00839791
2.42719e-06
0.00839978
-2.4202e-06
0.00838638
1.64881e-05
0.00840175
-2.14402e-05
0.00833582
8.83235e-05
0.00837599
-7.59227e-06
0.00818571
0.000327002
0.000693993
0.00818994
0.00840003
1.82756e-13
0.00840003
-6.07245e-13
0.00840003
1.38956e-12
0.00840003
-4.12379e-12
0.00840003
8.49247e-12
0.00840003
-2.50116e-11
0.00840003
4.67647e-11
0.00840003
-1.51607e-10
0.00840003
2.48002e-10
0.00840003
-9.29199e-10
0.00840003
1.28245e-09
0.00840004
-5.78606e-09
0.00840004
6.54813e-09
0.00840012
-3.66381e-08
0.00840008
3.7996e-08
0.00840065
-2.51527e-07
0.00840007
3.4424e-07
0.00840454
-1.93046e-06
0.00839703
3.93171e-06
0.00842731
-1.38158e-05
0.00837088
2.97549e-05
0.00851533
-6.98881e-05
0.00840966
7.65234e-05
0.00866892
-5.28317e-05
0.000183976
0.00901964
0.00840003
0.00840003
0.00840003
0.00840003
0.00840003
0.00840003
0.00840003
0.00840003
0.00840003
0.00840003
0.00840003
0.00840002
0.00840003
0.00839998
0.00840001
0.0083997
0.00839997
0.00839764
0.00840123
0.00838473
0.00841169
0.00832762
0.00839289
0.00822509
0.00825379
0.00377645
0.00435531
0.00150906
0.00227007
-0.000616347
0.00213057
-0.00157523
0.000962725
-0.00221447
0.000641975
-0.00255955
0.000347977
-0.00268094
0.000123742
-0.00281499
0.000135709
-0.0029775
0.000163401
-0.00312227
0.000145182
-0.00322575
0.000103326
-0.00328769
6.07522e-05
-0.00332888
3.84113e-05
-0.00337948
4.56068e-05
-0.00342319
3.80468e-05
-0.00343951
1.02901e-05
-0.0034263
-2.08147e-05
-0.00338519
-4.98266e-05
-0.00331661
-7.77104e-05
-0.00322312
-0.000102654
-0.00311016
-0.000121917
-0.00297936
-0.000139229
-0.00283885
-0.000148645
-0.00269018
-0.000155705
-0.00253494
-0.00016165
-0.00237314
-0.00016755
-0.00220465
-0.000174056
-0.00202897
-0.000181076
-0.00184539
-0.000188609
-0.00165406
-0.000195815
-0.00145157
-0.000207166
-0.00124399
-0.00021138
-0.00103292
-0.000214321
-0.000820578
-0.0002155
-0.000605797
-0.000217432
-0.000389886
-0.000218054
-0.000170691
-0.000220896
5.78531e-05
-0.000230187
0.000281965
-0.000225625
0.000495479
-0.000214858
0.000703001
-0.000208846
0.000903538
-0.000202015
0.00109863
-0.00019618
0.00128639
-0.000188985
0.00146746
-0.000181922
0.00164438
-0.000177671
0.00181987
-0.000176091
0.00199021
-0.000171288
0.00215473
-0.000165073
0.00231363
-0.000159052
0.0024661
-0.000152526
0.00261284
-0.00014661
0.00275403
-0.000140487
0.00288976