/*--------------------------------*- C++ -*----------------------------------*\
| =========                 |                                                 |
| \\      /  F ield         | OpenFOAM: The Open Source CFD Toolbox           |
|  \\    /   O peration     | Version:  2412                                  |
|   \\  /    A nd           | Website:  www.openfoam.com                      |
|    \\/     M anipulation  |                                                 |
\*---------------------------------------------------------------------------*/
FoamFile
{
    version     2.0;
    format      ascii;
    arch        "LSB;label=32;scalar=64";
    class       volScalarField;
    location    "8.5";
    object      T;
}
// * * * * * * * * * * * * * * * * * * * * * * * * * * * * * * * * * * * * * //

dimensions      [0 0 0 1 0 0 0];

internalField   nonuniform List<scalar> 
5250
(
1.00001
1.00002
1.00008
1.00015
1.0005
1.00091
1.00274
1.00557
1.01468
1.03774
1.08558
1.25742
1.64657
2.45066
2.71674
2.72708
2.72683
2.73204
2.74535
2.75878
2.77089
2.77915
2.78589
2.79054
2.79496
1.00001
1.00002
1.00008
1.00015
1.00049
1.0009
1.00269
1.0055
1.01444
1.03737
1.08451
1.25537
1.63712
2.44308
2.71404
2.72711
2.72677
2.73185
2.74498
2.75812
2.76995
2.77804
2.78439
2.78835
2.79237
1.00001
1.00002
1.00008
1.00015
1.00047
1.00087
1.00258
1.00537
1.01391
1.0366
1.08226
1.25101
1.61696
2.42563
2.70685
2.72615
2.72569
2.73031
2.74323
2.75627
2.76745
2.77557
2.78203
2.78539
2.78836
1.00001
1.00002
1.00008
1.00014
1.00045
1.00083
1.00246
1.00516
1.01325
1.03522
1.07878
1.24361
1.58604
2.39668
2.69502
2.72437
2.72352
2.72692
2.73968
2.75179
2.76395
2.77022
2.77641
2.78098
2.78396
1.00001
1.00002
1.00007
1.00013
1.00042
1.00079
1.0023
1.00488
1.01242
1.03329
1.07406
1.2323
1.54372
2.35271
2.67739
2.7217
2.72035
2.72168
2.73439
2.74442
2.75636
2.76479
2.76978
2.77172
2.77385
1.00001
1.00002
1.00007
1.00012
1.00039
1.00073
1.00214
1.00454
1.01155
1.03094
1.06883
1.21564
1.49679
2.29348
2.65266
2.71874
2.71637
2.71591
2.72815
2.73791
2.74615
2.75208
2.75898
2.76316
2.76483
1.00001
1.00002
1.00006
1.00011
1.00036
1.00067
1.00197
1.00414
1.0106
1.02818
1.06315
1.19536
1.44899
2.21172
2.61967
2.71366
2.70998
2.70664
2.71728
2.72903
2.73816
2.74317
2.74458
2.74572
2.74526
1.00001
1.00002
1.00006
1.0001
1.00033
1.00061
1.00182
1.00369
1.00975
1.02469
1.05663
1.1714
1.39337
2.0979
2.57531
2.70625
2.70277
2.69466
2.70533
2.71144
2.71955
2.72515
2.72795
2.72721
2.72355
1.00001
1.00001
1.00005
1.00009
1.0003
1.00054
1.00166
1.00322
1.00882
1.02097
1.04965
1.14592
1.33374
1.96776
2.51295
2.68793
2.68591
2.68027
2.69361
2.69911
2.70545
2.70504
2.70238
2.69435
2.6749
1.00001
1.00001
1.00004
1.00008
1.00025
1.00046
1.00139
1.00274
1.0074
1.01764
1.04201
1.12146
1.27536
1.742
2.48196
2.66178
2.65812
2.65027
2.66604
2.6723
2.6794
2.67997
2.6719
2.6505
2.60123
1
1.00001
1.00003
1.00009
1.00017
1.00051
1.00099
1.00278
1.00611
1.01536
1.04115
1.09301
1.26823
1.73711
2.41668
2.64533
2.63693
2.64071
2.64404
2.65352
2.65204
2.64697
2.62798
2.58043
2.42251
1
1.00001
1.00003
1.00006
1.00019
1.00036
1.0011
1.00209
1.00601
1.01297
1.03305
1.09001
1.20178
1.59896
2.39482
2.59547
2.61605
2.61614
2.61813
2.62783
2.6277
2.61554
2.58408
2.52532
2.36565
1
1.00001
1.00003
1.00005
1.00017
1.00031
1.00097
1.00178
1.00535
1.01089
1.02879
1.07535
1.17002
1.51
2.28169
2.5562
2.6139
2.60583
2.59445
2.59589
2.59474
2.58244
2.54603
2.49192
2.36863
1
1.00001
1.00002
1.00004
1.00014
1.00026
1.00081
1.00149
1.00441
1.00913
1.0237
1.06263
1.1402
1.42408
2.10656
2.48923
2.60693
2.59547
2.58517
2.5694
2.56079
2.54542
2.51353
2.46976
2.37541
1
1.00001
1.00002
1.00004
1.00012
1.00022
1.00069
1.00125
1.00388
1.00736
1.02105
1.0472
1.11745
1.31728
1.90468
2.38955
2.57968
2.57113
2.56644
2.55375
2.53475
2.51608
2.47457
2.44432
2.3763
1
1
1.00002
1.00003
1.0001
1.00018
1.00056
1.00101
1.00314
1.00591
1.01721
1.03685
1.09574
1.24206
1.70738
2.31002
2.54662
2.5448
2.53884
2.52933
2.51271
2.49508
2.45569
2.40828
2.36705
1
1
1.00001
1.00002
1.00008
1.00014
1.00043
1.00079
1.00239
1.00469
1.01263
1.03057
1.07116
1.20841
1.49935
2.20194
2.50108
2.52987
2.51589
2.50724
2.48644
2.46962
2.4443
2.39562
2.34834
1
1
1.00001
1.00002
1.00006
1.00011
1.00034
1.00062
1.00189
1.00367
1.00997
1.02371
1.05581
1.16396
1.37465
2.00607
2.41583
2.51345
2.50296
2.49358
2.47314
2.44336
2.41981
2.38245
2.33596
1
1
1.00001
1.00001
1.00005
1.00008
1.00026
1.00047
1.00145
1.00278
1.00768
1.01748
1.04229
1.12003
1.2703
1.75465
2.2781
2.47281
2.47429
2.46897
2.45781
2.43241
2.40519
2.37015
2.32689
1
1
1
1.00001
1.00003
1.00008
1.00015
1.00048
1.00089
1.00267
1.00521
1.01462
1.03246
1.08218
1.20888
1.59603
2.16637
2.43094
2.44782
2.43935
2.42832
2.40887
2.38741
2.36145
2.32369
1
1
1
1.00001
1.00002
1.00006
1.00011
1.00036
1.00065
1.00199
1.00383
1.01048
1.0244
1.05816
1.16395
1.39579
1.95781
2.34347
2.42987
2.42638
2.41364
2.39047
2.36415
2.33899
2.31523
1
1
1
1.00001
1.00002
1.00004
1.00011
1.0002
1.00062
1.00117
1.00346
1.00695
1.01877
1.04427
1.10836
1.28426
1.82115
2.18457
2.36689
2.3971
2.395
2.38297
2.35788
2.32882
2.29862
1
1
1
1.00001
1.00001
1.00003
1.00006
1.00018
1.00034
1.00101
1.00197
1.00543
1.01208
1.02974
1.08113
1.17736
1.51731
2.15008
2.3141
2.34736
2.3511
2.35036
2.34325
2.32329
2.29611
1
1
1
1
1.00001
1.00002
1.00005
1.0001
1.0003
1.00057
1.00156
1.00347
1.00846
1.02259
1.05011
1.14884
1.33093
1.88033
2.25556
2.33721
2.33341
2.32547
2.31204
2.30578
2.29095
1
1
1
1
1.00001
1.00002
1.00003
1.00009
1.00017
1.00053
1.00099
1.00294
1.0058
1.01595
1.03573
1.08945
1.22499
1.63371
2.1016
2.30953
2.31411
2.30863
2.29405
2.27317
2.27
1
1
1
1
1
1.00001
1.00002
1.00007
1.00012
1.00038
1.00069
1.00211
1.00397
1.01139
1.0245
1.06072
1.15785
1.40483
1.91015
2.2409
2.30126
2.29864
2.28841
2.26806
2.2526
1
1
1
1
1
1.00001
1.00002
1.00004
1.00011
1.0002
1.00061
1.00114
1.00336
1.00668
1.01809
1.04169
1.10256
1.2639
1.74675
2.08825
2.25455
2.27755
2.27787
2.27106
2.25579
1
1
1
1
1
1.00001
1.00001
1.00003
1.00006
1.00017
1.00031
1.00093
1.0018
1.00497
1.01086
1.02675
1.07179
1.1549
1.45297
2.00812
2.1983
2.24542
2.25051
2.26368
2.26735
1
1
1
1
1
1
1.00001
1.00002
1.00005
1.00009
1.00027
1.0005
1.00149
1.00292
1.00781
1.01805
1.04296
1.11931
1.26559
1.72524
2.09997
2.23221
2.24344
2.25655
2.27854
1
1
1
1
1
1
1.00001
1.00001
1.00003
1.00006
1.00019
1.00034
1.00104
1.0019
1.00568
1.01118
1.02975
1.07217
1.16818
1.45022
1.98367
2.18906
2.24582
2.27094
2.30367
1
1
1
1
1
1
1
1.00001
1.00002
1.00005
1.00009
1.00028
1.00052
1.00156
1.00301
1.00825
1.01839
1.04474
1.12128
1.27632
1.71873
2.08715
2.24691
2.31221
2.36466
1
1
1
1
1
1
1
1.00001
1.00001
1.00003
1.00006
1.0002
1.00035
1.00109
1.002
1.00598
1.0117
1.03149
1.07437
1.17915
1.46413
2.01729
2.23647
2.36842
2.42125
1
1
1
1
1
1
1
1
1.00001
1.00002
1.00005
1.0001
1.0003
1.00057
1.00167
1.00331
1.00877
1.0206
1.04874
1.13571
1.31083
1.79024
2.23702
2.46857
2.50888
1
1
1
1
1
1
1
1
1.00001
1.00002
1.00003
1.0001
1.00018
1.00057
1.00106
1.00318
1.00622
1.01735
1.03925
1.09752
1.25636
1.71388
2.28938
2.56067
2.58588
1
1
1
1
1
1
1
1
1
1.00001
1.00003
1.00008
1.00015
1.00048
1.00086
1.0027
1.00514
1.01462
1.03367
1.08156
1.23329
1.60424
2.32443
2.6673
2.67012
1
1
1
1
1
1
1
1
1
1.00001
1.00002
1.00007
1.00012
1.00037
1.00073
1.002
1.00471
1.01159
1.03239
1.07232
1.22522
1.56227
2.29986
2.73423
2.74113
1
1
1
1
1
1
1
1
1
1.00001
1.00003
1.00005
1.00015
1.00028
1.00083
1.00172
1.00464
1.0114
1.02775
1.08081
1.17619
1.57131
2.34985
2.76791
2.76708
1
1
1
1
1
1
1
1
1
1.00001
1.00002
1.00004
1.00014
1.00026
1.00077
1.00161
1.00423
1.01077
1.02555
1.07628
1.16437
1.55361
2.32083
2.78212
2.77736
1
1
1
1
1
1
1
1
1
1.00001
1.00002
1.00005
1.0001
1.00025
1.00061
1.00145
1.00409
1.00898
1.02774
1.05802
1.19709
1.46412
2.18236
2.77937
2.7812
1
1
1
1
1
1
1
1
1
1.00001
1.00002
1.00004
1.00013
1.00024
1.00072
1.00146
1.00388
1.0097
1.02268
1.0684
1.14432
1.4956
2.19615
2.76159
2.76948
1
1
1
1
1
1
1
1
1
1.00001
1.00002
1.00004
1.00012
1.00022
1.0007
1.00136
1.00383
1.00885
1.02169
1.0631
1.13641
1.45403
2.1495
2.75145
2.76086
1
1
1
1
1
1
1
1
1
1.00001
1.00001
1.00004
1.00008
1.00023
1.00051
1.00126
1.00337
1.00757
1.02247
1.04799
1.15728
1.36218
2.00456
2.72219
2.76858
1
1
1
1
1
1
1
1
1
1.00001
1.00002
1.00003
1.00011
1.0002
1.00062
1.00122
1.00337
1.00783
1.01919
1.05452
1.12099
1.37433
2.02556
2.65369
2.7591
1
1
1
1
1
1
1
1
1
1.00001
1.00001
1.00004
1.00008
1.00025
1.00047
1.00136
1.00289
1.00738
1.01933
1.04422
1.13332
1.30558
1.84052
2.62386
2.77178
1
1
1
1
1
1
1
1
1
1.00001
1.00001
1.00004
1.00008
1.00025
1.00046
1.00137
1.00278
1.00736
1.01823
1.04282
1.12648
1.29128
1.77879
2.62561
2.78259
1
1
1
1
1
1
1
1
1
1.00001
1.00002
1.00003
1.00011
1.00019
1.00061
1.00113
1.00345
1.0069
1.01882
1.04621
1.11017
1.31305
1.89633
2.55273
2.77159
1
1
1
1
1
1
1
1
1
1.00001
1.00002
1.00003
1.00011
1.00019
1.00062
1.00112
1.00351
1.0067
1.01931
1.04365
1.10952
1.29944
1.87551
2.54543
2.76712
1
1
1
1
1
1
1
1
1
1.00001
1.00002
1.00003
1.0001
1.00019
1.0006
1.0011
1.00338
1.00668
1.01842
1.04432
1.10639
1.3008
1.86099
2.54415
2.76542
1
1
1
1
1
1
1
1
1
1.00001
1.00001
1.00004
1.00007
1.00022
1.00043
1.00121
1.00267
1.00658
1.01766
1.0398
1.11912
1.26807
1.7385
2.59257
2.76386
1
1
1
1
1
1
1
1
1
1.00001
1.00002
1.00003
1.0001
1.00019
1.00059
1.00108
1.00331
1.00658
1.018
1.04378
1.10435
1.29626
1.84277
2.53868
2.76288
2.44471
2.75938
2.93408
3.17356
3.16326
3.12148
3.10757
3.09357
3.07624
3.05481
3.03815
3.0214
3.00543
2.99083
2.98395
2.98272
2.98405
2.99298
3.00335
3.01924
3.03243
3.04855
3.06095
3.07356
3.08377
3.0937
3.10182
3.10866
3.11417
3.11794
3.12023
3.1209
3.12101
3.11827
3.11413
3.1083
3.10387
3.09777
3.09296
3.08817
3.07964
3.07343
3.06533
3.0567
3.04895
3.03844
3.0298
3.01802
3.00991
2.99733
2.98832
2.97607
2.96697
2.95413
2.94531
2.93183
2.92276
2.90915
2.89981
2.88648
2.87628
2.86364
2.85344
2.84081
2.83081
2.81814
2.80805
2.79555
2.78526
2.77279
2.7625
2.74987
2.73976
2.72693
2.71703
2.70424
2.69433
2.68196
2.67179
2.66006
2.64964
2.63842
2.62802
2.61703
2.60685
2.596
2.58605
2.57534
2.5656
2.55509
2.54557
2.53525
2.52613
2.51603
2.50766
2.49801
2.49098
2.48259
2.4781
2.47254
2.34114
2.51654
2.69464
2.9902
3.14549
3.24743
3.32666
3.33378
3.33431
3.33131
3.32998
3.32597
3.32111
3.3139
3.31127
3.31529
3.3162
3.31874
3.31948
3.31974
3.31753
3.31242
3.30403
3.29478
3.28309
3.26937
3.25386
3.24319
3.23276
3.21844
3.20736
3.18942
3.17511
3.1573
3.14254
3.12402
3.10867
3.09084
3.07531
3.05824
3.04272
3.0245
3.00904
2.9915
2.97578
2.95915
2.94438
2.92726
2.91214
2.8954
2.88058
2.86472
2.85036
2.8355
2.82076
2.80721
2.79217
2.77947
2.76453
2.75209
2.73733
2.72521
2.71048
2.69882
2.68419
2.67288
2.65853
2.64737
2.6335
2.62231
2.60908
2.59785
2.58522
2.5741
2.56183
2.55104
2.53885
2.52851
2.51632
2.50641
2.49432
2.48473
2.47288
2.46354
2.45206
2.44293
2.43189
2.42288
2.41233
2.40342
2.39331
2.38446
2.37495
2.36623
2.3576
2.34929
2.34209
2.33499
2.3304
2.32616
2.30662
2.34242
2.44586
2.56562
2.74284
2.9178
3.1265
3.25256
3.33297
3.38145
3.40407
3.4448
3.45932
3.46479
3.47035
3.47665
3.47656
3.47488
3.46425
3.44581
3.42326
3.39968
3.3706
3.34156
3.31128
3.27973
3.25044
3.21913
3.1878
3.15361
3.12336
3.09105
3.06058
3.03031
3.00009
2.97306
2.94452
2.91992
2.89378
2.87132
2.84756
2.82664
2.80537
2.78593
2.76694
2.74922
2.73178
2.71439
2.69699
2.68169
2.66571
2.65176
2.63691
2.62351
2.60958
2.59651
2.58343
2.57078
2.55827
2.54612
2.5341
2.52254
2.51109
2.50008
2.48923
2.47855
2.46823
2.45766
2.44782
2.43732
2.42788
2.41752
2.4083
2.39824
2.38908
2.37942
2.37032
2.36103
2.35212
2.34308
2.33451
2.32562
2.31744
2.30866
2.3008
2.29214
2.28446
2.27596
2.26841
2.26002
2.2527
2.24448
2.23748
2.22941
2.22289
2.21519
2.20953
2.20292
2.19915
2.19524
2.30936
2.27531
2.30998
2.35271
2.44013
2.54409
2.67556
2.85008
3.01488
3.17873
3.27162
3.34251
3.3926
3.42525
3.44502
3.45087
3.44231
3.421
3.39898
3.36512
3.32373
3.28193
3.23765
3.19235
3.14665
3.10123
3.05578
3.01106
2.96744
2.92545
2.8875
2.84982
2.81781
2.78475
2.75804
2.72956
2.7071
2.68279
2.66336
2.64226
2.62553
2.60741
2.5927
2.57736
2.56436
2.5513
2.53948
2.52687
2.51503
2.50317
2.4923
2.48118
2.4707
2.46014
2.45021
2.44014
2.43058
2.42081
2.4115
2.40192
2.39282
2.38339
2.37456
2.36529
2.35672
2.34759
2.33919
2.33016
2.32183
2.31295
2.30459
2.29597
2.2875
2.2792
2.27056
2.26256
2.25377
2.24601
2.23712
2.22953
2.2206
2.21311
2.20412
2.19678
2.18779
2.18064
2.1718
2.16493
2.15628
2.14966
2.14129
2.13491
2.12696
2.12087
2.11357
2.10802
2.1018
2.09746
2.09332
2.0917
2.30754
2.27053
2.24693
2.26314
2.29021
2.34435
2.40641
2.49607
2.59761
2.7172
2.85295
2.98533
3.09111
3.17249
3.22071
3.23867
3.22481
3.1916
3.14439
3.0921
3.03651
2.98353
2.93278
2.8846
2.83758
2.79332
2.75141
2.71277
2.67802
2.64657
2.61905
2.59407
2.57272
2.55321
2.53685
2.52167
2.50904
2.49703
2.48712
2.47783
2.46983
2.46203
2.45486
2.44798
2.44147
2.43549
2.42926
2.42276
2.41568
2.40883
2.40169
2.39506
2.38802
2.38159
2.37451
2.36803
2.36074
2.354
2.34651
2.33941
2.33185
2.32439
2.31694
2.30911
2.30183
2.29368
2.28645
2.2781
2.27078
2.26242
2.25495
2.24675
2.23913
2.23116
2.22339
2.21561
2.2077
2.19999
2.19185
2.18407
2.17577
2.16798
2.15971
2.15192
2.1437
2.1359
2.12781
2.12001
2.11209
2.10429
2.09664
2.08882
2.08159
2.0738
2.06718
2.05964
2.05399
2.04733
2.04352
2.0393
2.30858
2.25867
2.23881
2.21778
2.22641
2.24566
2.27481
2.31705
2.36915
2.43508
2.50898
2.5896
2.6647
2.72736
2.7668
2.78103
2.76666
2.73683
2.69093
2.65058
2.60947
2.57729
2.54911
2.52555
2.50514
2.48814
2.47321
2.46044
2.44967
2.44071
2.43353
2.42743
2.42271
2.41816
2.41473
2.41132
2.40848
2.40574
2.4031
2.4006
2.39781
2.39495
2.39166
2.38825
2.38466
2.38112
2.37733
2.37268
2.36764
2.36179
2.35652
2.35046
2.34511
2.33876
2.3332
2.3265
2.32072
2.3137
2.30776
2.30045
2.2944
2.2868
2.28064
2.27275
2.26648
2.25835
2.25194
2.24366
2.237
2.22867
2.2217
2.21343
2.20614
2.19803
2.19052
2.18247
2.17475
2.16681
2.15909
2.15131
2.1437
2.13604
2.12855
2.12096
2.1136
2.10604
2.0988
2.09124
2.08417
2.07658
2.06975
2.06213
2.05566
2.0481
2.04215
2.03488
2.02974
2.02334
2.01978
2.01576
2.30401
2.25873
2.2226
2.20809
2.19014
2.19589
2.20767
2.22852
2.25766
2.2954
2.33807
2.38698
2.42951
2.46572
2.49015
2.4895
2.47735
2.45377
2.42278
2.40095
2.37438
2.36573
2.35367
2.35315
2.35184
2.35145
2.35099
2.35088
2.35082
2.35112
2.35151
2.35237
2.35297
2.35359
2.35417
2.35431
2.35412
2.35362
2.35241
2.35126
2.34896
2.34698
2.3438
2.341
2.33718
2.33428
2.33033
2.32666
2.32139
2.31645
2.31069
2.30541
2.29952
2.2939
2.28784
2.28182
2.2756
2.26914
2.26276
2.25585
2.24936
2.24202
2.23547
2.2278
2.22118
2.21334
2.20659
2.19874
2.19176
2.18401
2.17679
2.16919
2.16177
2.15443
2.14676
2.13965
2.13199
2.12508
2.11745
2.11067
2.1031
2.09637
2.08889
2.0822
2.07483
2.06812
2.06085
2.05408
2.04697
2.04012
2.03325
2.02634
2.01986
2.01298
2.00706
2.00044
1.99534
1.98954
1.98599
1.98245
2.2935
2.25588
2.22086
2.19548
2.18287
2.16935
2.17397
2.18518
2.19969
2.22852
2.25469
2.28627
2.31643
2.33387
2.34919
2.34556
2.33123
2.30689
2.28602
2.26675
2.25586
2.2467
2.24507
2.24985
2.25542
2.26302
2.26801
2.2736
2.27669
2.28058
2.28273
2.28565
2.28739
2.28932
2.29072
2.29156
2.29159
2.2913
2.29051
2.28933
2.28742
2.28543
2.28266
2.27981
2.27643
2.27341
2.27007
2.26654
2.26216
2.25738
2.25228
2.24709
2.24183
2.23638
2.23099
2.22523
2.21958
2.21348
2.20749
2.20107
2.19475
2.18814
2.1816
2.17493
2.16821
2.16148
2.15455
2.1477
2.14052
2.13357
2.12612
2.11915
2.11144
2.1045
2.09673
2.08999
2.0822
2.07561
2.06786
2.06141
2.05378
2.04742
2.03995
2.03365
2.02638
2.02011
2.01307
2.00678
2.00001
1.99364
1.98719
1.98074
1.97468
1.96826
1.96271
1.95661
1.95181
1.94657
1.94321
1.94013
2.28329
2.24547
2.21671
2.18873
2.17477
2.16402
2.16181
2.17279
2.18624
2.20776
2.23159
2.25257
2.27506
2.28392
2.29029
2.28282
2.26388
2.23929
2.21735
2.20056
2.19186
2.1847
2.18402
2.18533
2.19335
2.20154
2.21073
2.21863
2.22475
2.22984
2.23343
2.23703
2.23949
2.24224
2.2437
2.24518
2.24555
2.24571
2.24536
2.24452
2.24345
2.24194
2.24015
2.23791
2.2354
2.23291
2.23043
2.22764
2.22426
2.22027
2.21599
2.21145
2.20689
2.20199
2.19721
2.19187
2.18681
2.181
2.17563
2.16939
2.16372
2.15718
2.1513
2.14462
2.13856
2.13178
2.12543
2.11851
2.11177
2.10472
2.09755
2.0905
2.08318
2.07627
2.06885
2.06206
2.05461
2.04787
2.04046
2.03375
2.02643
2.01972
2.01257
2.00584
1.9989
1.99214
1.98543
1.97863
1.97217
1.96534
1.9592
1.95237
1.94662
1.93994
1.93468
1.9284
1.9239
1.91848
1.91537
1.91197
2.28206
2.24277
2.21019
2.18474
2.16498
2.15854
2.1554
2.16855
2.18735
2.20639
2.23199
2.25261
2.26944
2.27408
2.27298
2.25973
2.23681
2.21062
2.18616
2.169
2.15596
2.15046
2.14549
2.14539
2.14735
2.15402
2.16117
2.16909
2.17691
2.18309
2.18803
2.19209
2.19519
2.19807
2.19985
2.20188
2.2028
2.20421
2.20458
2.20537
2.20526
2.20491
2.20409
2.20297
2.20111
2.19934
2.19732
2.19519
2.19242
2.18913
2.18549
2.18157
2.17758
2.1732
2.16891
2.16399
2.15932
2.15383
2.14876
2.14279
2.13744
2.13119
2.12564
2.11926
2.11348
2.107
2.10086
2.09425
2.08762
2.08091
2.07398
2.06732
2.0602
2.05364
2.04647
2.04001
2.03288
2.02649
2.01942
2.01303
2.00604
1.99961
1.99272
1.98625
1.97953
1.97306
1.96659
1.96013
1.95397
1.94754
1.94174
1.93542
1.93007
1.92401
1.91924
1.91375
1.90975
1.90521
1.90263
1.90003
2.28036
2.24436
2.21146
2.18757
2.16806
2.16235
2.1651
2.1791
2.19789
2.21749
2.24256
2.26114
2.26705
2.27041
2.26252
2.2431
2.21586
2.18931
2.16659
2.14759
2.13402
2.12383
2.1187
2.11451
2.11305
2.1138
2.11836
2.12339
2.13132
2.13876
2.14621
2.15183
2.15683
2.1604
2.1634
2.1656
2.16746
2.16875
2.1701
2.17069
2.17137
2.17152
2.17109
2.17036
2.16885
2.16721
2.16515
2.16321
2.16057
2.15758
2.15397
2.15022
2.14612
2.14182
2.1373
2.13249
2.12754
2.12228
2.11696
2.11139
2.10577
2.10003
2.09417
2.0883
2.08212
2.07604
2.06944
2.06313
2.05621
2.04981
2.0427
2.03633
2.02913
2.02286
2.01565
2.00949
2.0023
1.99617
1.98903
1.98287
1.97578
1.96956
1.96257
1.95629
1.94945
1.94317
1.93657
1.93031
1.92405
1.91786
1.91201
1.90599
1.90066
1.89503
1.89037
1.88544
1.88164
1.8779
1.87584
1.87395
2.27214
2.24432
2.2138
2.19471
2.1789
2.1767
2.18565
2.20107
2.22072
2.24575
2.26614
2.27677
2.27877
2.27436
2.2589
2.23335
2.20639
2.18181
2.15935
2.14052
2.12424
2.1117
2.1019
2.09533
2.09086
2.08891
2.08832
2.09088
2.09571
2.10287
2.11106
2.11868
2.12506
2.13002
2.13391
2.13671
2.1389
2.14076
2.14227
2.1438
2.14469
2.14564
2.14572
2.14532
2.14442
2.14309
2.14147
2.1399
2.13799
2.13558
2.13272
2.12943
2.12598
2.12203
2.11806
2.11356
2.10917
2.10423
2.09948
2.09422
2.08915
2.08363
2.07818
2.07241
2.06654
2.06051
2.05423
2.04808
2.04151
2.03527
2.0285
2.02224
2.01537
2.00918
2.00229
1.99618
1.98928
1.9832
1.97627
1.97014
1.96323
1.95702
1.9502
1.94393
1.9373
1.93101
1.92467
1.91843
1.91247
1.90636
1.90085
1.895
1.89005
1.88471
1.88045
1.87592
1.87271
1.86965
1.8684
1.86686
2.2647
2.24269
2.21895
2.20323
2.1986
2.20269
2.21637
2.23127
2.25465
2.27546
2.28693
2.29102
2.28874
2.27681
2.25412
2.22861
2.2035
2.18088
2.15905
2.14009
2.12226
2.1074
2.09435
2.08405
2.07659
2.07188
2.06931
2.06826
2.06925
2.0732
2.07845
2.08586
2.09291
2.09901
2.10397
2.10783
2.11095
2.11341
2.11551
2.11699
2.11828
2.11887
2.11938
2.11916
2.11835
2.11738
2.11577
2.11448
2.11272
2.11071
2.10799
2.10499
2.10166
2.09802
2.09416
2.08991
2.08552
2.08073
2.07589
2.0707
2.06551
2.06004
2.05452
2.04884
2.04296
2.0371
2.03095
2.02499
2.01855
2.01251
2.00581
1.99974
1.99289
1.98685
1.97997
1.97398
1.96713
1.96117
1.95436
1.94841
1.94166
1.9357
1.92904
1.92309
1.91664
1.91074
1.9046
1.89883
1.89313
1.88756
1.88244
1.87725
1.87281
1.86831
1.86462
1.86122
1.85887
1.85722
1.85698
1.85606
2.26555
2.2448
2.2284
2.22023
2.22196
2.23309
2.24738
2.26915
2.28943
2.30119
2.30493
2.30311
2.2926
2.27343
2.24968
2.22655
2.20414
2.18316
2.16283
2.14397
2.1257
2.10928
2.09399
2.08107
2.07007
2.06106
2.05584
2.05184
2.05078
2.05007
2.05181
2.05607
2.06185
2.06888
2.07482
2.08044
2.08452
2.0882
2.09083
2.09296
2.09463
2.09568
2.09657
2.09673
2.09626
2.09555
2.09412
2.09291
2.09137
2.08966
2.08723
2.08451
2.08136
2.07799
2.07428
2.07024
2.06599
2.06143
2.05673
2.05181
2.04669
2.0415
2.03596
2.0305
2.02464
2.01907
2.01297
2.00726
2.00089
1.99499
1.98834
1.98233
1.97547
1.9695
1.96252
1.95669
1.94966
1.94398
1.93697
1.93135
1.92445
1.9188
1.91212
1.90641
1.90008
1.89432
1.88847
1.88278
1.87749
1.87214
1.86744
1.8628
1.85879
1.85506
1.85209
1.84987
1.84873
1.84866
1.84985
1.84859
2.26255
2.2533
2.24776
2.25
2.25941
2.27076
2.28918
2.30735
2.31788
2.32154
2.31915
2.30944
2.29
2.26898
2.2477
2.22745
2.20737
2.18757
2.16858
2.14926
2.13101
2.11272
2.09641
2.08063
2.06786
2.05609
2.04728
2.04032
2.03597
2.03352
2.0332
2.03339
2.03681
2.04138
2.04805
2.05402
2.05984
2.06479
2.06854
2.07169
2.07363
2.07529
2.07597
2.07645
2.07603
2.07528
2.07395
2.07269
2.07125
2.06964
2.06762
2.0651
2.06233
2.05921
2.05581
2.05209
2.04804
2.04375
2.03912
2.03435
2.02927
2.02414
2.01864
2.01328
2.00754
2.00213
1.99615
1.99068
1.98439
1.97879
1.97214
1.96641
1.9595
1.9537
1.94667
1.94089
1.93392
1.92818
1.92138
1.91565
1.90906
1.9033
1.89699
1.89117
1.88523
1.87946
1.87391
1.86851
1.86336
1.85867
1.85413
1.85035
1.84679
1.84403
1.84213
1.84149
1.84173
1.84272
1.84507
1.84432
2.25295
2.25691
2.26861
2.28164
2.29846
2.31792
2.33484
2.34232
2.34383
2.33974
2.32846
2.30828
2.28751
2.26738
2.24889
2.22972
2.21145
2.19191
2.17342
2.15393
2.13544
2.11659
2.09949
2.08269
2.0686
2.05491
2.04457
2.03517
2.02928
2.02429
2.02183
2.02058
2.02039
2.02137
2.02504
2.02972
2.03545
2.04052
2.04531
2.04873
2.05141
2.05325
2.05415
2.05466
2.05449
2.05385
2.05276
2.05155
2.05022
2.0489
2.04707
2.04492
2.04228
2.0394
2.03611
2.03259
2.02863
2.0246
2.02002
2.01563
2.01049
2.00581
2.00024
1.99535
1.98961
1.98454
1.97872
1.97342
1.96748
1.9619
1.95577
1.94993
1.94362
1.93758
1.93121
1.92507
1.91876
1.91263
1.90649
1.90043
1.89452
1.88852
1.88288
1.87696
1.87164
1.8659
1.86098
1.85571
1.85131
1.84688
1.84324
1.83982
1.83738
1.83551
1.83538
1.83585
1.8373
1.83928
1.84337
1.84452
2.25951
2.26996
2.2879
2.31326
2.33844
2.36121
2.36802
2.3707
2.36504
2.35167
2.33224
2.31056
2.29161
2.27342
2.25632
2.23843
2.22066
2.2022
2.1836
2.16478
2.14592
2.12745
2.1097
2.09287
2.0772
2.06261
2.04986
2.03774
2.02818
2.02003
2.0139
2.00929
2.00633
2.00455
2.00292
2.00402
2.00697
2.01202
2.01641
2.02112
2.02486
2.02752
2.02958
2.03024
2.03069
2.03032
2.02943
2.02834
2.02712
2.02594
2.02457
2.02265
2.02045
2.0177
2.01483
2.01143
2.00785
2.00383
1.99957
1.99506
1.99019
1.98534
1.98006
1.97516
1.96967
1.96478
1.95915
1.9542
1.94844
1.94329
1.93738
1.93195
1.92593
1.92025
1.91423
1.9084
1.90244
1.89661
1.89077
1.88506
1.87935
1.87386
1.86831
1.86307
1.8578
1.85286
1.84811
1.84369
1.83972
1.83627
1.83319
1.83102
1.82971
1.82982
1.83083
1.83237
1.83488
1.83974
1.84671
1.8507
2.28004
2.29649
2.32011
2.34641
2.37244
2.3801
2.38612
2.37969
2.36607
2.34618
2.32748
2.30902
2.29189
2.27607
2.26013
2.24394
2.22696
2.20956
2.19145
2.17317
2.15438
2.13599
2.11755
2.10004
2.08269
2.06701
2.0514
2.03819
2.02511
2.01437
2.0044
1.99652
1.99027
1.98593
1.98234
1.98068
1.9798
1.98172
1.98589
1.99056
1.99552
1.99985
2.0028
2.00567
2.00658
2.00778
2.0074
2.00685
2.00567
2.00475
2.00348
2.00189
1.99976
1.99721
1.99438
1.99112
1.98757
1.98366
1.97954
1.97516
1.97063
1.9659
1.96121
1.95628
1.95143
1.94639
1.94135
1.93623
1.93095
1.92576
1.9202
1.91486
1.90906
1.90355
1.89763
1.89204
1.88613
1.8806
1.87479
1.86947
1.86385
1.85886
1.85346
1.84886
1.84386
1.83964
1.83542
1.83181
1.82856
1.82601
1.82388
1.82337
1.8236
1.8251
1.82687
1.83064
1.83572
1.84402
1.85352
1.85863
2.30504
2.33868
2.37111
2.3944
2.39871
2.39922
2.39083
2.37549
2.35431
2.33477
2.3175
2.30225
2.28763
2.27394
2.25905
2.24384
2.22754
2.2109
2.19332
2.17545
2.15694
2.13876
2.12039
2.1025
2.08506
2.06823
2.05217
2.03708
2.02277
2.00964
1.99752
1.98708
1.97803
1.97128
1.96566
1.9621
1.95885
1.95859
1.9587
1.96197
1.96623
1.97105
1.97578
1.97936
1.98262
1.98396
1.9852
1.9848
1.98387
1.98295
1.98164
1.98043
1.97838
1.97621
1.97333
1.97047
1.96699
1.96353
1.95955
1.95553
1.95117
1.94678
1.94228
1.93763
1.93302
1.92819
1.92347
1.91847
1.91362
1.90842
1.90343
1.89799
1.89285
1.88718
1.882
1.87615
1.87107
1.86514
1.86025
1.85448
1.84976
1.84451
1.83998
1.83538
1.83137
1.82746
1.82441
1.82138
1.81947
1.81766
1.81767
1.81838
1.81992
1.82257
1.82659
1.83346
1.84208
1.8521
1.86218
1.86731
2.34521
2.37768
2.40704
2.41584
2.41839
2.40895
2.3894
2.36513
2.34441
2.32695
2.3109
2.2969
2.28264
2.26919
2.25505
2.24051
2.22521
2.20925
2.19265
2.17555
2.15805
2.14029
2.12245
2.10461
2.08698
2.06977
2.05297
2.03708
2.02169
2.00749
1.99391
1.98189
1.97077
1.96136
1.95363
1.94755
1.94265
1.93928
1.93746
1.93732
1.93815
1.94099
1.94602
1.94981
1.95394
1.95662
1.95849
1.95943
1.95918
1.95832
1.95743
1.95639
1.95496
1.95328
1.95086
1.9484
1.94529
1.94228
1.9387
1.93509
1.93108
1.92705
1.92281
1.91848
1.91403
1.90948
1.90477
1.90007
1.89507
1.8903
1.88505
1.88027
1.87488
1.8701
1.86469
1.85989
1.8546
1.84975
1.8447
1.83988
1.83519
1.83063
1.82642
1.82245
1.81902
1.81597
1.81376
1.81176
1.81099
1.81123
1.81271
1.81445
1.81771
1.82307
1.831
1.84084
1.85112
1.86138
1.87058
1.8747
2.40133
2.4299
2.43299
2.43288
2.4221
2.39914
2.37757
2.35625
2.3378
2.32283
2.30857
2.29543
2.28197
2.2684
2.25444
2.23971
2.22465
2.20871
2.19238
2.17543
2.15837
2.14074
2.12345
2.10565
2.08854
2.07113
2.05466
2.03804
2.02247
2.00695
1.9927
1.97876
1.96627
1.95446
1.94454
1.93562
1.92873
1.92265
1.91807
1.91436
1.91338
1.91246
1.91399
1.91735
1.92086
1.92549
1.92828
1.93168
1.93268
1.93387
1.93336
1.93254
1.93191
1.93051
1.92906
1.92657
1.92414
1.92118
1.91806
1.91468
1.91095
1.90721
1.90312
1.89901
1.89472
1.89027
1.88585
1.88117
1.87659
1.87178
1.86699
1.86212
1.85714
1.85234
1.84721
1.8426
1.83746
1.83307
1.82814
1.82403
1.8195
1.81595
1.81199
1.80939
1.80644
1.80498
1.80324
1.80327
1.80386
1.80541
1.80831
1.812
1.81872
1.82735
1.83769
1.84834
1.85866
1.8675
1.87478
1.87755
2.44374
2.44587
2.44157
2.42834
2.40236
2.37824
2.35775
2.34124
2.32695
2.3146
2.30228
2.2907
2.27864
2.26586
2.2527
2.23849
2.22399
2.20856
2.19284
2.17641
2.15985
2.14256
2.12556
2.10785
2.09078
2.07317
2.05629
2.03919
2.02288
2.00672
1.99129
1.97638
1.96218
1.94905
1.93663
1.92573
1.9158
1.90771
1.90032
1.8944
1.88998
1.88746
1.88696
1.88739
1.88977
1.89465
1.8987
1.90374
1.90706
1.90989
1.91164
1.91171
1.91153
1.91116
1.91042
1.9088
1.90688
1.90415
1.9015
1.89825
1.89488
1.89119
1.88718
1.88314
1.87871
1.87437
1.86972
1.86509
1.86037
1.85546
1.85075
1.84564
1.84099
1.83587
1.83134
1.82638
1.8221
1.81736
1.81347
1.80914
1.80571
1.80223
1.79948
1.79733
1.7957
1.79482
1.795
1.79624
1.79809
1.80098
1.80648
1.8138
1.8238
1.83397
1.84482
1.85458
1.86294
1.86932
1.87414
1.87549
2.50544
2.48902
2.45698
2.42118
2.39124
2.36645
2.34665
2.33145
2.31808
2.30612
2.29423
2.28221
2.26986
2.25757
2.24444
2.23146
2.2172
2.20309
2.18758
2.17215
2.15569
2.13941
2.12233
2.10537
2.08804
2.07077
2.0537
2.0366
2.02004
2.00347
1.98758
1.97193
1.95699
1.94265
1.92922
1.91671
1.90548
1.89562
1.88727
1.8804
1.87392
1.86979
1.86708
1.86719
1.86775
1.86986
1.87447
1.87956
1.88551
1.88954
1.89397
1.89546
1.8973
1.89695
1.89663
1.8959
1.89445
1.89213
1.88943
1.88627
1.88293
1.87911
1.87518
1.87087
1.86645
1.86183
1.85705
1.85229
1.8473
1.84252
1.83742
1.83269
1.82756
1.82292
1.81794
1.81339
1.80884
1.80447
1.80059
1.79668
1.79371
1.7908
1.78909
1.78756
1.78721
1.78748
1.789
1.79108
1.79526
1.80115
1.81011
1.81974
1.83067
1.84091
1.85069
1.85807
1.86433
1.86736
1.87063
1.87024
2.54737
2.5181
2.46623
2.4241
2.39221
2.36786
2.34853
2.33327
2.31929
2.30658
2.29372
2.28119
2.26812
2.25511
2.24164
2.228
2.21391
2.19944
2.18438
2.16898
2.15301
2.13684
2.1203
2.10358
2.0868
2.06978
2.05306
2.036
2.01957
2.00286
1.98693
1.97101
1.95587
1.94113
1.92729
1.91406
1.90214
1.89095
1.88151
1.87316
1.86682
1.8613
1.85738
1.85582
1.8562
1.85732
1.85912
1.86296
1.86831
1.87383
1.87915
1.88317
1.88597
1.88757
1.88747
1.88702
1.88621
1.88454
1.88221
1.87897
1.87555
1.87164
1.86764
1.86323
1.85869
1.85388
1.84895
1.84393
1.83884
1.83369
1.82857
1.8234
1.81832
1.81331
1.80835
1.80373
1.79904
1.79505
1.79097
1.78791
1.78499
1.78342
1.782
1.78205
1.78271
1.78413
1.78719
1.79192
1.79967
1.8087
1.81909
1.82947
1.83992
1.8484
1.85592
1.86042
1.86426
1.86518
1.86703
1.86583
2.60687
2.54657
2.48937
2.44503
2.41241
2.38829
2.36856
2.3515
2.33516
2.31961
2.30412
2.28939
2.27454
2.25991
2.24539
2.23064
2.21592
2.20077
2.18552
2.16986
2.15399
2.13797
2.12162
2.10523
2.08868
2.07205
2.05566
2.03895
2.02294
2.00647
1.99092
1.9752
1.96018
1.94577
1.93166
1.91895
1.90637
1.89566
1.88516
1.87684
1.86876
1.86284
1.85672
1.85278
1.84937
1.84945
1.85028
1.8522
1.85506
1.8599
1.86467
1.87051
1.87436
1.87786
1.8792
1.87985
1.87895
1.87796
1.87636
1.87382
1.87066
1.867
1.86329
1.85915
1.85506
1.85059
1.84607
1.84134
1.83639
1.83147
1.82625
1.82121
1.81593
1.81088
1.80589
1.80102
1.7967
1.79235
1.78919
1.78602
1.7844
1.78293
1.78271
1.78314
1.78463
1.7878
1.79405
1.80183
1.81159
1.82154
1.83215
1.84129
1.84961
1.85546
1.86006
1.86227
1.86371
1.86384
1.86435
1.86269
2.6698
2.60138
2.53605
2.48859
2.45231
2.426
2.40287
2.38216
2.36202
2.34404
2.32641
2.30942
2.29317
2.27683
2.26117
2.24497
2.22924
2.21309
2.19706
2.18103
2.16476
2.14861
2.13249
2.11634
2.10026
2.08413
2.06799
2.052
2.03603
2.0202
2.00469
1.98935
1.97454
1.96021
1.94654
1.9335
1.92134
1.90969
1.89917
1.88909
1.88039
1.8723
1.86571
1.85949
1.85446
1.85118
1.84922
1.84924
1.85022
1.85201
1.85456
1.85896
1.86445
1.86896
1.87325
1.87509
1.87643
1.87576
1.87487
1.87319
1.87095
1.86766
1.86404
1.85993
1.85585
1.85142
1.84696
1.84223
1.83728
1.83232
1.82704
1.82197
1.81665
1.81166
1.80663
1.80204
1.79772
1.79399
1.79104
1.78888
1.78767
1.78716
1.78765
1.78976
1.79424
1.80107
1.80958
1.81929
1.82935
1.83912
1.84776
1.85486
1.85993
1.86366
1.86501
1.86619
1.86584
1.8655
1.86536
1.8639
2.70986
2.6374
2.58174
2.53934
2.50699
2.47925
2.45468
2.43045
2.40767
2.38508
2.36424
2.34405