/*--------------------------------*- C++ -*----------------------------------*\
| =========                 |                                                 |
| \\      /  F ield         | OpenFOAM: The Open Source CFD Toolbox           |
|  \\    /   O peration     | Version:  2412                                  |
|   \\  /    A nd           | Website:  www.openfoam.com                      |
|    \\/     M anipulation  |                                                 |
\*---------------------------------------------------------------------------*/
FoamFile
{
    version     2.0;
    format      ascii;
    arch        "LSB;label=32;scalar=64";
    class       volVectorField;
    location    "8.5";
    object      U;
}
// * * * * * * * * * * * * * * * * * * * * * * * * * * * * * * * * * * * * * //

dimensions      [0 1 -1 0 0 0 0];

internalField   nonuniform List<vector> 
5250
(
(2.99999 1.61052e-08 0)
(2.99998 1.24506e-07 0)
(2.99994 3.84039e-07 0)
(2.99987 1.15243e-06 0)
(2.99967 2.74657e-06 0)
(2.99927 7.10146e-06 0)
(2.99802 1.67436e-05 0)
(2.99586 3.89336e-05 0)
(2.98775 9.55772e-05 0)
(2.9743 0.000209832 0)
(2.92212 0.000522145 0)
(2.79486 0.00124214 0)
(2.44534 0.00365504 0)
(1.39689 0.00940884 0)
(0.636244 0.0216151 0)
(0.562234 0.0230812 0)
(0.57781 0.0242725 0)
(0.56243 0.0256684 0)
(0.506138 0.0272773 0)
(0.419038 0.0291956 0)
(0.338564 0.0316739 0)
(0.270372 0.0346104 0)
(0.200459 0.0377948 0)
(0.120882 0.0416315 0)
(0.0536289 0.0473041 0)
(2.99999 4.86899e-08 0)
(2.99998 3.78229e-07 0)
(2.99994 1.16542e-06 0)
(2.99987 3.50953e-06 0)
(2.99967 8.37767e-06 0)
(2.99928 2.1712e-05 0)
(2.99805 5.15829e-05 0)
(2.99592 0.000119298 0)
(2.98789 0.000296077 0)
(2.97466 0.000646063 0)
(2.92294 0.00161579 0)
(2.79763 0.00385073 0)
(2.4516 0.0113521 0)
(1.40863 0.0293803 0)
(0.64442 0.0659398 0)
(0.560022 0.0670569 0)
(0.575578 0.067529 0)
(0.560447 0.0693323 0)
(0.504306 0.0716747 0)
(0.417441 0.0749468 0)
(0.337037 0.0792467 0)
(0.268368 0.0840098 0)
(0.197618 0.0886409 0)
(0.116975 0.0934501 0)
(0.0496729 0.0986597 0)
(2.99999 7.70654e-08 0)
(2.99998 5.98994e-07 0)
(2.99995 1.84424e-06 0)
(2.99988 5.55873e-06 0)
(2.99968 1.32363e-05 0)
(2.9993 3.46358e-05 0)
(2.9981 8.07571e-05 0)
(2.99606 0.000195902 0)
(2.98818 0.000461856 0)
(2.97542 0.00111584 0)
(2.92466 0.00267633 0)
(2.80353 0.00666731 0)
(2.46514 0.0194506 0)
(1.43563 0.0511602 0)
(0.664244 0.115073 0)
(0.557118 0.11405 0)
(0.573603 0.11315 0)
(0.559948 0.116585 0)
(0.504808 0.121115 0)
(0.419142 0.12762 0)
(0.339415 0.135555 0)
(0.27057 0.144142 0)
(0.199203 0.152583 0)
(0.117584 0.160703 0)
(0.0488434 0.167479 0)
(2.99999 9.98895e-08 0)
(2.99998 7.7603e-07 0)
(2.99995 2.38841e-06 0)
(2.99988 7.2036e-06 0)
(2.9997 1.71017e-05 0)
(2.99934 4.52507e-05 0)
(2.99818 0.0001031 0)
(2.99624 0.000264452 0)
(2.98865 0.000587411 0)
(2.97653 0.00159183 0)
(2.92735 0.00360886 0)
(2.81267 0.00977721 0)
(2.4862 0.0274183 0)
(1.47992 0.0740424 0)
(0.696225 0.167197 0)
(0.552664 0.161159 0)
(0.572242 0.157546 0)
(0.561888 0.162833 0)
(0.508421 0.169824 0)
(0.42472 0.179964 0)
(0.346032 0.191775 0)
(0.277312 0.204614 0)
(0.205305 0.217638 0)
(0.121945 0.229932 0)
(0.0501801 0.238781 0)
(2.99999 1.17312e-07 0)
(2.99998 9.10805e-07 0)
(2.99995 2.8026e-06 0)
(2.99989 8.45558e-06 0)
(2.99971 2.00185e-05 0)
(2.99938 5.34373e-05 0)
(2.99829 0.000119524 0)
(2.99647 0.000319593 0)
(2.98928 0.000683132 0)
(2.97797 0.00198587 0)
(2.93116 0.00426014 0)
(2.82498 0.0131127 0)
(2.51507 0.0337392 0)
(1.5464 0.0980965 0)
(0.743208 0.223068 0)
(0.547939 0.20892 0)
(0.573282 0.201108 0)
(0.568035 0.208012 0)
(0.516564 0.217337 0)
(0.435194 0.23116 0)
(0.357553 0.247123 0)
(0.288952 0.264681 0)
(0.216202 0.28292 0)
(0.130211 0.300256 0)
(0.053618 0.312032 0)
(2.99999 1.30109e-07 0)
(2.99998 1.01013e-06 0)
(2.99996 3.10734e-06 0)
(2.9999 9.38267e-06 0)
(2.99973 2.21593e-05 0)
(2.99942 5.96611e-05 0)
(2.99841 0.000131374 0)
(2.99671 0.000363982 0)
(2.99002 0.000757309 0)
(2.97955 0.00230156 0)
(2.93616 0.00477098 0)
(2.8392 0.016001 0)
(2.5517 0.0383901 0)
(1.64209 0.121794 0)
(0.806725 0.282138 0)
(0.543486 0.257813 0)
(0.577843 0.244616 0)
(0.579642 0.25294 0)
(0.530359 0.264436 0)
(0.451747 0.281959 0)
(0.375305 0.302509 0)
(0.306842 0.325748 0)
(0.23295 0.35072 0)
(0.143176 0.375291 0)
(0.0596244 0.392352 0)
(3 1.38012e-07 0)
(2.99999 1.07003e-06 0)
(2.99996 3.29076e-06 0)
(2.99991 9.93587e-06 0)
(2.99976 2.33651e-05 0)
(2.99947 6.37155e-05 0)
(2.99854 0.000136087 0)
(2.99699 0.000401849 0)
(2.99088 0.000783818 0)
(2.98135 0.00263968 0)
(2.94201 0.005289 0)
(2.8551 0.018392 0)
(2.59586 0.0436492 0)
(1.76713 0.143016 0)
(0.887605 0.34215 0)
(0.541689 0.306807 0)
(0.587857 0.288052 0)
(0.598321 0.297418 0)
(0.55115 0.310951 0)
(0.475717 0.332609 0)
(0.400684 0.358425 0)
(0.332727 0.388452 0)
(0.258152 0.422081 0)
(0.163971 0.457404 0)
(0.0702427 0.484781 0)
(3 1.45724e-07 0)
(2.99999 1.1274e-06 0)
(2.99996 3.46803e-06 0)
(2.99992 1.04568e-05 0)
(2.99978 2.45255e-05 0)
(2.99951 6.72872e-05 0)
(2.99869 0.000140647 0)
(2.99725 0.000433262 0)
(2.99187 0.000796595 0)
(2.98334 0.00292396 0)
(2.94868 0.00567545 0)
(2.87349 0.0201183 0)
(2.64685 0.0479945 0)
(1.9199 0.157116 0)
(0.990872 0.392945 0)
(0.551487 0.356475 0)
(0.609059 0.33417 0)
(0.627662 0.342144 0)
(0.582079 0.356759 0)
(0.509974 0.382742 0)
(0.436314 0.41467 0)
(0.369133 0.453086 0)
(0.294733 0.497896 0)
(0.196973 0.549511 0)
(0.0891259 0.597852 0)
(3 1.67706e-07 0)
(2.99999 1.29711e-06 0)
(2.99997 3.98711e-06 0)
(2.99992 1.2027e-05 0)
(2.9998 2.83831e-05 0)
(2.99956 7.67673e-05 0)
(2.99884 0.000167538 0)
(2.99754 0.000475807 0)
(2.99294 0.000956927 0)
(2.98545 0.00309345 0)
(2.95576 0.00622086 0)
(2.89281 0.020811 0)
(2.70093 0.0506243 0)
(2.09188 0.160632 0)
(1.12214 0.419195 0)
(0.591758 0.405837 0)
(0.647896 0.387774 0)
(0.670495 0.389474 0)
(0.626647 0.405083 0)
(0.5577 0.433383 0)
(0.48532 0.47183 0)
(0.419528 0.518632 0)
(0.348191 0.577123 0)
(0.252047 0.654111 0)
(0.125093 0.746363 0)
(3 2.56227e-08 0)
(2.99999 1.60679e-06 0)
(2.99997 2.83899e-06 0)
(2.99994 1.39732e-05 0)
(2.99983 2.08194e-05 0)
(2.99963 8.75243e-05 0)
(2.99902 0.000118128 0)
(2.99791 0.000545182 0)
(2.99405 0.00052953 0)
(2.98777 0.00373918 0)
(2.96294 0.00221844 0)
(2.91275 0.024223 0)
(2.75447 0.0290297 0)
(2.2653 0.141549 0)
(1.29809 0.350117 0)
(0.667305 0.428926 0)
(0.701393 0.441319 0)
(0.722617 0.437033 0)
(0.683382 0.455664 0)
(0.618605 0.485133 0)
(0.548867 0.529076 0)
(0.486171 0.583701 0)
(0.425486 0.660239 0)
(0.346312 0.778909 0)
(0.194633 0.985721 0)
(3 1.18896e-07 0)
(2.99999 9.19038e-07 0)
(2.99998 2.83349e-06 0)
(2.99994 8.50024e-06 0)
(2.99986 2.00742e-05 0)
(2.99964 5.33738e-05 0)
(2.99923 0.00011707 0)
(2.99788 0.000322487 0)
(2.99559 0.000640994 0)
(2.98689 0.00205188 0)
(2.97205 0.00398099 0)
(2.91705 0.0126996 0)
(2.78014 0.0340593 0)
(2.41141 0.0846514 0)
(1.39409 0.278857 0)
(0.721443 0.467218 0)
(0.718864 0.494857 0)
(0.745753 0.4898 0)
(0.72954 0.506809 0)
(0.678465 0.536589 0)
(0.619733 0.582827 0)
(0.569575 0.644699 0)
(0.537535 0.73563 0)
(0.534515 0.879368 0)
(0.562767 1.11755 0)
(3 2.37951e-07 0)
(2.99999 4.372e-07 0)
(2.99998 3.45002e-06 0)
(2.99995 4.99211e-06 0)
(2.99987 2.40161e-05 0)
(2.99971 3.23775e-05 0)
(2.99924 0.000148248 0)
(2.99835 0.000178116 0)
(2.99549 0.000976142 0)
(2.99055 0.00084035 0)
(2.97178 0.00696303 0)
(2.93778 0.00532651 0)
(2.81248 0.0436435 0)
(2.46752 0.0721788 0)
(1.65468 0.246929 0)
(0.826745 0.522551 0)
(0.730066 0.538309 0)
(0.758095 0.537022 0)
(0.762266 0.550709 0)
(0.730729 0.582414 0)
(0.690452 0.629571 0)
(0.660118 0.695975 0)
(0.658505 0.79025 0)
(0.707726 0.924358 0)
(0.823588 1.09864 0)
(3 1.08215e-07 0)
(2.99999 8.47388e-07 0)
(2.99998 2.60369e-06 0)
(2.99996 7.91454e-06 0)
(2.99989 1.87373e-05 0)
(2.99975 5.04094e-05 0)
(2.99935 0.000113334 0)
(2.99857 0.000301865 0)
(2.99614 0.000662081 0)
(2.99188 0.001848 0)
(2.97599 0.0039068 0)
(2.94772 0.0118375 0)
(2.84251 0.0266631 0)
(2.55635 0.0862898 0)
(1.86988 0.220136 0)
(0.955766 0.560083 0)
(0.739802 0.566524 0)
(0.769523 0.568752 0)
(0.79028 0.582846 0)
(0.778287 0.618274 0)
(0.757293 0.667291 0)
(0.748464 0.733097 0)
(0.76861 0.81977 0)
(0.837438 0.926874 0)
(0.968587 1.03417 0)
(3 1.0376e-07 0)
(2.99999 8.05049e-07 0)
(2.99998 2.47663e-06 0)
(2.99996 7.46732e-06 0)
(2.9999 1.76757e-05 0)
(2.99979 4.70362e-05 0)
(2.99945 0.000105586 0)
(2.9988 0.000278386 0)
(2.99677 0.000599985 0)
(2.99326 0.00171855 0)
(2.97998 0.00334893 0)
(2.95714 0.0115085 0)
(2.87025 0.0234521 0)
(2.64275 0.0839103 0)
(2.07422 0.207358 0)
(1.10185 0.584472 0)
(0.75902 0.594916 0)
(0.787765 0.598978 0)
(0.820574 0.609711 0)
(0.825179 0.645613 0)
(0.819157 0.695378 0)
(0.826294 0.756515 0)
(0.860129 0.829489 0)
(0.933106 0.910906 0)
(1.0578 0.980166 0)
(3 9.56935e-08 0)
(3 7.39889e-07 0)
(2.99999 2.27868e-06 0)
(2.99997 6.84712e-06 0)
(2.99992 1.61936e-05 0)
(2.99982 4.28746e-05 0)
(2.99954 9.59958e-05 0)
(2.99898 0.000252098 0)
(2.99734 0.000538239 0)
(2.99418 0.00155245 0)
(2.98402 0.00296302 0)
(2.96484 0.0104327 0)
(2.8983 0.0202365 0)
(2.72788 0.0746208 0)
(2.28716 0.182285 0)
(1.29347 0.548246 0)
(0.822944 0.616828 0)
(0.826391 0.633068 0)
(0.858449 0.639797 0)
(0.875363 0.669837 0)
(0.878487 0.715643 0)
(0.893953 0.770104 0)
(0.934393 0.830051 0)
(1.00647 0.891739 0)
(1.11933 0.94109 0)
(3 9.10791e-08 0)
(3 7.08771e-07 0)
(2.99999 2.18112e-06 0)
(2.99997 6.58875e-06 0)
(2.99993 1.56348e-05 0)
(2.99985 4.16486e-05 0)
(2.99963 9.40125e-05 0)
(2.99917 0.000244594 0)
(2.99785 0.000548899 0)
(2.99529 0.0014148 0)
(2.9873 0.00324011 0)
(2.9718 0.00838586 0)
(2.92057 0.0196977 0)
(2.79291 0.0561008 0)
(2.45197 0.144951 0)
(1.5037 0.432003 0)
(0.915241 0.631169 0)
(0.870901 0.665374 0)
(0.895653 0.677331 0)
(0.922328 0.695451 0)
(0.933589 0.732368 0)
(0.953672 0.778628 0)
(0.995899 0.828039 0)
(1.06452 0.875431 0)
(1.1652 0.912287 0)
(3 7.88917e-08 0)
(3 6.129e-07 0)
(2.99999 1.88655e-06 0)
(2.99998 5.68756e-06 0)
(2.99995 1.34881e-05 0)
(2.99989 3.58165e-05 0)
(2.99971 8.07525e-05 0)
(2.99936 0.000209206 0)
(2.99831 0.000468548 0)
(2.99643 0.00119918 0)
(2.98979 0.00274833 0)
(2.97875 0.0068753 0)
(2.93623 0.0166743 0)
(2.83967 0.0438848 0)
(2.56338 0.114987 0)
(1.72191 0.334431 0)
(1.03664 0.660858 0)
(0.902817 0.695499 0)
(0.920977 0.711604 0)
(0.954656 0.719434 0)
(0.979166 0.746843 0)
(1.00499 0.784924 0)
(1.04777 0.825551 0)
(1.11211 0.86288 0)
(1.20125 0.89096 0)
(3 6.51863e-08 0)
(3 5.02912e-07 0)
(2.99999 1.5497e-06 0)
(2.99998 4.64632e-06 0)
(2.99996 1.10053e-05 0)
(2.99991 2.90192e-05 0)
(2.99977 6.51818e-05 0)
(2.9995 0.000168536 0)
(2.99868 0.000369305 0)
(2.99719 0.000987763 0)
(2.992 0.00206197 0)
(2.98352 0.00606019 0)
(2.95012 0.0126151 0)
(2.87894 0.0394239 0)
(2.66351 0.0963296 0)
(1.98195 0.296868 0)
(1.21448 0.69037 0)
(0.941686 0.726205 0)
(0.946588 0.737721 0)
(0.981305 0.74 0)
(1.01753 0.757563 0)
(1.04896 0.788705 0)
(1.09166 0.822504 0)
(1.15175 0.852565 0)
(1.23095 0.874293 0)
(3 3.06404e-08 0)
(3 4.63454e-07 0)
(2.99999 1.08999e-06 0)
(2.99999 4.1298e-06 0)
(2.99997 7.87247e-06 0)
(2.99993 2.55775e-05 0)
(2.99983 4.65131e-05 0)
(2.99961 0.000148124 0)
(2.999 0.000260517 0)
(2.99784 0.000873211 0)
(2.99399 0.0013888 0)
(2.98761 0.00558023 0)
(2.963 0.00782192 0)
(2.91322 0.0371889 0)
(2.75756 0.0678311 0)
(2.27544 0.255436 0)
(1.47343 0.628517 0)
(1.03931 0.738505 0)
(0.999557 0.756646 0)
(1.01865 0.761861 0)
(1.05706 0.769637 0)
(1.09204 0.792631 0)
(1.13237 0.820069 0)
(1.18682 0.844349 0)
(1.25693 0.861212 0)
(3 2.51868e-08 0)
(3 3.6376e-07 0)
(3 8.70111e-07 0)
(2.99999 3.2548e-06 0)
(2.99998 6.30757e-06 0)
(2.99994 2.022e-05 0)
(2.99987 3.74947e-05 0)
(2.99968 0.000117216 0)
(2.99928 0.000212735 0)
(2.99813 0.000685493 0)
(2.9959 0.00115003 0)
(2.98893 0.00433624 0)
(2.97555 0.00606901 0)
(2.93148 0.0280233 0)
(2.82416 0.047932 0)
(2.5244 0.174979 0)
(1.71792 0.480341 0)
(1.14991 0.748654 0)
(1.05128 0.77888 0)
(1.05763 0.790459 0)
(1.09315 0.78989 0)
(1.13172 0.801237 0)
(1.17036 0.820454 0)
(1.21917 0.83867 0)
(1.28093 0.851182 0)
(3 5.56745e-08 0)
(3 2.02817e-07 0)
(3 9.63855e-07 0)
(2.99999 2.02817e-06 0)
(2.99998 6.72223e-06 0)
(2.99996 1.2883e-05 0)
(2.99991 3.9929e-05 0)
(2.99976 7.47376e-05 0)
(2.99947 0.000230396 0)
(2.99862 0.000424419 0)
(2.99704 0.0013444 0)
(2.99173 0.00237877 0)
(2.9827 0.00824785 0)
(2.94903 0.0139397 0)
(2.87467 0.0529492 0)
(2.65792 0.11079 0)
(1.99683 0.36857 0)
(1.32059 0.753434 0)
(1.0997 0.803501 0)
(1.09142 0.816342 0)
(1.12074 0.81323 0)
(1.16401 0.812581 0)
(1.20393 0.823167 0)
(1.24862 0.835505 0)
(1.30347 0.843851 0)
(3 3.44308e-08 0)
(3 1.87748e-07 0)
(3 6.97871e-07 0)
(2.99999 1.79094e-06 0)
(2.99999 4.92142e-06 0)
(2.99997 1.12781e-05 0)
(2.99993 2.92337e-05 0)
(2.99983 6.53235e-05 0)
(2.99957 0.000167823 0)
(2.99906 0.000371043 0)
(2.99753 0.00097182 0)
(2.99465 0.00208084 0)
(2.98524 0.00587357 0)
(2.96742 0.0123892 0)
(2.90734 0.0365342 0)
(2.75728 0.0950785 0)
(2.34407 0.259231 0)
(1.53873 0.703367 0)
(1.17786 0.817463 0)
(1.13544 0.832741 0)
(1.1508 0.833991 0)
(1.19217 0.826341 0)
(1.235 0.827729 0)
(1.27675 0.834278 0)
(1.32516 0.838914 0)
(3 2.07544e-08 0)
(3 1.61781e-07 0)
(3 4.97805e-07 0)
(3 1.50374e-06 0)
(2.99999 3.56738e-06 0)
(2.99998 9.48317e-06 0)
(2.99995 2.14044e-05 0)
(2.99988 5.5482e-05 0)
(2.99972 0.00012397 0)
(2.99929 0.000318975 0)
(2.99846 0.000719081 0)
(2.99582 0.0018273 0)
(2.99128 0.00416496 0)
(2.97448 0.0107239 0)
(2.94375 0.0254299 0)
(2.83562 0.0680218 0)
(2.54527 0.193317 0)
(1.87214 0.508542 0)
(1.29027 0.814434 0)
(1.18306 0.84482 0)
(1.18393 0.853938 0)
(1.21755 0.844996 0)
(1.26188 0.836574 0)
(1.30336 0.836191 0)
(1.34696 0.836875 0)
(3 1.84885e-08 0)
(3 9.92316e-08 0)
(3 3.70046e-07 0)
(3 9.48628e-07 0)
(2.99999 2.6058e-06 0)
(2.99999 5.96256e-06 0)
(2.99996 1.54239e-05 0)
(2.99992 3.43852e-05 0)
(2.99979 8.80247e-05 0)
(2.99955 0.000194276 0)
(2.99879 0.000505189 0)
(2.99752 0.00108095 0)
(2.99266 0.00303511 0)
(2.98502 0.00609413 0)
(2.9549 0.0190281 0)
(2.89259 0.0415166 0)
(2.69828 0.128339 0)
(2.13563 0.366858 0)
(1.48737 0.789254 0)
(1.2416 0.859364 0)
(1.2209 0.870296 0)
(1.24032 0.864304 0)
(1.28293 0.850073 0)
(1.32654 0.842661 0)
(1.36728 0.838085 0)
(3 6.88477e-09 0)
(3 8.53148e-08 0)
(3 2.15655e-07 0)
(3 7.6771e-07 0)
(3 1.55444e-06 0)
(2.99999 4.74877e-06 0)
(2.99997 9.17618e-06 0)
(2.99994 2.72174e-05 0)
(2.99986 5.16415e-05 0)
(2.99964 0.00015575 0)
(2.9992 0.000281424 0)
(2.99792 0.000935463 0)
(2.99545 0.00152434 0)
(2.98781 0.00594834 0)
(2.97298 0.0093239 0)
(2.92547 0.0380936 0)
(2.80848 0.07637 0)
(2.48349 0.253753 0)
(1.74567 0.66204 0)
(1.33843 0.851413 0)
(1.26948 0.875412 0)
(1.27205 0.880023 0)
(1.30561 0.866276 0)
(1.34815 0.851381 0)
(1.3854 0.840394 0)
(3 1.21567e-08 0)
(3 4.84181e-08 0)
(3 2.1666e-07 0)
(3 4.78249e-07 0)
(3 1.51003e-06 0)
(2.99999 3.02525e-06 0)
(2.99998 8.92242e-06 0)
(2.99995 1.74925e-05 0)
(2.9999 5.09782e-05 0)
(2.99975 9.91873e-05 0)
(2.99944 0.0002905 0)
(2.99855 0.000560018 0)
(2.99683 0.00168057 0)
(2.99154 0.00314893 0)
(2.98174 0.0101233 0)
(2.9489 0.0186226 0)
(2.8722 0.0638981 0)
(2.65961 0.142532 0)
(2.04061 0.449076 0)
(1.4799 0.819431 0)
(1.31739 0.87938 0)
(1.30385 0.890452 0)
(1.32434 0.881622 0)
(1.36374 0.860754 0)
(1.39902 0.841421 0)
(3 7.38203e-09 0)
(3 4.02326e-08 0)
(3 1.49478e-07 0)
(3 3.83574e-07 0)
(3 1.05273e-06 0)
(2.99999 2.41225e-06 0)
(2.99999 6.23917e-06 0)
(2.99997 1.3954e-05 0)
(2.99993 3.56668e-05 0)
(2.99984 7.92516e-05 0)
(2.99958 0.000202617 0)
(2.99908 0.000448767 0)
(2.99761 0.00115609 0)
(2.99481 0.00255285 0)
(2.98593 0.00676266 0)
(2.96891 0.0149912 0)
(2.91302 0.0409366 0)
(2.77475 0.108977 0)
(2.39407 0.290939 0)
(1.69434 0.746188 0)
(1.38579 0.880882 0)
(1.33829 0.897437 0)
(1.34456 0.894373 0)
(1.37476 0.871224 0)
(1.40586 0.840194 0)
(3 3.98663e-09 0)
(3 3.09934e-08 0)
(3 9.54626e-08 0)
(3 2.87324e-07 0)
(3 6.8117e-07 0)
(3 1.79888e-06 0)
(2.99999 4.05091e-06 0)
(2.99998 1.04098e-05 0)
(2.99995 2.31649e-05 0)
(2.99988 5.92725e-05 0)
(2.99975 0.000131408 0)
(2.99935 0.000337392 0)
(2.99859 0.000745415 0)
(2.99621 0.00193937 0)
(2.9921 0.00427744 0)
(2.97721 0.0113987 0)
(2.95022 0.026387 0)
(2.85608 0.0714415 0)
(2.60795 0.19972 0)
(2.02879 0.523226 0)
(1.49951 0.859106 0)
(1.37734 0.903443 0)
(1.36494 0.901542 0)
(1.37937 0.878384 0)
(1.40002 0.835755 0)
(3 4.12306e-09 0)
(3 1.68706e-08 0)
(3 7.40195e-08 0)
(3 1.66374e-07 0)
(3 5.15442e-07 0)
(3 1.04998e-06 0)
(2.99999 3.0307e-06 0)
(2.99999 6.04198e-06 0)
(2.99997 1.71641e-05 0)
(2.99993 3.39769e-05 0)
(2.99981 9.64788e-05 0)
(2.99959 0.000189664 0)
(2.99895 0.000547952 0)
(2.99775 0.00104331 0)
(2.99381 0.00325236 0)
(2.98722 0.00571704 0)
(2.96271 0.0203008 0)
(2.91372 0.0369883 0)
(2.75849 0.130982 0)
(2.3146 0.339107 0)
(1.72191 0.769221 0)
(1.44061 0.890995 0)
(1.38942 0.89791 0)
(1.38348 0.871362 0)
(1.38779 0.819037 0)
(3 1.4396e-09 0)
(3 1.56485e-08 0)
(3 4.1626e-08 0)
(3 1.41491e-07 0)
(3 2.98985e-07 0)
(3 8.75822e-07 0)
(3 1.77005e-06 0)
(2.99999 5.01557e-06 0)
(2.99998 1.00323e-05 0)
(2.99995 2.8231e-05 0)
(2.99987 5.61955e-05 0)
(2.99972 0.000158698 0)
(2.9993 0.000312813 0)
(2.99846 0.000909297 0)
(2.99599 0.00170145 0)
(2.99142 0.00551774 0)
(2.97619 0.00938158 0)
(2.94705 0.0347934 0)
(2.85164 0.0663432 0)
(2.58476 0.235107 0)
(2.02277 0.564631 0)
(1.53917 0.865235 0)
(1.41076 0.894052 0)
(1.37744 0.852173 0)
(1.36245 0.780117 0)
(3 9.78058e-10 0)
(3 1.05674e-08 0)
(3 2.8115e-08 0)
(3 9.54636e-08 0)
(3 2.01633e-07 0)
(3 5.90326e-07 0)
(3 1.19247e-06 0)
(2.99999 3.37793e-06 0)
(2.99999 6.75734e-06 0)
(2.99997 1.89984e-05 0)
(2.99992 3.78816e-05 0)
(2.99981 0.000106509 0)
(2.99957 0.000211507 0)
(2.99891 0.000599542 0)
(2.99764 0.00117472 0)
(2.99363 0.00346704 0)
(2.98674 0.00642784 0)
(2.96165 0.0212232 0)
(2.91131 0.0401439 0)
(2.75257 0.136371 0)
(2.30505 0.354933 0)
(1.73089 0.768155 0)
(1.43666 0.867134 0)
(1.35144 0.809134 0)
(1.31705 0.708948 0)
(3 1.26111e-09 0)
(3 5.21951e-09 0)
(3 2.274e-08 0)
(3 5.12351e-08 0)
(3 1.57822e-07 0)
(3 3.21807e-07 0)
(3 9.23658e-07 0)
(3 1.84293e-06 0)
(2.99999 5.20443e-06 0)
(2.99998 1.03234e-05 0)
(2.99995 2.90756e-05 0)
(2.99987 5.74277e-05 0)
(2.99971 0.000162432 0)
(2.99926 0.000317871 0)
(2.99838 0.000921832 0)
(2.9958 0.00172059 0)
(2.99094 0.00554359 0)
(2.97518 0.00923278 0)
(2.94428 0.0346798 0)
(2.84481 0.0646264 0)
(2.56873 0.230609 0)
(1.99883 0.544212 0)
(1.46482 0.822135 0)
(1.28813 0.743755 0)
(1.24895 0.621318 0)
(3 6.6548e-10 0)
(3 3.62631e-09 0)
(3 1.34262e-08 0)
(3 3.44558e-08 0)
(3 9.37609e-08 0)
(3 2.14306e-07 0)
(3 5.4716e-07 0)
(3 1.2189e-06 0)
(2.99999 3.06355e-06 0)
(2.99999 6.78226e-06 0)
(2.99996 1.69669e-05 0)
(2.99992 3.74748e-05 0)
(2.99979 9.36073e-05 0)
(2.99954 0.000206226 0)
(2.99881 0.000516465 0)
(2.99747 0.00113083 0)
(2.99301 0.00289853 0)
(2.98556 0.00618352 0)
(2.95771 0.0169197 0)
(2.90114 0.0384943 0)
(2.72615 0.109455 0)
(2.24473 0.31279 0)
(1.5528 0.648211 0)
(1.19743 0.641777 0)
(1.16986 0.543893 0)
(3 1.86143e-10 0)
(3 2.59649e-09 0)
(3 6.27042e-09 0)
(3 2.3154e-08 0)
(3 4.49228e-08 0)
(3 1.41404e-07 0)
(3 2.60924e-07 0)
(3 7.94612e-07 0)
(3 1.43678e-06 0)
(2.99999 4.36422e-06 0)
(2.99997 7.75944e-06 0)
(2.99993 2.37596e-05 0)
(2.99985 4.13276e-05 0)
(2.99961 0.000129099 0)
(2.99915 0.000215679 0)
(2.99778 0.000719372 0)
(2.99515 0.00105243 0)
(2.9868 0.00433242 0)
(2.971 0.00492458 0)
(2.91759 0.0264008 0)
(2.78622 0.037288 0)
(2.43599 0.142279 0)
(1.58688 0.354633 0)
(1.07337 0.479444 0)
(1.03634 0.456438 0)
(3 2.46767e-10 0)
(3 1.33368e-09 0)
(3 4.94253e-09 0)
(3 1.26704e-08 0)
(3 3.44952e-08 0)
(3 7.8757e-08 0)
(3 2.013e-07 0)
(3 4.47945e-07 0)
(3 1.12849e-06 0)
(2.99999 2.49821e-06 0)
(2.99998 6.27006e-06 0)
(2.99995 1.38834e-05 0)
(2.99988 3.46348e-05 0)
(2.99969 7.73937e-05 0)
(2.9993 0.000186408 0)
(2.99817 0.00043709 0)
(2.99602 0.000949364 0)
(2.9888 0.00237517 0)
(2.97605 0.004738 0)
(2.92855 0.0119469 0)
(2.81328 0.0252554 0)
(2.49721 0.0632162 0)
(1.59205 0.161489 0)
(0.93084 0.299141 0)
(0.864601 0.344637 0)
(3 2.19972e-10 0)
(3 5.32938e-10 0)
(3 3.39237e-09 0)
(3 5.62933e-09 0)
(3 2.31778e-08 0)
(3 3.53407e-08 0)
(3 1.34825e-07 0)
(3 1.98943e-07 0)
(3 7.58155e-07 0)
(2.99999 1.09259e-06 0)
(2.99998 4.25163e-06 0)
(2.99996 5.95708e-06 0)
(2.9999 2.3946e-05 0)
(2.99974 3.15925e-05 0)
(2.99945 0.000136811 0)
(2.99842 0.0001468 0)
(2.99677 0.000818462 0)
(2.98993 0.000433421 0)
(2.97901 0.00506411 0)
(2.93393 0.000101315 0)
(2.82794 0.0291967 0)
(2.52534 0.0168123 0)
(1.59987 0.108982 0)
(0.824892 0.19436 0)
(0.694136 0.248938 0)
(3 1.46214e-10 0)
(3 1.7991e-10 0)
(3 1.97069e-09 0)
(3 2.23027e-09 0)
(3 1.32408e-08 0)
(3 1.39525e-08 0)
(3 7.60179e-08 0)
(3 7.4632e-08 0)
(3 4.19652e-07 0)
(2.99999 3.74728e-07 0)
(2.99998 2.2995e-06 0)
(2.99996 1.78503e-06 0)
(2.9999 1.28041e-05 0)
(2.99978 7.17827e-06 0)
(2.9994 7.84699e-05 0)
(2.99873 6.42134e-08 0)
(2.99626 0.00057143 0)
(2.99228 -0.000323 0)
(2.9758 0.00405936 0)
(2.9466 -0.00267687 0)
(2.83128 0.0238102 0)
(2.51575 0.00157395 0)
(1.74745 0.0774576 0)
(0.792467 0.15289 0)
(0.56906 0.181599 0)
(3 -1.51278e-11 0)
(3 5.92081e-10 0)
(3 7.74801e-10 0)
(3 5.04734e-09 0)
(3 6.08068e-09 0)
(3 3.15692e-08 0)
(3 3.78909e-08 0)
(3 1.87025e-07 0)
(3 2.25658e-07 0)
(2.99999 1.10142e-06 0)
(2.99998 1.30797e-06 0)
(2.99996 6.55882e-06 0)
(2.99991 6.83755e-06 0)
(2.9998 4.10519e-05 0)
(2.99944 2.52793e-05 0)
(2.99883 0.000262269 0)
(2.9965 4.11637e-06 0)
(2.99284 0.00164548 0)
(2.97728 -0.000713341 0)
(2.95019 0.0102551 0)
(2.83972 -0.00438546 0)
(2.53974 0.0523756 0)
(1.79707 0.0545018 0)
(0.785092 0.16855 0)
(0.480796 0.168197 0)
(3 2.17464e-11 0)
(3 1.70112e-10 0)
(3 5.22268e-10 0)
(3 1.57274e-09 0)
(3 3.71245e-09 0)
(3 9.81892e-09 0)
(3 2.20111e-08 0)
(3 5.67542e-08 0)
(3 1.25944e-07 0)
(2.99999 3.22964e-07 0)
(2.99999 7.13311e-07 0)
(2.99997 1.83084e-06 0)
(2.99993 4.00562e-06 0)
(2.9998 1.06599e-05 0)
(2.99959 2.1953e-05 0)
(2.99872 6.85437e-05 0)
(2.9974 0.000127388 0)
(2.99169 0.000465346 0)
(2.98271 0.000935538 0)
(2.94377 0.00320919 0)
(2.85718 0.00759028 0)
(2.59192 0.0245819 0)
(1.75007 0.071662 0)
(0.831295 0.188405 0)
(0.469331 0.166658 0)
(3 7.13599e-11 0)
(3 -1.55581e-10 0)
(3 5.66561e-10 0)
(3 -1.02345e-09 0)
(3 3.43604e-09 0)
(3 -6.57549e-09 0)
(3 1.82106e-08 0)
(3 -4.39673e-08 0)
(3 9.12281e-08 0)
(2.99999 -2.96979e-07 0)
(2.99999 4.61058e-07 0)
(2.99997 -2.02788e-06 0)
(2.99991 3.06781e-06 0)
(2.99981 -1.47319e-05 0)
(2.99949 3.00505e-05 0)
(2.99892 -9.54667e-05 0)
(2.99683 0.000310641 0)
(2.99351 -0.000542627 0)
(2.97957 0.00291725 0)
(2.95574 -0.00296765 0)
(2.85735 0.0208595 0)
(2.59647 0.00345365 0)
(1.925 0.0853255 0)
(0.863653 0.207848 0)
(0.451503 0.161269 0)
(3 -3.26906e-11 0)
(3 3.86382e-10 0)
(3 2.44977e-10 0)
(3 3.20269e-09 0)
(3 2.31001e-09 0)
(3 2.02449e-08 0)
(3 1.59796e-08 0)
(3 1.22948e-07 0)
(3 1.05488e-07 0)
(2.99999 7.48055e-07 0)
(2.99999 6.88516e-07 0)
(2.99997 4.60531e-06 0)
(2.99992 4.2727e-06 0)
(2.99982 2.9421e-05 0)
(2.99952 2.01273e-05 0)
(2.99895 0.000203311 0)
(2.99703 1.67706e-05 0)
(2.99386 0.00138626 0)
(2.98086 -0.000439249 0)
(2.95873 0.0091127 0)
(2.86824 -0.00183731 0)
(2.62826 0.0534284 0)
(2.00214 0.0706357 0)
(0.888889 0.241241 0)
(0.416599 0.17355 0)
(3 1.64261e-11 0)
(3 1.32783e-10 0)
(3 4.01483e-10 0)
(3 1.24628e-09 0)
(3 2.9556e-09 0)
(3 8.22603e-09 0)
(3 1.87977e-08 0)
(3 5.14378e-08 0)
(3 1.17199e-07 0)
(2.99999 3.18668e-07 0)
(2.99999 7.26975e-07 0)
(2.99997 1.95971e-06 0)
(2.99994 4.45648e-06 0)
(2.99982 1.19306e-05 0)
(2.99964 2.69468e-05 0)
(2.99891 7.24647e-05 0)
(2.99782 0.000161473 0)
(2.99314 0.000470983 0)
(2.98583 0.000968112 0)
(2.95478 0.00335027 0)
(2.88786 0.00710029 0)
(2.67921 0.0274463 0)
(2.01354 0.0780272 0)
(0.981574 0.232001 0)
(0.455228 0.164628 0)
(3 4.18699e-12 0)
(3 1.5418e-11 0)
(3 6.49093e-11 0)
(3 1.63457e-10 0)
(3 4.69633e-10 0)
(3 1.07234e-09 0)
(3 2.8285e-09 0)
(3 6.15333e-09 0)
(3 1.57801e-08 0)
(3 3.1262e-08 0)
(2.99999 8.37959e-08 0)
(2.99997 1.32869e-07 0)
(2.99993 6.05916e-07 0)
(2.99984 -1.23234e-07 0)
(2.99957 8.93652e-06 0)
(2.99906 -7.08173e-06 0)
(2.99737 0.000106227 0)
(2.99453 0.000102537 0)
(2.98326 0.000838561 0)
(2.96385 0.00176618 0)
(2.88831 0.00752464 0)
(2.6918 0.0217964 0)
(2.16704 0.0667807 0)
(0.997584 0.209264 0)
(0.419925 0.148064 0)
(3 -5.46238e-11 0)
(3 1.93208e-10 0)
(3 -3.23952e-10 0)
(3 1.42109e-09 0)
(3 -1.82805e-09 0)
(3 8.75989e-09 0)
(3 -9.67567e-09 0)
(3 5.30203e-08 0)
(3 -4.96662e-08 0)
(2.99999 3.22663e-07 0)
(2.99999 -2.47057e-07 0)
(2.99997 1.9949e-06 0)
(2.99994 -1.17974e-06 0)
(2.99983 1.27135e-05 0)
(2.99963 -5.84898e-06 0)
(2.999 8.96506e-05 0)
(2.99791 -5.90866e-05 0)
(2.99375 0.000763078 0)
(2.98723 -0.000753638 0)
(2.9604 0.00603711 0)
(2.90475 -0.0037493 0)
(2.73041 0.032448 0)
(2.18304 0.0377507 0)
(1.10609 0.151823 0)
(0.457171 0.139137 0)
(3 5.81555e-11 0)
(3 -1.65519e-10 0)
(3 4.10542e-10 0)
(3 -1.14286e-09 0)
(3 2.51296e-09 0)
(3 -6.80263e-09 0)
(3 1.42828e-08 0)
(3 -4.01851e-08 0)
(3 7.9526e-08 0)
(2.99999 -2.39616e-07 0)
(2.99999 4.39872e-07 0)
(2.99997 -1.45127e-06 0)
(2.99994 2.45478e-06 0)
(2.99983 -8.94622e-06 0)
(2.99963 1.50485e-05 0)
(2.99902 -5.97988e-05 0)
(2.99793 0.000127206 0)
(2.99397 -0.000467479 0)
(2.98766 0.00136855 0)
(2.96199 -0.00318245 0)
(2.90968 0.0104298 0)
(2.74363 -0.00737491 0)
(2.22294 0.0366076 0)
(1.16049 0.066235 0)
(0.479078 0.107472 0)
(3 5.65238e-11 0)
(3 -1.76521e-10 0)
(3 3.7684e-10 0)
(3 -1.23341e-09 0)
(3 2.29806e-09 0)
(3 -7.33002e-09 0)
(3 1.30477e-08 0)
(3 -4.31452e-08 0)
(3 7.22755e-08 0)
(3 -2.5604e-07 0)
(2.99999 3.94987e-07 0)
(2.99997 -1.54152e-06 0)
(2.99993 2.15175e-06 0)
(2.99984 -9.47545e-06 0)
(2.99959 1.24197e-05 0)
(2.99909 -6.1483e-05 0)
(2.99757 9.64501e-05 0)
(2.99477 -0.000458059 0)
(2.98498 0.00101697 0)
(2.96737 -0.00329053 0)
(2.90266 0.00818602 0)
(2.73786 -0.0120688 0)
(2.2965 0.0217405 0)
(1.11715 0.031003 0)
(0.454852 0.0783683 0)
(3 5.69787e-12 0)
(3 4.3263e-11 0)
(3 1.34083e-10 0)
(3 3.95458e-10 0)
(3 9.31249e-10 0)
(3 2.39878e-09 0)
(3 5.33704e-09 0)
(3 1.33946e-08 0)
(3 2.94214e-08 0)
(3 7.39191e-08 0)
(2.99999 1.61917e-07 0)
(2.99997 4.11686e-07 0)
(2.99993 9.01008e-07 0)
(2.99984 2.34017e-06 0)
(2.99959 5.12518e-06 0)
(2.99909 1.39853e-05 0)
(2.9976 2.90908e-05 0)
(2.99473 9.46465e-05 0)
(2.98537 0.000162561 0)
(2.96786 0.000686676 0)
(2.9054 0.00141203 0)
(2.74629 0.00510386 0)
(2.31578 0.0126969 0)
(1.14129 0.0368296 0)
(0.467306 0.0645356 0)
(3 -4.15123e-11 0)
(3 2.63868e-10 0)
(3 -5.62156e-11 0)
(3 2.05474e-09 0)
(3 -1.99644e-11 0)
(3 1.25551e-08 0)
(3 7.60995e-10 0)
(3 7.424e-08 0)
(3 9.49038e-09 0)
(3 4.40458e-07 0)
(2.99999 9.02694e-08 0)
(2.99997 2.64662e-06 0)
(2.99993 7.41233e-07 0)
(2.99985 1.61374e-05 0)
(2.9996 4.1604e-06 0)
(2.99911 0.000103807 0)
(2.99763 -1.06903e-05 0)
(2.99488 0.00070613 0)
(2.98546 -0.000537394 0)
(2.96842 0.00443698 0)
(2.90617 -0.00491058 0)
(2.74803 0.0209973 0)
(2.32323 0.000390263 0)
(1.15599 0.0496413 0)
(0.473145 0.061369 0)
(3 4.29923e-12 0)
(3 3.24937e-11 0)
(3 1.01299e-10 0)
(3 3.01469e-10 0)
(3 7.19194e-10 0)
(3 1.87652e-09 0)
(3 4.24629e-09 0)
(3 1.07746e-08 0)
(3 2.40725e-08 0)
(3 6.07853e-08 0)
(2.99999 1.35129e-07 0)
(2.99997 3.42061e-07 0)
(2.99994 7.58124e-07 0)
(2.99984 1.92987e-06 0)
(2.99966 4.273e-06 0)
(2.99908 1.09004e-05 0)
(2.9981 2.44022e-05 0)
(2.9943 5.93993e-05 0)
(2.98841 0.000151806 0)
(2.96433 0.000329077 0)
(2.91627 0.000830877 0)
(2.75947 0.00228619 0)
(2.28623 0.0062374 0)
(1.27711 0.0178926 0)
(0.557345 0.0344033 0)
(3 5.22028e-11 0)
(3 -1.82345e-10 0)
(3 3.06936e-10 0)
(3 -1.31644e-09 0)
(3 1.75523e-09 0)
(3 -8.06692e-09 0)
(3 9.25336e-09 0)
(3 -4.89759e-08 0)
(3 4.63034e-08 0)
(3 -3.00182e-07 0)
(2.99999 2.19174e-07 0)
(2.99997 -1.86806e-06 0)
(2.99993 9.79437e-07 0)
(2.99985 -1.18086e-05 0)
(2.99961 5.425e-06 0)
(2.99913 -7.99119e-05 0)
(2.99767 6.45678e-05 0)
(2.99499 -0.000589557 0)
(2.98569 0.000895007 0)
(2.96898 -0.00393894 0)
(2.90779 0.00659437 0)
(2.75266 -0.0175963 0)
(2.33522 0.00872152 0)
(1.18114 -0.0210533 0)
(0.49683 -0.0111456 0)
(1.11978 0.990561 0)
(1.02965 0.701871 0)
(0.13349 0.433051 0)
(-0.416687 0.030131 0)
(-0.527137 -0.0119137 0)
(-0.68885 -0.0250528 0)
(-0.752042 -0.0119617 0)
(-0.802216 0.00890093 0)
(-0.866285 0.0176676 0)
(-0.930706 0.0160462 0)
(-0.983274 0.00862716 0)
(-1.02628 0.000572488 0)
(-1.06798 -0.00345437 0)
(-1.10028 -0.00193581 0)
(-1.11379 -0.0017365 0)
(-1.11501 -0.00305909 0)
(-1.1048 -0.00480545 0)
(-1.08007 -0.00731106 0)
(-1.04157 -0.00987634 0)
(-0.992989 -0.0118466 0)
(-0.938252 -0.0130485 0)
(-0.880165 -0.0138261 0)
(-0.821439 -0.013971 0)
(-0.763373 -0.0137954 0)
(-0.70631 -0.0134652 0)
(-0.650206 -0.0131174 0)
(-0.594772 -0.0128825 0)
(-0.539839 -0.012833 0)
(-0.485226 -0.0130282 0)
(-0.430652 -0.0136053 0)
(-0.374861 -0.0155464 0)
(-0.320015 -0.0164951 0)
(-0.265927 -0.0173349 0)
(-0.213031 -0.0180829 0)
(-0.161156 -0.0192478 0)
(-0.110828 -0.0207712 0)
(-0.0609023 -0.0223983 0)
(-0.0131393 -0.0254687 0)
(0.0413064 -0.0249551 0)
(0.0881872 -0.0228781 0)
(0.134122 -0.0219371 0)
(0.177719 -0.0210483 0)
(0.219999 -0.0203995 0)
(0.260097 -0.0195623 0)
(0.29791 -0.018751 0)
(0.335334 -0.0184211 0)
(0.373752 -0.0186102 0)
(0.411635 -0.0182478 0)
(0.448139 -0.0176495 0)
(0.483397 -0.0170448 0)
(0.517612 -0.0164175 0)
(0.55102 -0.0158626 0)
(0.583626 -0.0153103 0)
(0.615492 -0.0148002 0)
(0.646638 -0.0142704 0)
(0.677131 -0.0137925 0)
(0.706967 -0.0132879 0)
(0.736222 -0.0128322 0)
(0.764884 -0.0123516 0)
(0.793019 -0.0119111 0)
(0.820605 -0.0114549 0)
(0.847705 -0.0110249 0)
(0.874315 -0.0105879 0)
(0.900464 -0.0101716 0)
(0.926161 -0.00974807 0)
(0.95143 -0.00934291 0)
(0.976275 -0.0089322 0)
(1.00072 -0.00853569 0)
(1.02477 -0.00813661 0)
(1.04843 -0.00774782 0)
(1.07171 -0.00735844 0)
(1.09462 -0.00697746 0)
(1.11715 -0.00659745 0)
(1.13931 -0.00622582 0)
(1.16109 -0.00585773 0)
(1.1825 -0.00549939 0)
(1.20353 -0.00514892 0)
(1.22419 -0.00480926 0)
(1.24447 -0.00448109 0)
(1.26438 -0.00416266 0)