/*--------------------------------*- C++ -*----------------------------------*\
| =========                 |                                                 |
| \\      /  F ield         | OpenFOAM: The Open Source CFD Toolbox           |
|  \\    /   O peration     | Version:  2412                                  |
|   \\  /    A nd           | Website:  www.openfoam.com                      |
|    \\/     M anipulation  |                                                 |
\*---------------------------------------------------------------------------*/
FoamFile
{
    version     2.0;
    format      ascii;
    arch        "LSB;label=32;scalar=64";
    class       volScalarField;
    location    "6";
    object      p;
}
// * * * * * * * * * * * * * * * * * * * * * * * * * * * * * * * * * * * * * //

dimensions      [1 -1 -2 0 0 0 0];

internalField   nonuniform List<scalar> 
5250
(
1.00001
1.00004
1.00009
1.00028
1.00057
1.00165
1.00324
1.01012
1.01771
1.06592
1.10777
1.43203
1.90069
4.005
8.9783
11.3292
11.115
10.9971
11.0827
11.3007
11.502
11.622
11.7149
11.786
11.8381
1.00001
1.00004
1.00009
1.00027
1.00057
1.00163
1.00319
1.00996
1.01743
1.06489
1.10602
1.42489
1.88518
3.95213
8.85952
11.3425
11.1182
10.9905
11.0764
11.2947
11.4956
11.616
11.7101
11.7824
11.8359
1.00001
1.00004
1.00009
1.00027
1.00055
1.00158
1.00309
1.00963
1.01688
1.06274
1.10242
1.40976
1.85189
3.83748
8.58952
11.3709
11.1197
10.9659
11.0496
11.2649
11.4636
11.5828
11.6768
11.749
11.8035
1.00001
1.00004
1.00009
1.00025
1.00052
1.0015
1.00294
1.00915
1.01605
1.05951
1.09703
1.38684
1.80128
3.66357
8.16406
11.4221
11.1244
10.9241
11.0029
11.2114
11.4071
11.5233
11.6151
11.6867
11.7436
1
1.00003
1.00008
1.00024
1.00049
1.00141
1.00278
1.00852
1.01519
1.055
1.09048
1.3565
1.7345
3.43592
7.58429
11.4928
11.134
10.867
10.9382
11.1353
11.3277
11.4397
11.5276
11.5969
11.6569
1
1.00003
1.00007
1.00022
1.00046
1.0013
1.0026
1.00777
1.01428
1.04947
1.08299
1.32024
1.65475
3.16507
6.85953
11.5684
11.1496
10.7991
10.8577
11.0344
11.2205
11.3247
11.4048
11.4693
11.5326
1
1.00003
1.00007
1.0002
1.00042
1.00118
1.00239
1.00695
1.01322
1.04352
1.07475
1.28088
1.56863
2.87149
6.02635
11.565
11.1466
10.7233
10.7628
10.9051
11.0808
11.1723
11.2361
11.2857
11.3468
1
1.00003
1.00006
1.00018
1.00038
1.00107
1.00216
1.00621
1.01212
1.03803
1.06754
1.24377
1.48715
2.60673
5.28854
11.391
11.0736
10.6387
10.6471
10.7381
10.8956
10.9666
11.0033
11.0219
11.0625
1
1.00002
1.00006
1.00016
1.00034
1.00096
1.00195
1.00556
1.011
1.03361
1.06136
1.21582
1.41843
2.45971
4.71999
10.848
10.8193
10.5814
10.4948
10.5456
10.6581
10.6957
10.6853
10.634
10.5881
1
1.00002
1.00005
1.00014
1.0003
1.00084
1.0017
1.00489
1.00966
1.02968
1.05401
1.19201
1.35986
2.31382
4.21892
9.97532
10.6152
10.4639
10.3101
10.3261
10.3717
10.3569
10.2736
10.0652
9.73315
1
1.00001
1.00004
1.0001
1.00028
1.00054
1.00167
1.00292
1.01057
1.01704
1.0666
1.10941
1.43836
1.91964
4.02074
8.92006
10.4639
10.347
10.1229
10.0827
10.0595
9.97235
9.72948
9.15463
7.69369
1
1.00001
1.00004
1.00011
1.00022
1.00063
1.00126
1.00369
1.00699
1.02295
1.03935
1.14765
1.25807
2.00898
3.3313
7.80875
10.3653
10.237
9.95112
9.83231
9.74968
9.56954
9.18219
8.39982
6.90286
1
1.00001
1.00003
1.00009
1.0002
1.00056
1.00114
1.00322
1.00648
1.01907
1.03625
1.12082
1.2221
1.80609
2.88165
6.55936
10.291
10.1408
9.7888
9.58445
9.44431
9.19023
8.71337
7.91378
6.72394
1
1.00001
1.00003
1.00008
1.00017
1.00047
1.00096
1.0027
1.00546
1.01573
1.03103
1.0959
1.18595
1.62409
2.45564
5.23006
10.1012
9.99389
9.65748
9.35632
9.15405
8.85797
8.36973
7.63737
6.69004
1
1.00001
1.00002
1.00007
1.00014
1.00039
1.00079
1.00221
1.00447
1.01282
1.02532
1.07796
1.1483
1.50159
2.14891
4.42841
9.45768
9.69425
9.49826
9.14662
8.89387
8.5787
8.11829
7.46685
6.66826
1
1.00001
1.00002
1.00005
1.00011
1.0003
1.00061
1.00173
1.00341
1.01029
1.01845
1.06538
1.10859
1.42036
1.87156
3.80972
8.14302
9.38621
9.27208
8.98559
8.67911
8.3497
7.91748
7.33661
6.64461
1
1.00001
1.00001
1.00004
1.00009
1.00024
1.0005
1.00139
1.00279
1.00815
1.01534
1.05105
1.08701
1.3288
1.6644
3.17722
6.61087
9.17655
9.11104
8.87542
8.51463
8.1667
7.75368
7.22938
6.61958
1
1
1.00001
1.00003
1.00007
1.00019
1.00039
1.00108
1.00219
1.00627
1.01217
1.03842
1.06742
1.24468
1.48593
2.57584
4.98331
8.88316
8.97175
8.79661
8.41222
8.0202
7.61747
7.14338
6.6006
1
1
1.00001
1.00002
1.00005
1.00014
1.0003
1.00082
1.00167
1.00474
1.00938
1.02829
1.05181
1.17958
1.33509
2.17333
3.76505
8.14681
8.80354
8.66467
8.32605
7.89957
7.50297
7.0685
6.58264
1
1
1.00001
1.00002
1.00004
1.00009
1.00025
1.0005
1.00143
1.00277
1.00861
1.01495
1.05443
1.08937
1.34407
1.69369
3.233
6.57451
8.53083
8.47341
8.24544
7.80848
7.40845
7.00338
6.56382
1
1
1.00001
1.00001
1.00003
1.00007
1.00019
1.00039
1.0011
1.00222
1.00633
1.01237
1.03839
1.06858
1.2419
1.48138
2.53683
4.83342
8.14539
8.30969
8.15882
7.79352
7.35706
6.9593
6.54923
1
1
1
1.00001
1.00002
1.00006
1.00012
1.00034
1.00069
1.00193
1.00389
1.01119
1.02224
1.06627
1.13453
1.41047
1.94871
3.63046
7.25653
8.11442
8.02417
7.76248
7.33398
6.93139
6.54434
1
1
1
1.00001
1.00002
1.00004
1.0001
1.0002
1.00056
1.00114
1.00322
1.00628
1.01936
1.03424
1.12182
1.21377
1.78052
2.73751
5.75809
7.87898
7.8653
7.7088
7.34552
6.93044
6.54447
1
1
1
1.00001
1.00001
1.00003
1.00006
1.00017
1.00034
1.00094
1.00189
1.00535
1.01045
1.032
1.05735
1.19682
1.38517
2.19927
3.84098
7.39651
7.78194
7.66588
7.3727
6.93994
6.54866
1
1
1
1
1.00001
1.00002
1.00005
1.0001
1.00028
1.00056
1.00156
1.00312
1.00906
1.01701
1.05535
1.09733
1.34248
1.71064
3.13556
6.17469
7.58266
7.55239
7.3661
6.97086
6.56264
1
1
1
1
1.00001
1.00001
1.00003
1.00007
1.00019
1.0004
1.0011
1.00222
1.00623
1.01233
1.03685
1.06775
1.22655
1.45647
2.40146
4.40536
7.1468
7.41943
7.3157
7.02992
6.59479
1
1
1
1
1
1.00001
1.00002
1.00006
1.00011
1.00031
1.00064
1.00178
1.00358
1.01012
1.02031
1.05862
1.12138
1.35473
1.81238
3.19516
6.15417
7.21992
7.18634
7.01662
6.65239
1
1
1
1
1
1.00001
1.00002
1.00003
1.00009
1.00018
1.0005
1.00101
1.0028
1.00561
1.01614
1.03064
1.09799
1.18068
1.60466
2.33805
4.55314
6.8181
7.04661
6.96131
6.71641
1
1
1
1
1
1
1.00001
1.00002
1.00005
1.00014
1.00028
1.00076
1.00155
1.00429
1.0085
1.02501
1.04594
1.15249
1.28353
1.91802
3.06677
5.97007
6.87637
6.84626
6.70506
1
1
1
1
1
1
1.00001
1.00002
1.00003
1.00009
1.00018
1.00051
1.00103
1.00283
1.0057
1.01606
1.03158
1.09537
1.1825
1.58645
2.29697
4.38489
6.49038
6.73557
6.66161
1
1
1
1
1
1
1
1.00001
1.00002
1.00005
1.00013
1.00027
1.00075
1.00151
1.00418
1.00832
1.02406
1.04501
1.14473
1.27422
1.86604
2.93903
5.65288
6.56289
6.55366
1
1
1
1
1
1
1
1.00001
1.00002
1.00003
1.00009
1.00018
1.00048
1.00097
1.00267
1.00539
1.01508
1.02971
1.08857
1.17074
1.53683
2.18001
4.04476
6.14238
6.46046
1
1
1
1
1
1
1
1
1.00001
1.00002
1.00005
1.00012
1.00025
1.00068
1.00138
1.0038
1.0075
1.02198
1.04021
1.1329
1.24207
1.78937
2.724
5.21543
6.26252
1
1
1
1
1
1
1
1
1.00001
1.00001
1.00003
1.00007
1.00018
1.00036
1.00099
1.002
1.00553
1.01084
1.03222
1.05823
1.19335
1.36754
2.1168
3.5418
5.76319
1
1
1
1
1
1
1
1
1
1.00001
1.00002
1.00004
1.00011
1.00023
1.00061
1.00124
1.00337
1.00672
1.01926
1.03567
1.11615
1.20737
1.68601
2.47866
4.65836
1
1
1
1
1
1
1
1
1
1
1.00001
1.00002
1.00007
1.00014
1.00037
1.00075
1.00203
1.00409
1.01127
1.02245
1.06391
1.12943
1.37126
1.81603
3.02396
1
1
1
1
1
1
1
1
1
1
1.00001
1.00002
1.00003
1.00009
1.00019
1.00051
1.00103
1.00281
1.00555
1.01603
1.02928
1.09601
1.16951
1.56417
2.19211
1
1
1
1
1
1
1
1
1
1
1
1.00001
1.00002
1.00006
1.00011
1.00031
1.00063
1.0017
1.00343
1.00941
1.01897
1.05266
1.10914
1.30349
1.67043
1
1
1
1
1
1
1
1
1
1
1
1.00001
1.00001
1.00003
1.00008
1.00015
1.00041
1.00084
1.00227
1.00457
1.01261
1.02483
1.07213
1.13995
1.41596
1
1
1
1
1
1
1
1
1
1
1
1
1.00001
1.00002
1.00004
1.00011
1.00021
1.00057
1.00116
1.00316
1.00623
1.01796
1.03281
1.10644
1.18872
1
1
1
1
1
1
1
1
1
1
1
1
1
1.00001
1.00002
1.00007
1.00013
1.00036
1.00073
1.00199
1.00401
1.01103
1.02206
1.06208
1.12692
1
1
1
1
1
1
1
1
1
1
1
1
1
1.00001
1.00002
1.00004
1.00011
1.00022
1.00059
1.0012
1.00332
1.00667
1.01896
1.0366
1.11418
1
1
1
1
1
1
1
1
1
1
1
1
1
1.00001
1.00001
1.00004
1.00007
1.0002
1.0004
1.00113
1.00225
1.00662
1.01217
1.04106
1.06945
1
1
1
1
1
1
1
1
1
1
1
1
1
1
1.00001
1.00003
1.00008
1.00016
1.00045
1.00092
1.00261
1.00527
1.01539
1.02994
1.09568
1
1
1
1
1
1
1
1
1
1
1
1
1
1
1.00001
1.00003
1.00007
1.00015
1.00043
1.00087
1.00249
1.00503
1.01476
1.02868
1.09263
1
1
1
1
1
1
1
1
1
1
1
1
1
1.00001
1.00001
1.00003
1.00006
1.00017
1.00035
1.00098
1.00198
1.00578
1.01116
1.03612
1.06284
1
1
1
1
1
1
1
1
1
1
1
1
1
1.00001
1.00001
1.00003
1.00006
1.00017
1.00034
1.00098
1.00198
1.00573
1.01128
1.03523
1.06341
1
1
1
1
1
1
1
1
1
1
1
1
1
1
1.00001
1.00003
1.00006
1.00016
1.00033
1.00095
1.00192
1.0056
1.01087
1.03493
1.06132
1
1
1
1
1
1
1
1
1
1
1
1
1
1
1.00001
1.00002
1.00007
1.00013
1.00038
1.00078
1.00227
1.00441
1.01408
1.02478
1.09149
1
1
1
1
1
1
1
1
1
1
1
1
1
1
1.00001
1.00003
1.00006
1.00016
1.00033
1.00094
1.0019
1.00555
1.01078
1.03471
1.06087
3.4832
2.41845
2.71489
3.73025
3.70262
3.54718
3.44043
3.38969
3.36525
3.31325
3.24044
3.1671
3.10417
3.04703
2.98543
2.91867
2.8505
2.78667
2.7314
2.68264
2.63082
2.57465
2.54674
2.53591
2.53365
2.55766
2.62321
2.73072
2.87255
3.03392
3.20295
3.37225
3.53701
3.69518
3.8412
3.97507
4.0978
4.21029
4.31396
4.40827
4.4917
4.56574
4.63107
4.68716
4.7377
4.78152
4.81643
4.84442
4.86594
4.88186
4.89246
4.8983
4.89982
4.89871
4.89464
4.88557
4.8713
4.8543
4.83486
4.81319
4.7891
4.76287
4.73437
4.70401
4.67172
4.6378
4.60226
4.56529
4.52694
4.4874
4.44668
4.40496
4.36229
4.31879
4.27453
4.2296
4.18406
4.13799
4.09144
4.04447
3.99714
3.94954
3.90173
3.85381
3.80586
3.75798
3.71026
3.66279
3.61565
3.56896
3.52284
3.47744
3.43296
3.38967
3.34793
3.30832
3.27154
3.23883
3.21172
3.19329
4.24725
3.32073
3.4173
3.74069
3.66862
3.51706
3.4284
3.42125
3.40509
3.33211
3.2395
3.15392
3.08888
3.03901
2.98253
2.91762
2.85004
2.78544
2.72822
2.67893
2.63103
2.58064
2.54701
2.53274
2.52956
2.55006
2.61119
2.71568
2.85768
3.02003
3.19005
3.36011
3.52451
3.68254
3.82878
3.9625
4.08459
4.19503
4.29961
4.39571
4.4798
4.55448
4.62024
4.67811
4.7298
4.77314
4.80845
4.83688
4.85881
4.87513
4.88604
4.8922
4.89382
4.893
4.88972
4.88185
4.86732
4.85013
4.83079
4.80938
4.78564
4.75964
4.7314
4.70118
4.66908
4.63529
4.59989
4.56304
4.52481
4.48535
4.44473
4.40309
4.36049
4.31707
4.27287
4.228
4.18252
4.1365
4.08998
4.04305
3.99575
3.94817
3.90039
3.85249
3.80456
3.75671
3.70901
3.66155
3.61441
3.56771
3.52158
3.47613
3.43159
3.38819
3.34623
3.30641
3.26946
3.2364
3.20873
3.1897
5.06186
4.06245
3.70893
3.71691
3.67551
3.5581
3.44372
3.40384
3.36564
3.30956
3.23056
3.15348
3.09593
3.0488
2.986
2.91525
2.84343
2.77551
2.71582
2.66707
2.62473
2.58441
2.54783
2.52776
2.52184
2.53765
2.59194
2.69045
2.83367
2.99782
3.16744
3.33674
3.49676
3.66107
3.8073
3.94197
4.06488
4.17779
4.28259
4.37846
4.46342
4.53922
4.60596
4.66478
4.71605
4.75989
4.79594
4.82506
4.84757
4.86442
4.8758
4.88234
4.88418
4.88356
4.88098
4.8745
4.8612
4.84374
4.82436
4.8032
4.77985
4.75422
4.72635
4.69644
4.66462
4.63107
4.5959
4.55924
4.5212
4.4819
4.44144
4.39993
4.35747
4.31416
4.27008
4.22532
4.17992
4.13398
4.08753
4.04065
3.99339
3.94586
3.89811
3.85025
3.80237
3.75455
3.70688
3.65945
3.61231
3.56565
3.5195
3.47395
3.42931
3.38582
3.34386
3.30376
3.2663
3.23259
3.20399
3.18384
5.4723
4.52057
3.97997
3.77303
3.69783
3.58745
3.47665
3.41456
3.36869
3.30521
3.22328
3.14677
3.08473
3.03142
2.97364
2.90674
2.83741
2.77212
2.71347
2.66573
2.62278
2.58063
2.54485
2.51666
2.50369
2.51926
2.57326
2.6627
2.80512
2.96575
3.13585
3.30576
3.46983
3.63114
3.77832
3.9138
4.03787
4.15221
4.25741
4.35378
4.43972
4.51618
4.58346
4.64289
4.69453
4.7389
4.77561
4.80541
4.82865
4.84617
4.85825
4.8654
4.86767
4.86722
4.86527
4.8602
4.84938
4.83232
4.81307
4.79216
4.76929
4.74428
4.71705
4.68773
4.65644
4.62335
4.58861
4.55233
4.51464
4.47565
4.43548
4.39424
4.35203
4.30893
4.26506
4.22047
4.17525
4.12943
4.08311
4.0363
3.98914
3.94167
3.89401
3.84624
3.79847
3.75072
3.70317
3.65581
3.60864
3.56204
3.51596
3.47055
3.42588
3.3822
3.33993
3.29942
3.26139
3.22681
3.19705
3.17549
5.69911
4.84183
4.24899
3.9123
3.75712
3.64714
3.53613
3.44717
3.38137
3.31124
3.23044
3.15357
3.08748
3.02977
2.96737
2.89904
2.83024
2.76553
2.70774
2.6595
2.61585
2.57594
2.54315
2.51953
2.51216
2.52439
2.57125
2.66582
2.79282
2.9411
3.10059
3.26644
3.4296
3.58799
3.73602
3.87279
3.99821
4.11372
4.21975
4.31689
4.40416
4.48201
4.5506
4.61104
4.6636
4.70885
4.74666
4.77762
4.80203
4.82068
4.83386
4.84208
4.84528
4.845
4.84365
4.83997
4.83182
4.81646
4.7979
4.77738
4.75503
4.73073
4.7043
4.67578
4.64524
4.61284
4.57871
4.54299
4.50581
4.46729
4.42755
4.38669
4.34484
4.30207
4.2585
4.21417
4.16917
4.12354
4.07737
4.03071
3.98367
3.93633
3.88879
3.84117
3.79355
3.74587
3.69845
3.65124
3.60448
3.55787
3.51177
3.46628
3.42155
3.37773
3.33518
3.29424
3.25556
3.22004
3.18904
3.16579
5.84275
5.08754
4.49829
4.10541
3.87425
3.72684
3.60267
3.49901
3.41196
3.33141
3.25069
3.17127
3.09858
3.03388
2.96947
2.90251
2.83448
2.76991
2.71288
2.66455
2.62276
2.58749
2.5606
2.54534
2.54709
2.5635
2.61228
2.70361
2.80873
2.93242
3.06455
3.20647
3.36049
3.51651
3.6683
3.81076
3.94073
4.05895
4.16662
4.26494
4.35386
4.43361
4.50426
4.56652
4.62082
4.66766
4.70718
4.73978
4.76587
4.78608
4.80081
4.81054
4.81541
4.81546
4.81471
4.81222
4.80636
4.79435
4.77719
4.7575
4.73589
4.7124
4.68692
4.6594
4.62985
4.59837
4.56509
4.53014
4.49366
4.45577
4.41661
4.37628
4.33492
4.29259
4.24941
4.20543
4.16074
4.11536
4.0694
4.02293
3.97609
3.92894
3.88154
3.83415
3.7868
3.7396
3.69242
3.64542
3.59871
3.55225
3.50623
3.46073
3.41594
3.37199
3.32919
3.28783
3.24852
3.21208
3.17986
3.1549
5.93857
5.2752
4.71301
4.29376
4.00776
3.81758
3.67282
3.55486
3.45597
3.36754
3.28333
3.20032
3.12195
3.04828
2.98014
2.91286
2.84533
2.78124
2.72485
2.67876
2.64358
2.62028
2.6081
2.61046
2.62456
2.66427
2.73904
2.80712
2.87559
2.95557
3.05037
3.14685
3.25831
3.39739
3.55271
3.70976
3.85406
3.98322
4.09781
4.19989
4.29102
4.37271
4.44542
4.51005
4.56694
4.61628
4.65831
4.69323
4.7216
4.74387
4.76058
4.77217
4.77893
4.78063
4.78016
4.77848
4.7744
4.76582
4.75113
4.73299
4.71248
4.69
4.66559
4.63919
4.61079
4.58043
4.54821
4.51424
4.47866
4.44159
4.40318
4.36353
4.32279
4.28103
4.23834
4.1948
4.15045
4.10537
4.05968
4.01348
3.96687
3.92005
3.87322
3.82621
3.77918
3.73219
3.68525
3.63843
3.59183
3.5455
3.49957
3.45411
3.40931
3.36527
3.32226
3.28056
3.24069
3.20341
3.1701
3.14357
6.00575
5.41696
4.89267
4.46771
4.1501
3.92155
3.75166
3.61762
3.50674
3.4092
3.31954
3.2333
3.15131
3.07448
3.00235
2.93382
2.86644
2.80375
2.749
2.70845
2.68553
2.68103
2.68562
2.70537
2.75657
2.85906
2.93676
2.97537
3.0035
3.03234
3.06297
3.12319
3.17932
3.25806
3.38238
3.54582
3.70919
3.86246
3.99767
4.11398
4.21356
4.3
4.37528
4.44222
4.50167
4.55383
4.59883
4.63678
4.66813
4.6932
4.71246
4.72641
4.73544
4.73961
4.73949
4.73859
4.73603
4.73036
4.71899
4.70296
4.68409
4.66298
4.63984
4.6147
4.58759
4.55852
4.52755
4.49475
4.46026
4.4242
4.38671
4.34791
4.30794
4.26687
4.2248
4.18177
4.13783
4.09312
4.04776
4.00199
3.95598
3.90971
3.86329
3.81667
3.76995
3.72319
3.67648
3.62986
3.58345
3.5373
3.49152
3.44617
3.40143
3.35737
3.31425
3.27228
3.23196
3.19396
3.15973
3.13178
6.05641
5.52733
5.04002
4.62328
4.29055
4.03519
3.84095
3.68806
3.56369
3.45741
3.3605
3.2707
3.18532
3.10555
3.03008
2.95988
2.89269
2.83257
2.78302
2.75378
2.75315
2.76
2.7857
2.85093
2.98942
3.13765
3.20035
3.20215
3.19497
3.17314
3.13233
3.13406
3.15087
3.19218
3.25899
3.3632
3.50948
3.67637
3.83875
3.98366
4.10672
4.2088
4.29363
4.36552
4.42778
4.48227
4.52973
4.5705
4.60519
4.6335
4.65598
4.67289
4.68473
4.69164
4.69343
4.693
4.69149
4.68783
4.68015
4.66694
4.65027
4.63094
4.60936
4.58569
4.56003
4.5324
4.50285
4.47143
4.43824
4.4034
4.36704
4.32928
4.29025
4.25003
4.20868
4.16626
4.12282
4.0787
4.03409
3.98899
3.94354
3.89775
3.85172
3.80546
3.75908
3.71263
3.66621
3.61987
3.57373
3.52782
3.48225
3.43708
3.39246
3.34845
3.30529
3.26316
3.22253
3.18395
3.14899
3.11982
6.09202
5.61415
5.16188
4.76005
4.42282
4.15081
3.93632
3.76562
3.62684
3.50979
3.40576
3.31221
3.22313
3.14093
3.06241
2.99134
2.92488
2.86934
2.82995
2.82505
2.83216
2.85884
2.92752
3.07762
3.32712
3.48117
3.49719
3.48285
3.43834
3.34335
3.2409
3.17772
3.1695
3.17958
3.21169
3.26575
3.34886
3.46329
3.61938
3.78278
3.93738
4.07096
4.18109
4.26986
4.34194
4.40164
4.45224
4.49568
4.53316
4.5647
4.59048
4.61108
4.62649
4.63654
4.64172
4.64209
4.64146
4.63945
4.63479
4.62528
4.61108
4.59385
4.57414
4.5522
4.52819
4.50216
4.47416
4.44426
4.41253
4.37908
4.34403
4.30749
4.26957
4.23032
4.18979
4.14809
4.10558
4.0623
4.01844
3.97401
3.92913
3.88382
3.83823
3.79239
3.74641
3.70034
3.6543
3.60831
3.56251
3.51689
3.47161
3.42668
3.38226
3.33838
3.29529
3.25309
3.21227
3.17328
3.13777
3.1076
6.12003
5.68341
5.26302
4.87847
4.54397
4.26302
4.03367
3.84728
3.69458
3.56651
3.45508
3.35577
3.26362
3.17881
3.09921
3.02794
2.96441
2.91637
2.90147
2.90727
2.93109
2.99517
3.13944
3.43623
3.73718
3.83814
3.82769
3.78545
3.68624
3.52381
3.38425
3.28414
3.2253
3.20666
3.21146
3.23221
3.27631
3.33448
3.42071
3.54793
3.70498
3.86318
4.00797
4.13007
4.228
4.30466
4.36509
4.41389
4.45455
4.48892
4.51795
4.5417
4.56065
4.57423
4.58304
4.58676
4.58663
4.58573
4.58319
4.57758
4.56638
4.55152
4.53393
4.51396
4.4918
4.46753
4.44124
4.41299
4.38288
4.35098
4.31743
4.2823
4.24567
4.20751
4.16803
4.12743
4.08597
4.04364
4.0006
3.95688
3.91264
3.86791
3.82285
3.7775
3.73202
3.68639
3.6408
3.59521
3.54981
3.50455
3.45962
3.41498
3.37083
3.32716
3.28422
3.24208
3.2012
3.16195
3.12609
3.09509
6.14545
5.73969
5.34658
4.98013
4.65248
4.36885
4.12981
3.931
3.76575
3.62694
3.50744
3.40215
3.30666
3.21951
3.13949
3.06957
3.01359
2.98534
2.98911
3.00836
3.06398
3.19472
3.47217
3.91707
4.17022
4.18096
4.15424
4.07455
3.90631
3.71229
3.5516
3.42808
3.33857
3.28046
3.24813
3.24884
3.25821
3.28374
3.32329
3.3868
3.48214
3.61838
3.77166
3.92246
4.0564
4.16635
4.25195
4.31713
4.36722
4.40681
4.43914
4.46578
4.48775
4.50446
4.51684
4.52434
4.52724
4.52698
4.52579
4.52267
4.51594
4.50386
4.48853
4.47065
4.45047
4.42811
4.40366
4.3772
4.34885
4.31867
4.28679
4.25324
4.21802
4.1812
4.14309
4.1038
4.06349
4.0222
3.98009
3.93721
3.89374
3.84973
3.80534
3.76061
3.71571
3.67064
3.62557
3.58049
3.53555
3.49074
3.44623
3.40198
3.35817
3.31481
3.27211
3.23014
3.18933
3.14998
3.11394
3.08229
6.16442
5.78653
5.41745
5.06766
4.74861
4.4662
4.22218
4.01444
3.83896
3.69032
3.56279
3.45149
3.35233
3.26352
3.18491
3.11899
3.07883
3.08023
3.09431
3.14052
3.25457
3.50093
3.9977
4.41775
4.53883
4.52059
4.45699
4.31366
4.0971
3.89784
3.73067
3.59437
3.48516
3.40017
3.33683
3.29546
3.2754
3.27783
3.28948
3.31385
3.35665
3.42415
3.53112
3.66928
3.81877
3.96116
4.08404
4.18227
4.25662
4.31172
4.35284
4.38436
4.40926
4.42907
4.44421
4.45503
4.46182
4.46388
4.46354
4.46213
4.45857
4.451
4.43831
4.42256
4.4044
4.38398
4.36145
4.33689
4.31042
4.2821
4.25204
4.22021
4.18661
4.15143
4.11488
4.07702
4.03801
3.9979
3.95687
3.91498
3.87243
3.82926
3.78566
3.74166
3.69745
3.65302
3.60856
3.56405
3.51966
3.47536
3.43133
3.38753
3.34415
3.30116
3.2588
3.2171
3.1765
3.1372
3.10116
3.06904
6.18229
5.82526
5.47669
5.14415
4.83579
4.55639
4.30962
4.09619
3.91283
3.75609
3.62113
3.50423
3.40167
3.31237
3.23743
3.18356
3.17768
3.18835
3.22786
3.32999
3.55713
4.02527
4.58653
4.84619
4.84239
4.80449
4.70259
4.49462
4.27471
4.08057
3.91416
3.77188
3.64986
3.54581
3.45875
3.38896
3.33685
3.30109
3.28886
3.29267
3.30399
3.32924
3.37593
3.44854
3.56815
3.70637
3.85101
3.98449
4.09637
4.18316
4.24679
4.29214
4.32467
4.34868
4.36692
4.38031
4.38992
4.39542
4.39699
4.39657
4.39497
4.39103
4.38275
4.36955
4.35341
4.3349
4.31428
4.29164
4.26713
4.24077
4.21265
4.18266
4.15092
4.11756
4.08272
4.04645
4.00891
3.97016
3.9304
3.88969
3.84824
3.80609
3.76345
3.72034
3.67696
3.63331
3.58958
3.54576
3.50201
3.45833
3.41487
3.37163
3.32875
3.28626
3.24434
3.20304
3.16278
3.12369
3.08783
3.05542
6.1989
5.85845
5.52852
5.21081
4.91202
4.63825
4.39256
4.17576
3.98679
3.8236
3.68256
3.56089
3.45619
3.36927
3.30245
3.2828
3.29135
3.32569
3.41752
3.62524
4.0586
4.70788
5.08501
5.14303
5.11694
5.03683
4.86577
4.64612
4.4417
4.25992
4.09819
3.9529
3.82192
3.70441
3.60007
3.50906
3.43204
3.36956
3.32458
3.29336
3.2908
3.29326
3.30401
3.33051
3.38399
3.46754
3.59169
3.72976
3.86884
3.99349
4.09432
4.16949
4.22247
4.2588
4.28374
4.30127
4.31319
4.32123
4.32598
4.32664
4.32615
4.32441
4.32016
4.31131
4.29758
4.28101
4.26224
4.2415
4.21894
4.19458
4.16846
4.14044
4.11071
4.07929
4.04631
4.01181
3.97594
3.93877
3.90049
3.86118
3.82102
3.78009
3.73858
3.69653
3.65412
3.61139
3.56851
3.52549
3.48248
3.43951
3.39671
3.35412
3.31185
3.26995
3.22858
3.18781
3.14804
3.10933
3.07382
3.04133
6.22795
5.89328
5.57375
5.26899
4.98087
4.71419
4.47089
4.25337
4.06094
3.89312
3.74757
3.62276
3.51894
3.43759
3.40151
3.40789
3.43708
3.51888
3.70766
4.10528
4.80452
5.28196
5.41066
5.39386
5.33342
5.1967
4.98732
4.7852
4.60141
4.43304
4.27647
4.1298
3.99291
3.86593
3.74929
3.64353
3.5493
3.46705
3.39721
3.34215
3.30281
3.28262
3.2795
3.28171
3.29335
3.32332
3.38384
3.47921
3.6063
3.74411
3.87623
3.99
4.07904
4.1431
4.18635
4.21441
4.23248
4.24351
4.25049
4.25375
4.25372
4.25312
4.25113
4.24644
4.23675
4.22242
4.20561
4.18677
4.1661
4.14368
4.1195
4.09348
4.06577
4.03635
4.00532
3.97272
3.93869
3.9033
3.86671
3.82901
3.79037
3.75087
3.71069
3.66989
3.62864
3.587
3.54511
3.50305
3.46092
3.4188
3.3768
3.33497
3.29343
3.25226
3.21158
3.17148
3.13236
3.09421
3.05924
3.0269
6.26125
5.92455
5.61677
5.32246
5.04346
4.78415
4.54543
4.32928
4.13588
3.96546
3.8176
3.69278
3.59465
3.53698
3.54042
3.56402
3.63632
3.80822
4.17299
4.88614
5.46178
5.65219
5.64302
5.59937
5.49306
5.29811
5.10253
4.92286
4.75615
4.59768
4.44531
4.29877
4.15835
4.02506
3.89989
3.78363
3.67686
3.58024
3.49419
3.41932
3.35679
3.30843
3.27548
3.26315
3.25592
3.25887
3.27361
3.30974
3.38128
3.48756
3.61417
3.74766
3.87181
3.97496
4.05223
4.10535
4.13929
4.15983
4.17116
4.17707
4.17888
4.17864
4.17766
4.1751
4.16954
4.15842
4.14409
4.12736
4.10862
4.08808
4.06574
4.04163
4.01586
3.98842
3.95938
3.92879
3.89675
3.86332
3.82863
3.79277
3.75588
3.71804
3.67941
3.64008
3.60019
3.55982
3.51912
3.47817
3.43709
3.39597
3.35491
3.31399
3.27334
3.23302
3.1932
3.15393
3.11565
3.07827
3.04407
3.01218
6.30949
5.96091
5.65595
5.374
5.10626
4.85244
4.61721
4.40337
4.21102
4.04093
3.89398
3.7757
3.69227
3.69013
3.70818
3.77265
3.93323
4.27879
4.97253
5.60429
5.86691
5.86508
5.83549
5.75243
5.58159
5.39186
5.21845
5.05826
4.90458
4.75368
4.60473
4.45838
4.3159
4.17857
4.04774
3.92405
3.80846
3.70117
3.6029
3.51391
3.43464
3.36721
3.31091
3.2676
3.24412
3.22951
3.22511
3.22945
3.24864
3.29207
3.37371
3.48575
3.61427
3.74292
3.85746
3.94883
4.01449
4.05725
4.08242
4.09569
4.1014
4.10167
4.10121
4.09975
4.09635
4.08926
4.07755
4.06314
4.04651
4.02787
4.00734
3.98499
3.961
3.93543
3.90836
3.8798
3.84985
3.81851
3.78591
3.75207
3.71714
3.68118
3.64434
3.60669
3.56839
3.52952
3.49023
3.45059
3.41077
3.37082
3.3309
3.29108
3.2515
3.21223
3.17345
3.13522
3.098
3.06165
3.02846
2.99738
6.38866
6.01603
5.70308
5.42509
5.16512
4.92053
4.69178
4.48021
4.28936
4.12149
3.98143
3.87884
3.85417
3.87007
3.92998
4.08326
4.4171
5.09169
5.76385
6.08192
6.0929
6.06601
5.98695
5.82471
5.64819
5.48562
5.33536
5.1907
5.0462
4.9007
4.75399
4.60813
4.4645
4.32494
4.19031
4.06166
3.9397
3.82478
3.71756
3.61816
3.52705
3.44457
3.37181
3.3099
3.26025
3.22421
3.20648
3.18885
3.18767
3.19455
3.21904
3.27234
3.36497
3.47961
3.60599
3.72812
3.83256
3.91205
3.96617
3.99878
4.01601
4.02219
4.02216
4.02144
4.0194
4.01497
4.00606
3.99405
3.97958
3.96289
3.94419
3.92354
3.90127
3.87747
3.85228
3.82571
3.79784
3.76864
3.73821
3.70654
3.67376
3.63988
3.60505
3.56932
3.53286
3.49572
3.45808
3.42001
3.38167
3.34315
3.30459
3.26609
3.22779
3.18979
3.15229
3.11535
3.07945
3.04448
3.01258
2.9828
6.45628
6.08812
5.76172
5.48065
5.22605
4.98732
4.76387
4.55743
4.37183
4.21284
4.09048
4.04295
4.05591
4.11116
4.25823
4.58412
5.24653
5.9471
6.29663
6.32156
6.29571
6.21672
6.05431
5.87998
5.725
5.58551
5.45163
5.3169
5.17853
5.03671
4.8925
4.7479
4.60416
4.46332
4.32608
4.19416
4.0675
3.94728
3.83338
3.72615
3.62636
3.53372
3.44948
3.37324
3.30659
3.25059
3.20592
3.17757
3.15764
3.14428
3.1458
3.15691
3.1873
3.25105
3.34955
3.46737
3.59035
3.70412
3.79722
3.86453
3.9073
3.93051
3.93993
3.93995
3.9391
3.9366
3.93115
3.92114
3.90838
3.89338
3.87643
3.85749
3.83695
3.81491
3.79151
3.7668
3.74088
3.71375
3.68547
3.65601
3.62546
3.59381
3.56117
3.52758
3.49319
3.45805
3.42233
3.3861
3.34952
3.31269
3.27576
3.23885
3.20211
3.16566
3.12972
3.0944
3.06017
3.02699
2.99677
2.9689
6.45007
6.19943
5.84535
5.54859
5.29148
5.05657
4.83869
4.63911
4.46452
4.3255
4.25611
4.26629
4.31752
4.46103
4.78408
5.44356
6.16516
6.53293
6.56362
6.53521
6.4498
6.2757
6.09936
5.94739
5.81469
5.69
5.56508
5.43575
5.30116
5.16201
5.01996
4.87669
4.73381
4.59283
4.45472
4.3207
4.19102
4.06686
3.94783
3.83532
3.72845
3.62848
3.53507
3.44887
3.3703
3.30007
3.23908
3.18852
3.15116
3.12641
3.10535
3.09582
3.09937
3.11528
3.153
3.22951
3.33061
3.44839
3.56625
3.6702
3.75109
3.80636
3.83844
3.8532
3.85506
3.85419
3.85142
3.84529
3.83414
3.82027
3.80449
3.78717
3.76836
3.74806
3.72639
3.70341
3.67928
3.65405
3.62778
3.60046
3.57212
3.54275
3.51242
3.48115
3.44904
3.41616
3.38263
3.34853
3.31401
3.27918
3.2442
3.2092
3.17434
3.1398
3.10579
3.07251
3.04038
3.00956
2.98151
2.95641
6.41132
6.25522
5.93596
5.62554
5.36251
5.12966
4.91858
4.73143
4.57802
4.49258
4.50069
4.55014
4.69405
5.02263
5.6945
6.42913
6.79917
6.8229
6.78931
6.69245
6.49748
6.31275
6.16042
6.03186
5.91387
5.7965
5.67511
5.54779
5.41512
5.27784
5.13781
4.9961
4.8545
4.71386
4.57557
4.44022
4.30879
4.18167
4.05943
3.9424
3.83069
3.72495
3.62492
3.53147
3.44411
3.36388
3.29081
3.22597
3.17051
3.12491
3.09369
3.06801
3.04848
3.04586
3.05182
3.07219
3.11739
3.20322
3.3073
3.42212
3.53281
3.62619
3.69491
3.73834
3.76063
3.76677
3.76612
3.76345
3.75731
3.74497
3.72997
3.71368
3.69616
3.67733
3.65724
3.63591
3.61349
3.59001
3.56558
3.5402
3.51393
3.48677
3.45875
3.42987
3.40021
3.36978
3.3387
3.30702
3.27488
3.24239
3.20971
3.17699
3.14443
3.11222
3.08062
3.04991
3.02046
2.99276
2.96749
2.94636
6.31849
6.24465
6.05286
5.72632
5.44629
5.21061
5.00914
4.84345
4.74804
4.75557
4.80677
4.95865
5.30566
6.0132
6.75034
7.11025
7.10813
7.06475
6.95077
6.72491
6.52707
6.37102
6.2438
6.12976
6.01793
5.90225
5.78093
5.65368
5.52163
5.38555
5.24703
5.1068
4.96647
4.82654
4.6885
4.5526
4.4201
4.29107
4.16648
4.04623
3.9311
3.82085
3.71608
3.61673
3.52302
3.43529
3.35363
3.27868
3.21079
3.15114
3.10007
3.06119
3.03099
3.00671
2.99036
2.99182
3.00169
3.02802
3.08341
3.17198
3.27825
3.3892
3.49087
3.57232
3.62868
3.66065
3.67433
3.67405
3.67196
3.66639
3.65483
3.63922
3.62187
3.60357
3.58452
3.56461
3.5438
3.52199
3.49927
3.47566
3.45129
3.42617
3.40037
3.37386
3.34669
3.31885
3.2904
3.2614
3.23194
3.20214
3.17215
3.14214
3.11234
3.08301
3.05443
3.02702
3.00102
2.97744
2.95575
2.9404
6.2183
6.19844
6.09184
5.85274
5.55162
5.30962
5.12269
5.02048
5.02906
5.0862
5.25442
5.63531
6.40629
7.13755
7.45492
7.44226
7.37033
7.20383
6.95438
6.74608
6.58662
6.45888
6.34587
6.2363
6.12389
6.00621
5.88286
5.75453
5.62211
5.48657
5.34887
5.20983
5.07045
4.93141
4.79372
4.65783
4.52473
4.3946
4.26832
4.14588
4.02802
3.91454
3.80608
3.70234
3.60388
3.51044
3.42251
3.34007
3.26357
3.19344
3.13015
3.07523
3.02867
2.99496
2.96377
2.94083
2.9298
2.93314
2.94717
2.98025
3.04746
3.13743
3.24245
3.34756
3.43917
3.5083
3.5523
3.5748
3.57847
3.57716
3.57281
3.56317
3.54694
3.5288
3.50997
3.49072
3.47097
3.45048
3.42927
3.4073
3.38471
3.36149
3.33778
3.31352
3.28879
3.26353
3.23782
3.21165
3.18514
3.15835
3.13147
3.10467
3.07822
3.05245
3.02768
3.00448
2.98298
2.96469
2.94813
2.94072
5.964
6.12658
6.07837
5.94387
5.67157
5.43604
5.31004
5.32047
5.38715
5.58125
6.01251
6.87505
7.58916
7.84303
7.81591
7.70804
7.47634
7.2076
6.98326
6.81243
6.67985
6.5658
6.4564
6.34485
6.22856
6.10706
5.98084
5.85069
5.71741
5.58176
5.44442
5.30608
5.16742
5.02908
4.89179
4.7561
4.6227
4.49198
4.36456
4.24066
4.12079
4.00499
3.89367
3.78671
3.68446
3.58673
3.49395
3.40593
3.32304
3.24522
3.17316
3.10722
3.04849
2.9969
2.9564
2.92182
2.89305
2.87086
2.87031
2.87552
2.89256
2.9304
3.00578
3.09822
3.20022
3.29755
3.37787
3.43469
3.46733
3.47988
3.47928
3.4763
3.4689
3.45373
3.43561
3.41617
3.39641
3.37647
3.35632
3.3358
3.31486
3.29346
3.27168
3.24953
3.22708
3.20432
3.18133
3.15809
3.13469
3.11121
3.08784
3.06482
3.04242
3.0211
3.00112
2.9833
2.96773
2.95601
2.94837
2.94584
5.34482
5.98738
6.02744
5.97544
5.8367
5.63937
5.64704
5.72211
5.94928
6.45475
7.4112
8.0968
8.26815
8.22276
8.07374
7.76968
7.4758
7.23624
7.054
6.91305
6.7941
6.68192
6.56907
6.4521
6.3304
6.20438
6.07487
5.94248
5.80792
5.6716
5.53417
5.39598
5.25774
5.11981
4.98291
4.84741
4.71401
4.58295
4.4549
4.33
4.20881
4.09131
3.97792
3.86852
3.76331
3.66224
3.56563
3.4733
3.38561
3.30251
3.22425
3.15091
3.08288
3.02079
2.96553
2.91809
2.88062
2.84487
2.81887
2.80189
2.80344
2.81213
2.83499
2.88304
2.96094
3.05418
3.15162
3.2398
3.30895
3.35321
3.37823
3.37997
3.37831
3.37285
3.36092
3.34239
3.32223
3.30199
3.28215
3.26252
3.24289
3.22309
3.2031
3.1829
3.16258
3.14219
3.1218
3.10147
3.08127
3.06137
3.04195
3.02336
3.00582
2.99005
2.97593
2.96533
2.95676
2.95511
2.95556
2.95886
4.01256
5.62773
5.9595
5.98557
5.9725
5.98777
6.08868
6.38358
7.01821
8.02231
8.65807
8.72408
8.65333
8.45144
8.08161
7.76282
7.50714
7.314
7.16606
7.04
6.9221
6.80409
6.68313
6.55824
6.42988
6.29869
6.16539
6.03036
5.89403
5.75664
5.61864
5.48028
5.3421
5.20439
5.06776
4.93248
4.79917
4.66801
4.53959
4.41405
4.29191
4.17315
4.05817
3.94683
3.8397
3.73641
3.63709
3.54149
3.44988
3.36217
3.27878
3.19941
3.12477
3.05481