/*--------------------------------*- C++ -*----------------------------------*\
| =========                 |                                                 |
| \\      /  F ield         | OpenFOAM: The Open Source CFD Toolbox           |
|  \\    /   O peration     | Version:  2412                                  |
|   \\  /    A nd           | Website:  www.openfoam.com                      |
|    \\/     M anipulation  |                                                 |
\*---------------------------------------------------------------------------*/
FoamFile
{
    version     2.0;
    format      ascii;
    arch        "LSB;label=32;scalar=64";
    class       surfaceScalarField;
    location    "6";
    object      phi;
}
// * * * * * * * * * * * * * * * * * * * * * * * * * * * * * * * * * * * * * //

dimensions      [1 0 -1 0 0 0 0];

oriented        oriented;

internalField   nonuniform List<scalar> 
10325
(
0.00840003
8.73802e-11
0.00840003
6.76255e-10
0.00840003
2.08231e-09
0.00840002
6.2793e-09
0.0084
1.48391e-08
0.00839995
3.99062e-08
0.00839985
8.79995e-08
0.00839951
2.43905e-07
0.00839895
5.10999e-07
0.00839686
1.56792e-06
0.00839317
3.35066e-06
0.00837864
1.22051e-05
0.00834336
3.27852e-05
0.00818607
0.000145926
0.00746675
0.000684158
0.00677227
0.000706174
0.00612243
0.000655525
0.00545804
0.000665896
0.00477532
0.000684546
0.00406279
0.000715415
0.00331203
0.000754073
0.002526
0.000789921
0.00170925
0.000820872
0.000864075
0.000847912
0.000866426
0.00840003
1.73533e-10
0.00840003
1.34653e-09
0.00840003
4.13325e-09
0.00840002
1.24952e-08
0.0084
2.94711e-08
0.00839995
7.98061e-08
0.00839985
1.74971e-07
0.00839951
4.93314e-07
0.00839894
1.02315e-06
0.00839679
3.20217e-06
0.00839297
6.79311e-06
0.00837782
2.5043e-05
0.00834076
6.72578e-05
0.00818228
0.000293181
0.00746677
0.00136378
0.00676003
0.00142519
0.00612121
0.00130008
0.0054677
0.00132087
0.0047915
0.0013627
0.00407455
0.0014353
0.00331884
0.00151309
0.00252853
0.00158417
0.00170453
0.00164914
0.00085276
0.00170254
0.00172172
0.00840003
2.51105e-10
0.00840003
1.94928e-09
0.00840003
5.95416e-09
0.00840002
1.80529e-08
0.0084
4.24854e-08
0.00839995
1.15772e-07
0.00839986
2.53273e-07
0.00839955
7.20711e-07
0.00839901
1.49596e-06
0.00839697
4.73046e-06
0.00839327
1.01012e-05
0.0083786
3.73486e-05
0.00834242
0.000100721
0.00819414
0.000430423
0.0075241
0.00199637
0.00680883
0.00215396
0.00617278
0.00194184
0.00552943
0.00196592
0.00486091
0.00203317
0.00414655
0.0021525
0.00338827
0.00227492
0.00258774
0.00238866
0.00174901
0.00249217
0.000877662
0.00257693
0.00260214
0.00840003
2.95005e-10
0.00840003
2.294e-09
0.00840003
7.05284e-09
0.00840002
2.13707e-08
0.00840001
5.01317e-08
0.00839997
1.38998e-07
0.00839992
2.90311e-07
0.00839965
9.09533e-07
0.00839938
1.69871e-06
0.0083973
6.29204e-06
0.00839437
1.26139e-05
0.0083809
4.83939e-05
0.00834812
0.000130563
0.00822155
0.000546586
0.0076536
0.0025245
0.00693242
0.00288991
0.00629403
0.00258628
0.00565798
0.0026041
0.00499753
0.00269596
0.00428569
0.00286735
0.00352492
0.00303932
0.00271493
0.00320288
0.00184629
0.00336512
0.000931723
0.00349487
0.00353702
0.00840003
3.4279e-10
0.00840003
2.65772e-09
0.00840003
8.15638e-09
0.00840002
2.47009e-08
0.00840001
5.78527e-08
0.00839998
1.60938e-07
0.00839992
3.32243e-07
0.00839968
1.0672e-06
0.00839944
1.90292e-06
0.00839766
7.5234e-06
0.00839536
1.46302e-05
0.00838456
5.67084e-05
0.00835929
0.000152753
0.00826876
0.000626614
0.00789359
0.00285692
0.00716762
0.00363307
0.00651027
0.00325104
0.00587123
0.00324524
0.00522162
0.00334738
0.00451243
0.00357968
0.00373893
0.00381695
0.00290748
0.00403894
0.00200767
0.00426971
0.00102671
0.00447961
0.00456731
0.00840003
3.80765e-10
0.00840003
2.95647e-09
0.00840003
9.04331e-09
0.00840002
2.74433e-08
0.00840001
6.43906e-08
0.00839998
1.78148e-07
0.00839993
3.74665e-07
0.00839975
1.16341e-06
0.00839949
2.1217e-06
0.00839841
8.07072e-06
0.00839701
1.57253e-05
0.00839106
6.01875e-05
0.00837974
0.000160722
0.00835177
0.000646472
0.00830952
0.00285553
0.0075756
0.00438382
0.0068516
0.00398268
0.00619518
0.00390345
0.00554547
0.00399872
0.0048406
0.00428723
0.00406038
0.00460094
0.00319653
0.00490764
0.00223449
0.00523672
0.00116725
0.00555104
0.00573868
0.00840003
3.86456e-10
0.00840003
2.98866e-09
0.00840003
9.1843e-09
0.00840003
2.76861e-08
0.00840002
6.53283e-08
0.00840001
1.75837e-07
0.00839999
3.8581e-07
0.00839998
1.09895e-06
0.00839994
2.12548e-06
0.00839993
7.58678e-06
0.0084011
1.42968e-05
0.00840328
5.56569e-05
0.00841321
0.000147714
0.00847365
0.000578219
0.00902601
0.00225955
0.00827944
0.00514665
0.00739766
0.00487683
0.00670975
0.00459786
0.00603381
0.00467893
0.00530117
0.00502304
0.0044962
0.00540964
0.00359604
0.0058122
0.00258055
0.00625814
0.0013916
0.00674502
0.0071349
0.00840003
3.79769e-10
0.00840003
2.94463e-09
0.00840003
9.1159e-09
0.00840003
2.73343e-08
0.00840003
6.46348e-08
0.00840002
1.7075e-07
0.00840002
3.79794e-07
0.00840005
1.01532e-06
0.00840002
2.09756e-06
0.00840072
6.5388e-06
0.00840228
1.26104e-05
0.00841175
4.4381e-05
0.00843348
0.000123389
0.00862167
0.000393389
0.00923899
0.0016177
0.00879127
0.00558548
0.00785486
0.00580956
0.0072499
0.00520342
0.00654462
0.00538748
0.00584281
0.00572888
0.00503056
0.00622603
0.00410537
0.00674092
0.00303189
0.00733625
0.00173043
0.00805133
0.0088701
0.00840003
3.71182e-10
0.00840003
3.47524e-09
0.00840003
1.04846e-08
0.00840002
3.19291e-08
0.00840001
7.47552e-08
0.00839997
2.00677e-07
0.00839991
4.3657e-07
0.00839971
1.18094e-06
0.00839939
2.3661e-06
0.00839868
6.99848e-06
0.00839862
1.25581e-05
0.00839661
4.52644e-05
0.00841779
9.99189e-05
0.00843608
0.00037259
0.00872469
0.00130637
0.00861884
0.00567191
0.0083615
0.00605998
0.00763366
0.00593246
0.00696347
0.00605724
0.00630572
0.00638899
0.00556823
0.00696685
0.00471238
0.00760012
0.00369679
0.00835586
0.00230077
0.00945225
0.0111757
0.00840003
1.72359e-10
0.00840003
5.20618e-09
0.00840003
8.0529e-09
0.00840002
4.50973e-08
0.00840003
5.78395e-08
0.00839994
2.9044e-07
0.00840006
3.10291e-07
0.0083994
1.8004e-06
0.00840032
1.41487e-06
0.00839618
1.09262e-05
0.00840263
5.90368e-06
0.00837577
7.10738e-05
0.00842813
4.62778e-05
0.00830994
0.000486664
0.00861602
0.000987215
0.00860237
0.00566315
0.00826747
0.00639365
0.00781979
0.00638017
0.00732272
0.00655394
0.00675552
0.00695776
0.00615426
0.00757228
0.00546079
0.00829644
0.00453366
0.00928601
0.00319642
0.0107925
0.0143759
0.00840003
5.85844e-10
0.00840003
9.18091e-10
0.00840003
8.77694e-09
0.00840007
1.00373e-08
0.00840006
6.28078e-08
0.00840029
6.00298e-08
0.00840016
4.24269e-07
0.00840166
3.00226e-07
0.00839992
3.06214e-06
0.0084092
1.56617e-06
0.00839308
2.14593e-05
0.00845207
1.0976e-05
0.00833552
0.000160289
0.00864012
0.000180323
0.00836461
0.00125531
0.00852083
0.00548185
0.00824778
0.00666913
0.00791129
0.0067189
0.00758338
0.006882
0.00718462
0.00735683
0.00677486
0.00798442
0.00629941
0.00877509
0.00585171
0.00973712
0.00580042
0.0108467
0.0115751
0.00860309
0.00840003
3.03717e-10
0.00840003
1.59312e-09
0.00840003
5.53733e-09
0.00840003
1.52128e-08
0.00840005
3.89365e-08
0.00840001
9.47367e-08
0.0084002
2.37091e-07
0.00839989
5.78596e-07
0.00840154
1.42e-06
0.00839885
4.17514e-06
0.00841064
9.7285e-06
0.00839062
3.10743e-05
0.00846963
8.06719e-05
0.00831243
0.000334204
0.00862897
0.000931822
0.00883022
0.00525368
0.00846597
0.00703828
0.00812439
0.007064
0.00782858
0.00717943
0.00755352
0.00763266
0.00726889
0.00827074
0.00702651
0.0090201
0.00693255
0.00983416
0.00732394
0.0104581
0.0105885
0.00831185
0.00840003
2.86766e-10
0.00840003
2.22542e-09
0.00840003
6.78788e-09
0.00840002
2.05864e-08
0.00840001
4.86587e-08
0.00839997
1.30894e-07
0.00839991
2.94131e-07
0.00839969
7.84112e-07
0.00839937
1.71449e-06
0.00839851
4.89295e-06
0.00839836
9.84694e-06
0.00839318
3.53415e-05
0.00840161
7.18456e-05
0.00842008
0.000312524
0.00849162
0.000854734
0.00931318
0.00440411
0.00889876
0.00745929
0.00843065
0.00753691
0.00813146
0.00748148
0.00793209
0.0078333
0.00777834
0.00842601
0.00772031
0.00908027
0.00786381
0.00969322
0.00831988
0.0100045
0.00995323
0.00895667
0.00840003
2.87127e-10
0.00840003
2.23057e-09
0.00840003
6.85748e-09
0.00840003
2.07047e-08
0.00840003
4.91106e-08
0.00840002
1.3094e-07
0.00840002
2.9551e-07
0.00840001
7.72908e-07
0.00839998
1.7203e-06
0.00840016
4.58532e-06
0.00839977
1.01054e-05
0.00840565
2.86786e-05
0.00840881
6.79945e-05
0.00849099
0.000227012
0.00870376
0.00063738
0.0102547
0.00282155
0.00966236
0.00805813
0.00908513
0.00811967
0.00861835
0.00795138
0.00836598
0.00808747
0.00827895
0.008514
0.00833732
0.00902369
0.00853993
0.00949297
0.00892341
0.009623
0.00946344
0.00941519
0.00840003
2.74788e-10
0.00840003
2.13679e-09
0.00840003
6.51277e-09
0.00840003
1.97425e-08
0.00840003
4.67413e-08
0.00840003
1.25213e-07
0.00840004
2.83038e-07
0.00840006
7.32883e-07
0.00840007
1.69391e-06
0.00840049
4.05349e-06
0.00840012
1.03661e-05
0.0084056
2.26382e-05
0.00840966
6.30915e-05
0.00846739
0.000166302
0.00857584
0.000532023
0.00936947
0.0020146
0.00979916
0.007621
0.00954674
0.00837327
0.00905253
0.00844895
0.00880621
0.00833611
0.00873392
0.0085882
0.00882589
0.00893353
0.00905431
0.00926713
0.00937088
0.00930873
0.00907943
0.00975682
0.00840003
2.08169e-10
0.00840003
1.6145e-09
0.00840003
5.01888e-09
0.00840004
1.50385e-08
0.00840005
3.57165e-08
0.00840007
9.39544e-08
0.00840014
2.11108e-07
0.00840031
5.49401e-07
0.00840081
1.17815e-06
0.00840144
3.33549e-06
0.00840512
6.57632e-06
0.00840572
2.15809e-05
0.00842526
4.30134e-05
0.0084352
0.000154141
0.00855333
0.000412399
0.00887236
0.0016881
0.00970142
0.0067679
0.00959462
0.00847765
0.00938913
0.00865549
0.00917978
0.00854894
0.00911855
0.00865144
0.00919353
0.00885905
0.00940869
0.0090531
0.00969167
0.00902775
0.00877481
0.00999818
0.00840003
1.82772e-10
0.00840003
1.41608e-09
0.00840003
4.35734e-09
0.00840003
1.31036e-08
0.00840004
3.10105e-08
0.00840005
8.2064e-08
0.00840007
1.84117e-07
0.00840013
4.79162e-07
0.00840025
1.04455e-06
0.00840067
2.85757e-06
0.00840136
5.82991e-06
0.00840418
1.83774e-05
0.00840971
3.72392e-05
0.00842989
0.000132222
0.00849604
0.000344284
0.00880918
0.00136737
0.0099969
0.00555662
0.00991024
0.00856625
0.00970212
0.00886516
0.00951181
0.00874206
0.009486
0.00867985
0.00955605
0.00879183
0.00970883
0.00889957
0.00992135
0.00881618
0.00853305
0.0101645
0.00840003
1.5015e-10
0.00840003
1.21935e-09
0.00840003
3.78116e-09
0.00840003
1.12626e-08
0.00840004
2.69416e-08
0.00840005
7.05218e-08
0.00840007
1.60148e-07
0.00840013
4.10579e-07
0.00840025
9.1515e-07
0.00840064
2.41284e-06
0.00840131
5.10241e-06
0.0084041
1.5262e-05
0.00841092
3.01513e-05
0.0084375
0.000104044
0.00851154
0.000267832
0.00892018
0.000956191
0.0110332
0.00341344
0.0105951
0.00900661
0.010347
0.00911833
0.0100076
0.00908553
0.00985161
0.00883815
0.0098869
0.00875976
0.0100154
0.00877298
0.0101607
0.00867063
0.00838056
0.0103137
0.00840003
6.02199e-11
0.00840003
1.28232e-09
0.00840003
2.43576e-09
0.00840003
1.12321e-08
0.00840004
1.79589e-08
0.00840004
6.99821e-08
0.00840009
1.08092e-07
0.00840008
4.09814e-07
0.00840038
6.11375e-07
0.00840031
2.44375e-06
0.00840222
3.14976e-06
0.00840167
1.56025e-05
0.00841637
1.51931e-05
0.00841446
0.000104945
0.00855716
0.000123556
0.00872557
0.000783819
0.0100765
0.00205226
0.0111385
0.00792825
0.0108837
0.00937256
0.0105343
0.00943747
0.0102556
0.00911958
0.0101789
0.00883901
0.0102584
0.00869583
0.0103823
0.008548
0.00827305
0.0104898
0.00840003
1.08212e-10
0.00840003
6.33905e-10
0.00840003
2.31096e-09
0.00840004
6.04421e-09
0.00840004
1.62914e-08
0.00840007
3.7718e-08
0.00840008
9.57668e-08
0.00840027
2.15584e-07
0.00840031
5.57494e-07
0.00840156
1.18498e-06
0.00840116
3.47801e-06
0.00841003
6.69522e-06
0.00840254
2.2258e-05
0.00846206
4.52147e-05
0.00842469
0.000159119
0.00879662
0.000410283
0.00910462
0.00173686
0.0108995
0.00611324
0.0110645
0.00920679
0.0109297
0.00957245
0.0106414
0.00940983
0.010501
0.00898076
0.0104871
0.00871104
0.0105579
0.00847852
0.0081881
0.0106433
0.00840003
1.35269e-10
0.00840003
3.91571e-10
0.00840003
2.29974e-09
0.00840003
4.00109e-09
0.00840003
1.58988e-08
0.00840004
2.53818e-08
0.00840004
9.38043e-08
0.00840011
1.45799e-07
0.00840012
5.38662e-07
0.00840049
8.10354e-07
0.00840075
3.16362e-06
0.00840299
4.38959e-06
0.00840484
2.01057e-05
0.00842395
2.56403e-05
0.0084442
0.000137474
0.0086053
0.000246671
0.00927007
0.00106687
0.0114117
0.00394777
0.0114974
0.0091182
0.0114296
0.009643
0.0112078
0.0096335
0.0109385
0.00925118
0.010817
0.00883278
0.0107871
0.00850964
0.00817097
0.0108049
0.00840003
4.84647e-11
0.00840003
5.34174e-10
0.00840003
1.22094e-09
0.00840003
4.8196e-09
0.00840004
8.83687e-09
0.00840003
3.02019e-08
0.00840007
5.31027e-08
0.00840004
1.76444e-07
0.00840027
3.06882e-07
0.00840004
1.022e-06
0.00840143
1.75483e-06
0.00839971
6.03441e-06
0.00840964
1.0056e-05
0.00839766
3.72033e-05
0.00847092
6.34522e-05
0.00845149
0.000264162
0.00894483
0.000573048
0.0106029
0.00228265
0.0117414
0.00796496
0.0116629
0.00972145
0.0114802
0.00981724
0.0112386
0.00949448
0.0111398
0.00893229
0.0110742
0.00857545
0.00821483
0.0110312
0.00840003
6.64646e-11
0.00840003
2.57177e-10
0.00840003
1.27588e-09
0.00840003
2.53866e-09
0.00840003
8.92988e-09
0.00840005
1.61353e-08
0.00840005
5.3023e-08
0.00840013
9.39673e-08
0.00840012
3.0518e-07
0.00840061
5.36973e-07
0.00840057
1.77401e-06
0.00840357
3.01323e-06
0.00840256
1.09373e-05
0.00842284
1.68329e-05
0.00841237
7.33651e-05
0.00855979
0.000116017
0.00856768
0.000563329
0.00935053
0.00149342
0.0117918
0.005516
0.0119562
0.0095539
0.0118937
0.00987517
0.0116636
0.00972182
0.0114041
0.00919097
0.0113152
0.00866453
0.00827023
0.0112605
0.00840003
2.34948e-11
0.00840003
2.79391e-10
0.00840003
6.27908e-10
0.00840003
2.50741e-09
0.00840004
4.54873e-09
0.00840004
1.5584e-08
0.00840006
2.7144e-08
0.00840006
8.99357e-08
0.00840021
1.55109e-07
0.00840023
5.12537e-07
0.00840112
8.7859e-07
0.00840116
2.96233e-06
0.00840716
4.92852e-06
0.00840543
1.83181e-05
0.00845159
2.81064e-05
0.0084419
0.000123365
0.00878442
0.000223195
0.00931689
0.000955727
0.0119022
0.00289471
0.0125539
0.00890667
0.0124631
0.00997056
0.0121443
0.0100425
0.0117799
0.00955509
0.0115774
0.00886654
0.00837913
0.0114687
0.00840003
2.65017e-11
0.00840003
1.51833e-10
0.00840003
5.645e-10
0.00840003
1.44936e-09
0.00840003
3.98769e-09
0.00840004
9.1018e-09
0.00840004
2.35577e-08
0.00840008
5.23802e-08
0.0084001
1.33711e-07
0.00840032
2.94908e-07
0.00840043
7.57164e-07
0.00840172
1.64892e-06
0.00840208
4.44028e-06
0.00841081
9.29515e-06
0.00841142
2.75538e-05
0.00847276
5.81552e-05
0.008503
0.000194774
0.00894255
0.000503086
0.00979317
0.00204823
0.0121832
0.00648651
0.012512
0.00963972
0.0126202
0.00993568
0.0122565
0.00992207
0.0119282
0.00919487
0.00859503
0.0117118
0.00840003
2.77617e-11
0.00840003
9.08124e-11
0.00840003
4.85255e-10
0.00840003
9.16724e-10
0.00840003
3.36064e-09
0.00840003
5.81874e-09
0.00840004
1.97923e-08
0.00840006
3.36448e-08
0.00840007
1.12705e-07
0.00840018
1.90041e-07
0.0084003
6.38179e-07
0.00840089
1.06078e-06
0.00840171
3.66117e-06
0.00840506
5.81658e-06
0.00840989
2.21986e-05
0.00843775
3.3227e-05
0.008484
0.000145114
0.00870885
0.000286504
0.00959875
0.00113481
0.0121109
0.00395624
0.0127564
0.00899205
0.0128544
0.00984138
0.0127482
0.0100287
0.0123536
0.00958919
0.00887944
0.0120687
0.00840003
9.80662e-12
0.00840003
1.00974e-10
0.00840003
2.42267e-10
0.00840003
9.12991e-10
0.00840003
1.74345e-09
0.00840003
5.67961e-09
0.00840004
1.03841e-08
0.00840004
3.27641e-08
0.00840009
5.93597e-08
0.0084001
1.86271e-07
0.00840039
3.36374e-07
0.00840038
1.06027e-06
0.00840212
1.90629e-06
0.00840179
6.10602e-06
0.00841281
1.09978e-05
0.00840908
3.6633e-05
0.00848456
6.86277e-05
0.00851628
0.000253027
0.00905907
0.000589651
0.0108564
0.00215633
0.0126989
0.00713681
0.0128884
0.00965083
0.0129673
0.00994876
0.0126818
0.00987408
0.00917383
0.0123892
0.00840003
1.22972e-11
0.00840003
4.72204e-11
0.00840003
2.30966e-10
0.00840003
4.68055e-10
0.00840003
1.61116e-09
0.00840003
2.96939e-09
0.00840003
9.51063e-09
0.00840005
1.72254e-08
0.00840005
5.42064e-08
0.00840014
9.79258e-08
0.00840017
3.0711e-07
0.00840067
5.54217e-07
0.00840081
1.74821e-06
0.00840377
3.12291e-06
0.00840429
1.03191e-05
0.00842364
1.72863e-05
0.00842485
6.65499e-05
0.00856802
0.000109603
0.00866909
0.000485693
0.00960259
0.00122058
0.0124863
0.00423015
0.0130877
0.00903898
0.0131474
0.00988759
0.0130724
0.00994876
0.00957384
0.0126739
0.00840003
5.76116e-12
0.00840003
4.09643e-11
0.00840003
1.27447e-10
0.00840003
3.81904e-10
0.00840003
9.06088e-10
0.00840003
2.38202e-09
0.00840004
5.35588e-09
0.00840004
1.36641e-08
0.00840006
3.0367e-08
0.00840008
7.68759e-08
0.00840022
1.70333e-07
0.00840034
4.3068e-07
0.00840112
9.53378e-07
0.00840178
2.43548e-06
0.00840673
5.3342e-06
0.00840941
1.43964e-05
0.00844522
3.05326e-05
0.00846108
9.28003e-05
0.00873307
0.000212118
0.00920174
0.000748945
0.0112758
0.00214602
0.0131469
0.00715046
0.013298
0.00973293
0.0133109
0.00993442
0.00984131
0.013044
0.00840003
2.39476e-12
0.00840003
3.35781e-11
0.00840003
7.60456e-11
0.00840003
2.98001e-10
0.00840003
5.51645e-10
0.00840003
1.83769e-09
0.00840003
3.27833e-09
0.00840004
1.05151e-08
0.00840005
1.86321e-08
0.00840006
5.91847e-08
0.00840013
1.04676e-07
0.00840022
3.32251e-07
0.00840059
5.85348e-07
0.00840113
1.87411e-06
0.00840318
3.25202e-06
0.00840658
1.08743e-05
0.00841913
1.78427e-05
0.00844273
6.84929e-05
0.00854237
0.000111832
0.00879811
0.000490517
0.00967285
0.00126652
0.0126306
0.00417276
0.0134193
0.00893847
0.013552
0.00980143
0.00998635
0.013406
0.00840003
2.90986e-12
0.00840003
1.67765e-11
0.00840003
6.19812e-11
0.00840003
1.59958e-10
0.00840003
4.3662e-10
0.00840003
9.9957e-10
0.00840003
2.56465e-09
0.00840004
5.72419e-09
0.00840004
1.44657e-08
0.00840007
3.21141e-08
0.00840009
8.08e-08
0.00840024
1.79145e-07
0.00840037
4.50387e-07
0.00840124
9.98196e-07
0.00840192
2.52907e-06
0.0084072
5.56145e-06
0.00841008
1.476e-05
0.00844674
3.16106e-05
0.00846453
9.30772e-05
0.00873821
0.000215294
0.00925945
0.000741856
0.0113205
0.00210137
0.0133858
0.00685603
0.0135559
0.00962881
0.00981168
0.013729
0.00840003
2.61027e-12
0.00840003
9.54058e-12
0.00840003
4.679e-11
0.00840003
9.51125e-11
0.00840003
3.23527e-10
0.00840003
6.00061e-10
0.00840003
1.89139e-09
0.00840003
3.44628e-09
0.00840004
1.0658e-08
0.00840005
1.93615e-08
0.00840007
5.95707e-08
0.00840014
1.08096e-07
0.00840025
3.32682e-07
0.00840065
6.01582e-07
0.00840129
1.86602e-06
0.00840349
3.32579e-06
0.00840737
1.07509e-05
0.00842068
1.81496e-05
0.00844655
6.6468e-05
0.00854896
0.00011219
0.00882266
0.00046523
0.00974655
0.00117295
0.0127776
0.00380256
0.0137158
0.00868335
0.00972316
0.0138029
0.00840003
8.61608e-13
0.00840003
8.67636e-12
0.00840003
2.16422e-11
0.00840003
7.84591e-11
0.00840003
1.5531e-10
0.00840003
4.8426e-10
0.00840003
9.16781e-10
0.00840003
2.75706e-09
0.00840004
5.17447e-09
0.00840004
1.54059e-08
0.00840007
2.88796e-08
0.00840009
8.57148e-08
0.00840026
1.60555e-07
0.00840038
4.76969e-07
0.00840135
8.91216e-07
0.00840196
2.68035e-06
0.00840776
4.90849e-06
0.00840995
1.57528e-05
0.0084491
2.71412e-05
0.0084596
0.000100607
0.00874225
0.000181559
0.00915793
0.000753805
0.0109445
0.00200745
0.0134691
0.00614076
0.00934215
0.0138465
0.00840003
7.35518e-13
0.00840003
4.37122e-12
0.00840003
1.6042e-11
0.00840003
4.14694e-11
0.00840003
1.12849e-10
0.00840003
2.58201e-10
0.00840003
6.60644e-10
0.00840003
1.47127e-09
0.00840003
3.70872e-09
0.00840004
8.20523e-09
0.00840005
2.06036e-08
0.00840009
4.54832e-08
0.00840013
1.14135e-07
0.00840036
2.51526e-07
0.0084006
6.32551e-07
0.00840188
1.39306e-06
0.00840319
3.54246e-06
0.00841111
7.7724e-06
0.00841727
2.06328e-05
0.0084724
4.52268e-05
0.00852115
0.000131039
0.00894838
0.000324965
0.00983109
0.0011175
0.0127626
0.00318554
0.00812455
0.0139731
0.00840003
5.10738e-13
0.00840003
2.77384e-12
0.00840003
1.02339e-11
0.00840003
2.64414e-11
0.00840003
7.16067e-11
0.00840003
1.64588e-10
0.00840003
4.18026e-10
0.00840003
9.36e-10
0.00840003
2.34107e-09
0.00840004
5.20951e-09
0.00840004
1.29761e-08
0.00840006
2.88267e-08
0.0084001
7.17061e-08
0.00840019
1.59081e-07
0.00840042
3.95925e-07
0.00840093
8.76108e-07
0.00840224
2.20199e-06
0.00840519
4.78498e-06
0.00841289
1.27434e-05
0.00843195
2.59735e-05
0.00848134
8.06542e-05
0.00863804
0.000167202
0.00913637
0.000615675
0.0106457
0.00166782
0.00534412
0.0134066
0.00840003
4.00762e-13
0.00840003
1.48131e-12
0.00840003
7.13348e-12
0.00840003
1.47945e-11
0.00840003
4.92024e-11
0.00840003
9.29269e-11
0.00840003
2.8575e-10
0.00840003
5.29542e-10
0.00840003
1.59622e-09
0.00840003
2.94804e-09
0.00840004
8.8339e-09
0.00840005
1.63124e-08
0.00840007
4.87823e-08
0.00840014
9.00295e-08
0.00840026
2.69474e-07
0.00840064
4.95758e-07
0.00840133
1.49421e-06
0.00840338
2.7138e-06
0.00840756
8.46e-06
0.00841874
1.46958e-05
0.00844862
5.0233e-05
0.00852724
8.80528e-05
0.00881697
0.000323997
0.00968155
0.000800046
0.00251626
0.0125015
0.00840003
1.61368e-13
0.00840003
1.14168e-12
0.00840003
3.57637e-12
0.00840003
1.06269e-11
0.00840003
2.52635e-11
0.00840003
6.56606e-11
0.00840003
1.47498e-10
0.00840003
3.71372e-10
0.00840003
8.23591e-10
0.00840003
2.05553e-09
0.00840004
4.54682e-09
0.00840004
1.13083e-08
0.00840006
2.50106e-08
0.00840009
6.20599e-08
0.00840022
1.37267e-07
0.00840037
3.40212e-07
0.00840111
7.52284e-07
0.00840191
1.88126e-06
0.00840625
4.09613e-06
0.00840991
1.08652e-05
0.00843768
2.23273e-05
0.00845694
6.79114e-05
0.00864099
0.000139093
0.00894157
0.000496125
0.00128713
0.0101657
0.00840003
6.95169e-14
0.00840003
8.10726e-13
0.00840003
1.98055e-12
0.00840003
7.23015e-12
0.00840003
1.42026e-11
0.00840003
4.42327e-11
0.00840003
8.32692e-11
0.00840003
2.49673e-10
0.00840003
4.65798e-10
0.00840003
1.38269e-09
0.00840003
2.57549e-09
0.00840004
7.62199e-09
0.00840005
1.41946e-08
0.00840007
4.19752e-08
0.00840013
7.81051e-08
0.00840023
2.3129e-07
0.00840055
4.29173e-07
0.00840114
1.27916e-06
0.00840286
2.35485e-06
0.00840647
7.16041e-06
0.00841558
1.30816e-05
0.00844175
4.12445e-05
0.0085007
7.93455e-05
0.00873305
0.000261415
0.000655618
0.00936224
0.00840003
7.85759e-14
0.00840003
3.36997e-13
0.00840003
1.5155e-12
0.00840003
3.29422e-12
0.00840003
1.04992e-11
0.00840003
2.05492e-11
0.00840003
6.08474e-11
0.00840003
1.16473e-10
0.00840003
3.38439e-10
0.00840003
6.44872e-10
0.00840003
1.86341e-09
0.00840004
3.54922e-09
0.00840004
1.02325e-08
0.00840006
1.95011e-08
0.00840008
5.61603e-08
0.00840021
1.07071e-07
0.00840032
3.08513e-07
0.00840101
5.87881e-07
0.00840163
1.70212e-06
0.00840553
3.22327e-06
0.00840883
9.60619e-06
0.00843223
1.76603e-05
0.0084531
5.74954e-05
0.00860802
0.000105553
0.000380122
0.00887935
0.00840003
3.3398e-14
0.00840003
2.36002e-13
0.00840003
7.3777e-13
0.00840003
2.19233e-12
0.00840003
5.19769e-12
0.00840003
1.34821e-11
0.00840003
3.01722e-11
0.00840003
7.5729e-11
0.00840003
1.67154e-10
0.00840003
4.15725e-10
0.00840003
9.1458e-10
0.00840003
2.26691e-09
0.00840004
4.98379e-09
0.00840004
1.23266e-08
0.00840007
2.70966e-08
0.00840011
6.68985e-08
0.00840027
1.46981e-07
0.00840049
3.6264e-07
0.00840138
7.95981e-07
0.00840256
1.98393e-06
0.00840782
4.28073e-06
0.00841381
1.13419e-05
0.00844775
2.31988e-05
0.00848151
7.00925e-05
0.000143751
0.00871579
0.00840003
1.23964e-14
0.00840003
1.56948e-13
0.00840003
3.66474e-13
0.00840003
1.38913e-12
0.00840003
2.617e-12
0.00840003
8.42137e-12
0.00840003
1.51345e-11
0.00840003
4.69117e-11
0.00840003
8.30525e-11
0.00840003
2.55634e-10
0.00840003
4.48913e-10
0.00840003
1.38336e-09
0.00840003
2.41243e-09
0.00840004
7.46222e-09
0.00840005
1.29153e-08
0.00840008
4.01719e-08
0.00840015
6.88653e-08
0.00840029
2.16047e-07
0.00840071
3.65486e-07
0.00840148
1.16508e-06
0.00840378
1.92415e-06
0.00840846
6.37995e-06
0.00842129
1.00882e-05
0.00845331
3.65963e-05
5.83724e-05
0.00853693
0.00840003
1.39609e-14
0.00840003
5.48282e-14
0.00840003
2.66483e-13
0.00840003
5.34055e-13
0.00840003
1.8278e-12
0.00840003
3.27256e-12
0.00840003
1.04283e-11
0.00840003
1.80559e-11
0.00840003
5.6808e-11
0.00840003
9.66732e-11
0.00840003
3.05186e-10
0.00840003
5.12057e-10
0.00840003
1.63038e-09
0.00840004
2.69676e-09
0.00840004
8.68309e-09
0.00840007
1.41373e-08
0.00840008
4.61734e-08
0.00840022
7.37463e-08
0.00840032
2.45558e-07
0.00840108
3.80551e-07
0.00840156
1.3215e-06
0.00840593
1.88478e-06
0.00840787
7.46122e-06
0.00843512
8.70156e-06
4.42416e-05
0.00844543
0.00840003
2.58162e-15
0.00840003
4.38301e-14
0.00840003
8.21171e-14
0.00840003
3.83203e-13
0.00840003
5.8088e-13
0.00840003
2.29844e-12
0.00840003
3.25149e-12
0.00840003
1.25812e-11
0.00840003
1.69885e-11
0.00840003
6.69444e-11
0.00840003
8.62404e-11
0.00840003
3.51502e-10
0.00840003
4.29076e-10
0.00840003
1.82696e-09
0.00840004
2.08971e-09
0.00840004
9.40449e-09
0.00840008
9.897e-09
0.00840009
4.80259e-08
0.00840029
4.50854e-08
0.00840038
2.47172e-07
0.00840145
1.89102e-07
0.0084017
1.37375e-06
0.00840838
6.22971e-07
0.00840669
8.88132e-06
-1.53081e-07
0.00844952
0.00840003
2.86278e-15
0.00840003
1.51893e-14
0.00840003
5.66807e-14
0.00840003
1.44144e-13
0.00840003
3.88695e-13
0.00840003
8.732e-13
0.00840003
2.18996e-12
0.00840003
4.76337e-12
0.00840003
1.16901e-11
0.00840003
2.51888e-11
0.00840003
6.12142e-11
0.00840003
1.31536e-10
0.00840003
3.16762e-10
0.00840003
6.80126e-10
0.00840003
1.61942e-09
0.00840004
3.47301e-09
0.00840003
8.1717e-09
0.00840006
1.74387e-08
0.00840004
4.07943e-08
0.00840018
8.65968e-08
0.00840005
2.01689e-07
0.00840087
4.30178e-07
0.00839986
9.89568e-07
0.00840598
2.20121e-06
5.32922e-06
0.00839701
0.00840003
4.43989e-15
0.00840003
-1.63956e-15
0.00840003
4.8513e-14
0.00840003
7.49577e-15
0.00840003
3.21876e-13
0.00840003
5.23339e-14
0.00840003
1.85761e-12
0.00840003
1.73473e-13
0.00840003
1.04239e-11
0.00840003
9.97613e-14
0.00840003
5.84794e-11
0.00840003
-3.77628e-12
0.00840003
3.30555e-10
0.00840003
-3.95932e-11
0.00840003
1.88615e-09
0.00840003
-2.949e-10
0.00840002
1.08765e-08
0.00840004
-2.00531e-09
0.00839999
6.36019e-08
0.00840007
-1.56034e-08
0.00839979
3.82082e-07
0.00840027
-1.80032e-07
0.0083981
2.61062e-06
0.0084028
-2.95042e-06
2.07978e-05
0.00838405
0.00840003
1.02365e-15
0.00840003
1.53301e-15
0.00840003
1.38012e-14
0.00840003
1.86238e-14
0.00840003
9.34209e-14
0.00840003
1.13134e-13
0.00840003
5.33858e-13
0.00840003
5.68302e-13
0.00840003
2.93424e-12
0.00840003
2.66667e-12
0.00840003
1.60861e-11
0.00840003
1.21999e-11
0.00840003
8.89556e-11
0.00840003
5.59684e-11
0.00840003
4.97706e-10
0.00840003
2.6334e-10
0.00840003
2.81829e-09
0.00840002
1.25632e-09
0.00840006
1.61712e-08
0.00839999
5.60413e-09
0.00840023
9.40924e-08
0.00839978
2.17637e-08
0.00840158
5.91935e-07
0.00839731
-1.34615e-07
4.65411e-06
0.00841221
0.00840003
-1.49972e-16
0.00840003
5.0874e-15
0.00840003
8.48616e-15
0.00840003
4.29358e-14
0.00840003
6.23086e-14
0.00840003
2.61945e-13
0.00840003
3.63276e-13
0.00840003
1.50571e-12
0.00840003
2.0164e-12
0.00840003
8.56082e-12
0.00840003
1.10869e-11
0.00840003
4.86676e-11
0.00840003
6.10877e-11
0.00840003
2.77252e-10
0.00840003
3.37407e-10
0.00840003
1.5808e-09
0.00840003
1.84423e-09
0.00840001
8.98903e-09
0.00840001
9.50442e-09
0.00839992
5.08079e-08
0.00839992
3.46256e-08
0.00839941
2.97067e-07
0.00839975
-5.61695e-08
0.00839632
1.88775e-06
-2.14295e-06
0.00840198
0.00840003
-1.62782e-15
0.00840003
1.01198e-14
0.00840003
-3.41711e-15
0.00840003
7.6454e-14
0.00840003
-1.61488e-14
0.00840003
4.64349e-13
0.00840003
-9.19312e-14
0.00840003
2.70545e-12
0.00840003
-5.70689e-13
0.00840003
1.56074e-11
0.00840003
-3.63288e-12
0.00840003
8.96439e-11
0.00840003
-2.332e-11
0.00840003
5.13519e-10
0.00840003
-1.51268e-10
0.00840003
2.93927e-09
0.00840003
-1.01032e-09
0.00840001
1.68655e-08
0.00840002
-7.2593e-09
0.00839993
9.80319e-08
0.00839999
-7.32032e-08
0.00839943
6.37537e-07
0.00840012
-1.01285e-06
0.00839585
4.87559e-06
-1.15534e-05
0.00840412
0.00840003
2.07961e-15
0.00840003
-7.01758e-15
0.00840003
1.45374e-14
0.00840003
-4.73815e-14
0.00840003
9.01697e-14
0.00840003
-2.84548e-13
0.00840003
5.2292e-13
0.00840003
-1.68552e-12
0.00840003
2.99485e-12
0.00840003
-9.95581e-12
0.00840003
1.71162e-11
0.00840003
-5.86072e-11
0.00840003
9.80279e-11
0.00840003
-3.4386e-10
0.00840003
5.65371e-10
0.00840003
-2.01508e-09
0.00840002
3.31494e-09
0.00840005
-1.18576e-08
0.00839999
2.01991e-08
0.00840014
-7.13051e-08
0.00839979
1.42224e-07
0.00840074
-5.0183e-07
0.00839775
1.36467e-06
0.00840583
-4.24882e-06
1.32556e-05
0.00837799
0.00840003
0.00840003
0.00840003
0.00840003
0.00840003
0.00840003
0.00840003
0.00840003
0.00840003
0.00840003
0.00840003
0.00840003
0.00840003
0.00840003
0.00840003
0.00840003
0.00840003
0.00840001
0.00840002
0.00839991
0.0084
0.00839928
0.00840037
0.00839482
0.00840702
0.00441536
0.0041867
0.00240332
0.00200908
0.0012973
0.00110158
-0.000279857
0.00157084
-0.00109998
0.000814468
-0.00166656
0.000562691
-0.00203998
0.000368209
-0.00223002
0.000184786
-0.0022969
6.15442e-05
-0.00240526
0.000103364
-0.00255179
0.000141455
-0.00269434
0.000137286
-0.00280952
0.000109664
-0.00290051
8.54652e-05
-0.00298661
8.08172e-05
-0.00307189
7.99255e-05
-0.00315322
7.60003e-05
-0.00322769
6.92422e-05
-0.00329134
5.87439e-05
-0.00333886
4.30271e-05
-0.0033689
2.62139e-05
-0.00339305
1.99101e-05
-0.00343272
3.4716e-05
-0.0034749
3.7186e-05
-0.00350939
2.93702e-05
-0.00353437
1.82402e-05
-0.00354127
-2.28235e-06
-0.00351498
-3.72159e-05
-0.00344384
-8.37932e-05
-0.00332943
-0.000127506
-0.00317902
-0.000163603
-0.00299892
-0.0001922
-0.00279712
-0.000214462
-0.00257183
-0.000237336
-0.00233719
-0.000246554
-0.00209506
-0.000253223
-0.00184898
-0.000257226
-0.00159675
-0.000262978
-0.00133932
-0.000268109
-0.00107767
-0.000272241
-0.000819892
-0.000268395
-0.000561992
-0.000268392
-0.000303061
-0.000268841
-3.89023e-05
-0.00027361
0.000208195
-0.000256813
0.000442621
-0.000244177
0.000667245
-0.00023373
0.000883161
-0.000224512
0.00109105
-0.000216179
0.00129079
-0.000207846
0.00148261
-0.00019936
0.00166661
-0.000190982
0.00184176
-0.000181882
0.00200781
-0.000172621