/*--------------------------------*- C++ -*----------------------------------*\
| =========                 |                                                 |
| \\      /  F ield         | OpenFOAM: The Open Source CFD Toolbox           |
|  \\    /   O peration     | Version:  2412                                  |
|   \\  /    A nd           | Website:  www.openfoam.com                      |
|    \\/     M anipulation  |                                                 |
\*---------------------------------------------------------------------------*/
FoamFile
{
    version     2.0;
    format      ascii;
    arch        "LSB;label=32;scalar=64";
    class       volScalarField;
    location    "6";
    object      T;
}
// * * * * * * * * * * * * * * * * * * * * * * * * * * * * * * * * * * * * * //

dimensions      [0 0 0 1 0 0 0];

internalField   nonuniform List<scalar> 
5250
(
1.00001
1.00002
1.00007
1.00012
1.00039
1.00073
1.00213
1.00454
1.01156
1.03109
1.06917
1.2174
1.50195
2.30513
2.68467
2.7442
2.74044
2.74081
2.75426
2.7666
2.77697
2.7842
2.7872
2.79052
2.79267
1.00001
1.00002
1.00007
1.00012
1.00039
1.00072
1.0021
1.00447
1.01139
1.03059
1.06811
1.21382
1.49359
2.29222
2.68054
2.74427
2.74012
2.7403
2.75339
2.76549
2.77561
2.78278
2.78554
2.78792
2.78981
1.00001
1.00002
1.00006
1.00012
1.00037
1.0007
1.00204
1.00432
1.01103
1.02954
1.06594
1.20614
1.47541
2.26211
2.66947
2.74302
2.73851
2.73798
2.75097
2.763
2.77302
2.77943
2.78302
2.78579
2.78662
1.00001
1.00002
1.00006
1.00011
1.00036
1.00066
1.00194
1.0041
1.01049
1.02796
1.06269
1.19446
1.4477
2.2128
2.65073
2.74025
2.73552
2.73322
2.74612
2.75825
2.76902
2.77578
2.77736
2.78117
2.78277
1.00001
1.00002
1.00006
1.0001
1.00034
1.00062
1.00184
1.00381
1.00991
1.02571
1.05842
1.17873
1.41107
2.13912
2.6252
2.73547
2.73053
2.72476
2.7385
2.74861
2.75904
2.76912
2.77238
2.77324
2.77402
1.00001
1.00002
1.00005
1.0001
1.00031
1.00057
1.00174
1.00346
1.00929
1.02293
1.05334
1.15981
1.36718
2.03955
2.5875
2.72803
2.72348
2.71565
2.73057
2.74117
2.7486
2.75482
2.7589
2.7646
2.76559
1.00001
1.00001
1.00005
1.00009
1.00029
1.00052
1.00161
1.00309
1.00855
1.01997
1.04778
1.13931
1.31892
1.92634
2.53377
2.71178
2.70707
2.69825
2.71292
2.72793
2.73905
2.74477
2.74772
2.74692
2.74695
1.00001
1.00001
1.00004
1.00008
1.00026
1.00047
1.00147
1.00274
1.00792
1.01726
1.04322
1.11936
1.27815
1.7471
2.51911
2.68855
2.68484
2.67732
2.6952
2.70336
2.71587
2.72317
2.72571
2.72866
2.72503
1.00001
1.00001
1.00004
1.00007
1.00023
1.00042
1.00133
1.00245
1.00731
1.01515
1.03963
1.10438
1.2465
1.6799
2.52025
2.67774
2.66043
2.6635
2.67316
2.68763
2.69911
2.70295
2.69996
2.69206
2.6745
1
1.00001
1.00003
1.00006
1.0002
1.00037
1.00115
1.00217
1.00634
1.01344
1.03493
1.09295
1.2171
1.61949
2.47802
2.65404
2.65371
2.64744
2.64814
2.66052
2.66808
2.67248
2.66768
2.64825
2.59622
1
1.00001
1.00002
1.00006
1.00012
1.00034
1.00076
1.00187
1.00494
1.01106
1.03237
1.06769
1.2221
1.51337
2.29518
2.62755
2.65776
2.64567
2.63448
2.63664
2.64106
2.63719
2.61946
2.57122
2.38951
1
1.00001
1.00003
1.00005
1.00015
1.00028
1.00084
1.00166
1.00447
1.01056
1.02521
1.07238
1.1537
1.4998
2.22645
2.54845
2.6464
2.63753
2.62301
2.61323
2.6103
2.60088
2.57472
2.51695
2.32818
1
1.00001
1.00002
1.00004
1.00014
1.00024
1.00078
1.00141
1.0044
1.00852
1.02353
1.05729
1.13457
1.39204
2.07152
2.48619
2.63157
2.62295
2.61169
2.59719
2.5811
2.56062
2.52507
2.47401
2.32884
1
1.00001
1.00002
1.00004
1.00011
1.00021
1.00065
1.00118
1.00368
1.00699
1.02011
1.04446
1.11273
1.29708
1.86409
2.39145
2.59464
2.58489
2.58428
2.57769
2.56194
2.5348
2.48709
2.44311
2.3328
1
1
1.00002
1.00003
1.00009
1.00017
1.00054
1.00097
1.00302
1.00568
1.01648
1.03605
1.0902
1.24131
1.66358
2.33487
2.56784
2.56356
2.55437
2.54665
2.53546
2.51301
2.45728
2.41556
2.33095
1
1
1.00001
1.00002
1.00007
1.00013
1.00041
1.00076
1.00224
1.00459
1.0119
1.03052
1.06928
1.20951
1.48905
2.21002
2.51659
2.54757
2.53385
2.52213
2.50642
2.49082
2.44809
2.3987
2.32647
1
1
1.00001
1.00002
1.00006
1.00011
1.00034
1.00061
1.00187
1.00362
1.0099
1.02349
1.05548
1.16331
1.37415
1.99868
2.43346
2.53202
2.52005
2.50742
2.47986
2.45696
2.42598
2.38785
2.32593
1
1
1.00001
1.00001
1.00005
1.00008
1.00026
1.00047
1.00148
1.00278
1.00788
1.01746
1.04296
1.12044
1.2732
1.79981
2.27485
2.49004
2.49767
2.49167
2.47109
2.44096
2.40121
2.36326
2.31973
1
1
1.00001
1.00001
1.00003
1.00006
1.0002
1.00036
1.00112
1.00209
1.00614
1.01274
1.03318
1.08665
1.19893
1.55804
2.24735
2.41695
2.44639
2.44745
2.4425
2.42658
2.39283
2.35002
2.30459
1
1
1
1.00001
1.00002
1.00006
1.00011
1.00033
1.00064
1.00176
1.00389
1.00953
1.02572
1.05668
1.17226
1.38841
2.03928
2.37765
2.43174
2.42618
2.41054
2.39533
2.37802
2.34323
2.30032
1
1
1
1.00001
1.00001
1.00005
1.00008
1.00026
1.00048
1.00149
1.0028
1.008
1.01744
1.04343
1.11825
1.27605
1.7109
2.2499
2.40959
2.40584
2.39246
2.36822
2.34479
2.32444
2.29356
1
1
1
1
1.00001
1.00003
1.00008
1.00015
1.00045
1.00086
1.00254
1.00504
1.01402
1.03067
1.08116
1.19116
1.59928
2.04052
2.34397
2.38637
2.38108
2.3625
2.33137
2.30078
2.27374
1
1
1
1
1.00001
1.00002
1.00004
1.00013
1.00025
1.00074
1.00144
1.00398
1.0088
1.02166
1.05882
1.1283
1.38448
1.97031
2.21085
2.32019
2.34596
2.34343
2.32765
2.29554
2.26355
1
1
1
1
1.00001
1.00001
1.00004
1.00007
1.00022
1.00041
1.00123
1.00239
1.00657
1.01466
1.03581
1.09576
1.2222
1.5699
2.14864
2.29026
2.30282
2.302
2.29859
2.28446
2.2574
1
1
1
1
1
1.00001
1.00002
1.00007
1.00012
1.00037
1.00069
1.00202
1.00406
1.01074
1.02563
1.06064
1.16793
1.4019
1.96124
2.25429
2.28983
2.28599
2.26944
2.25511
2.24242
1
1
1
1
1
1.00001
1.00002
1.00005
1.00009
1.00026
1.00048
1.00148
1.00275
1.00799
1.01678
1.04201
1.10925
1.25949
1.64675
2.12883
2.26829
2.26687
2.25492
2.23386
2.2105
1
1
1
1
1
1
1.00001
1.00002
1.00007
1.00014
1.00042
1.00079
1.00231
1.00454
1.01265
1.02695
1.07228
1.16399
1.50992
1.90894
2.19959
2.24746
2.24465
2.22747
2.20301
1
1
1
1
1
1
1.00001
1.00002
1.00004
1.00012
1.00022
1.00066
1.00124
1.00363
1.00725
1.01919
1.04636
1.10725
1.29323
1.77605
2.0621
2.19074
2.2134
2.20878
2.19549
1
1
1
1
1
1
1.00001
1.00001
1.00003
1.00006
1.00018
1.00034
1.00101
1.0019
1.0054
1.01128
1.02864
1.07338
1.16406
1.44804
1.96254
2.14107
2.17938
2.18469
2.17778
1
1
1
1
1
1
1
1.00001
1.00002
1.00004
1.00012
1.00022
1.00068
1.00124
1.00374
1.00714
1.01985
1.04434
1.10733
1.28192
1.75691
2.03307
2.1481
2.15581
2.15124
1
1
1
1
1
1
1
1.00001
1.00001
1.00003
1.00006
1.00018
1.00033
1.00098
1.00184
1.0053
1.01083
1.02788
1.06912
1.1584
1.42112
1.91166
2.09353
2.13475
2.13401
1
1
1
1
1
1
1
1
1.00001
1.00002
1.00004
1.00012
1.00021
1.00064
1.00117
1.00351
1.00669
1.01861
1.04105
1.10009
1.25746
1.69308
1.97261
2.09705
2.1121
1
1
1
1
1
1
1
1
1.00001
1.00001
1.00003
1.00005
1.00016
1.0003
1.00089
1.00168
1.00471
1.00991
1.02488
1.06385
1.1404
1.38969
1.85629
2.03873
2.08215
1
1
1
1
1
1
1
1
1
1.00001
1.00001
1.00004
1.00008
1.00024
1.00044
1.00128
1.00246
1.00675
1.01462
1.03571
1.09373
1.20656
1.5586
1.91026
2.05441
1
1
1
1
1
1
1
1
1
1
1.00001
1.00003
1.00005
1.00015
1.00027
1.00081
1.00147
1.00433
1.00855
1.02223
1.0549
1.12025
1.33934
1.76015
1.98311
1
1
1
1
1
1
1
1
1
1
1.00001
1.00002
1.00003
1.00009
1.00016
1.00049
1.00089
1.00264
1.00499
1.01397
1.02924
1.07499
1.17433
1.49951
1.81278
1
1
1
1
1
1
1
1
1
1
1
1.00001
1.00002
1.00004
1.00012
1.00022
1.00066
1.00124
1.00348
1.00718
1.01807
1.0454
1.09969
1.2789
1.66507
1
1
1
1
1
1
1
1
1
1
1
1
1.00001
1.00002
1.00007
1.00013
1.00041
1.00074
1.00221
1.00416
1.01186
1.02378
1.06452
1.13928
1.42266
1
1
1
1
1
1
1
1
1
1
1
1
1.00001
1.00002
1.00003
1.0001
1.00018
1.00053
1.001
1.00287
1.00564
1.01502
1.03348
1.0801
1.19954
1
1
1
1
1
1
1
1
1
1
1
1
1
1.00001
1.00002
1.00005
1.00014
1.00025
1.00074
1.00139
1.00387
1.00804
1.01996
1.05037
1.10839
1
1
1
1
1
1
1
1
1
1
1
1
1
1.00001
1.00002
1.00003
1.00009
1.00016
1.00047
1.00087
1.00257
1.00486
1.01363
1.02813
1.07325
1
1
1
1
1
1
1
1
1
1
1
1
1
1
1.00001
1.00003
1.00005
1.00014
1.00026
1.00077
1.00145
1.00425
1.00845
1.02258
1.05325
1
1
1
1
1
1
1
1
1
1
1
1
1
1
1.00001
1.00002
1.00005
1.00009
1.00026
1.0005
1.00144
1.00296
1.00764
1.01891
1.04381
1
1
1
1
1
1
1
1
1
1
1
1
1
1
1.00001
1.00002
1.00003
1.00011
1.0002
1.00061
1.00114
1.00348
1.00684
1.01902
1.04457
1
1
1
1
1
1
1
1
1
1
1
1
1
1
1.00001
1.00002
1.00003
1.0001
1.00018
1.00059
1.00108
1.00334
1.00655
1.01833
1.04323
1
1
1
1
1
1
1
1
1
1
1
1
1
1
1.00001
1.00001
1.00004
1.00007
1.00023
1.00043
1.00132
1.00256
1.00713
1.01642
1.04024
1
1
1
1
1
1
1
1
1
1
1
1
1
1
1.00001
1.00001
1.00004
1.00007
1.00023
1.00042
1.00135
1.00251
1.00744
1.01583
1.04086
1
1
1
1
1
1
1
1
1
1
1
1
1
1
1.00001
1.00001
1.00004
1.00007
1.00022
1.00041
1.00128
1.00248
1.00698
1.01589
1.03938
1
1
1
1
1
1
1
1
1
1
1
1
1
1
1
1.00002
1.00003
1.00009
1.00017
1.00051
1.001
1.0028
1.00636
1.01591
1.0439
1
1
1
1
1
1
1
1
1
1
1
1
1
1
1.00001
1.00001
1.00004
1.00007
1.00022
1.00041
1.00127
1.00246
1.00693
1.01579
1.03914
2.41323
2.46277
2.9595
2.94706
2.94589
2.93928
2.9079
2.88893
2.87985
2.86861
2.85387
2.83458
2.81839
2.80182
2.78713
2.76932
2.75173
2.7329
2.71703
2.70205
2.68839
2.67239
2.66251
2.65526
2.65229
2.65852
2.66943
2.6957
2.72548
2.76194
2.79431
2.82757
2.85446
2.87909
2.89952
2.91598
2.93153
2.94104
2.95086
2.9557
2.95935
2.96209
2.96312
2.96351
2.96175
2.96023
2.95745
2.95537
2.95105
2.94773
2.94354
2.93859
2.93351
2.92908
2.92416
2.91873
2.91179
2.90582
2.89853
2.89275
2.88484
2.87917
2.87073
2.86448
2.85603
2.8489
2.84056
2.83287
2.82412
2.81625
2.80723
2.79885
2.78971
2.78109
2.77165
2.76271
2.75315
2.74404
2.73421
2.72493
2.71494
2.70559
2.69537
2.68594
2.67566
2.66628
2.65595
2.64649
2.63614
2.62678
2.61661
2.60743
2.59765
2.58888
2.5798
2.57196
2.56422
2.55814
2.55308
2.54983
2.284
2.32382
2.56663
2.79556
2.87639
2.93027
2.98629
3.04922
3.01827
2.98339
2.9746
2.96436
2.95636
2.95289
2.94483
2.93595
2.92651
2.91608
2.90914
2.90211
2.8971
2.88973
2.88609
2.88477
2.89085
2.90482
2.92074
2.95064
2.97559
3.00676
3.02595
3.04362
3.05201
3.05554
3.05216
3.04473
3.03206
3.02168
3.00651
2.99552
2.97885
2.96709
2.9521
2.93746
2.92233
2.90795
2.89364
2.88097
2.86691
2.85455
2.84141
2.83042
2.81829
2.80806
2.79614
2.78685
2.77583
2.76679
2.75656
2.7472
2.73737
2.7284
2.71885
2.71023
2.70079
2.6923
2.68284
2.67443
2.66484
2.6564
2.64668
2.63811
2.62822
2.61947
2.60943
2.60046
2.59024
2.58108
2.57067
2.56136
2.55076
2.54132
2.53063
2.52109
2.51039
2.50076
2.49014
2.48054
2.47013
2.46064
2.45053
2.44122
2.43156
2.42265
2.41371
2.40556
2.39783
2.39132
2.38631
2.38277
2.27139
2.23538
2.30266
2.44329
2.56171
2.69626
2.76092
2.89101
2.95254
2.96916
3.00492
3.03075
3.07968
3.08828
3.05562
3.04961
3.04758
3.05
3.05419
3.06042
3.06585
3.06919
3.07053
3.07224
3.08543
3.09148
3.11115
3.12351
3.14192
3.14848
3.14931
3.14383
3.13496
3.1223
3.09696
3.07597
3.05323
3.03332
3.0119
2.99101
2.96498
2.94284
2.917
2.89631
2.87295
2.85388
2.83318
2.81559
2.79612
2.7798
2.76261
2.74742
2.73115
2.71687
2.70317
2.6902
2.67663
2.66371
2.65109
2.63937
2.62813
2.61728
2.60698
2.59672
2.58721
2.57754
2.56871
2.55957
2.55133
2.54259
2.53482
2.52637
2.51892
2.51064
2.50335
2.49513
2.48788
2.47959
2.4723
2.46395
2.4565
2.44798
2.4403
2.43161
2.42372
2.41485
2.40679
2.39778
2.38961
2.38051
2.37231
2.36324
2.35516
2.34628
2.33851
2.3302
2.32345
2.31666
2.31223
2.30831
2.26792
2.21304
2.21369
2.2659
2.32623
2.40491
2.48991
2.56734
2.68294
2.78022
2.86156
2.91321
2.97036
3.02189
3.0381
3.04759
3.07058
3.09936
3.12321
3.13409
3.14186
3.14394
3.14634
3.15034
3.16341
3.16788
3.17952
3.18233
3.17558
3.16324
3.1404
3.11896
3.08783
3.05971
3.0236
2.99335
2.95553
2.92397
2.88785
2.85678
2.82514
2.79916
2.77358
2.75291
2.73183
2.71505
2.69749
2.68249
2.66726
2.65413
2.64062
2.62786
2.61566
2.6047
2.5939
2.58318
2.57273
2.56217
2.55164
2.54127
2.5308
2.5206
2.51025
2.50018
2.48988
2.47995
2.46975
2.46013
2.45009
2.44092
2.43109
2.42235
2.41277
2.40443
2.39514
2.3872
2.3783
2.37071
2.36212
2.35483
2.34652
2.33954
2.33147
2.32477
2.31688
2.31038
2.30265
2.29624
2.28864
2.28222
2.27465
2.26815
2.26068
2.25433
2.24723
2.24141
2.23515
2.23064
2.22641
2.22473
2.25947
2.2109
2.17739
2.18618
2.21687
2.24891
2.30159
2.35028
2.41699
2.48483
2.56135
2.63867
2.72013
2.79618
2.88426
2.93805
2.9725
3.00357
3.03725
3.05989
3.08206
3.10059
3.11498
3.12921
3.13208
3.13225
3.12487
3.11282
3.08842
3.05828
3.01806
2.97279
2.9266
2.87935
2.83445
2.79273
2.75348
2.71936
2.68712
2.66078
2.63594
2.61602
2.5968
2.58118
2.566
2.55394
2.54116
2.53166
2.52117
2.51305
2.50359
2.49665
2.488
2.48164
2.4741
2.46877
2.4619
2.45615
2.44905
2.44383
2.4371
2.43204
2.42516
2.41982
2.41268
2.40689
2.39949
2.39318
2.38558
2.37883
2.37109
2.36398
2.35615
2.34876
2.34078
2.3332
2.32506
2.31729
2.309
2.3011
2.2927
2.28472
2.2763
2.26831
2.25997
2.25204
2.2438
2.23592
2.22779
2.22008
2.21221
2.20487
2.19734
2.19049
2.18343
2.17733
2.17112
2.16636
2.16209
2.16019
2.25717
2.20363
2.17062
2.15104
2.15965
2.1719
2.19701
2.22336
2.2597
2.29872
2.34363
2.3951
2.44945
2.51346
2.57359
2.64828
2.71932
2.78709
2.84566
2.90707
2.95348
2.98965
3.0151
3.03285
3.04441
3.04352
3.02518
2.99412
2.94171
2.88243
2.81656
2.7546
2.69934
2.65409
2.61456
2.58351
2.55622
2.53476
2.51662
2.50249
2.49044
2.48076
2.47184
2.46475
2.45778
2.45159
2.44558
2.44017
2.43427
2.42914
2.42362
2.41825
2.41244
2.40697
2.40118
2.39599
2.39014
2.38411
2.37756
2.37122
2.36466
2.35835
2.35175
2.34548
2.33876
2.33242
2.32557
2.3191
2.31213
2.30553
2.29843
2.29182
2.28462
2.27808
2.27089
2.26445
2.25729
2.25097
2.24386
2.2376
2.23055
2.22426
2.21723
2.2108
2.20366
2.197
2.18974
2.18296
2.17568
2.16882
2.16154
2.15471
2.14759
2.14097
2.13419
2.12808
2.12202
2.11705
2.11274
2.11057
2.25918
2.20291
2.16342
2.13756
2.12594
2.12714
2.13457
2.14941
2.16574
2.19012
2.2125
2.24397
2.27383
2.31337
2.35191
2.39761
2.44527
2.49782
2.5534
2.60896
2.67071
2.72456
2.7822
2.81427
2.84904
2.84781
2.8253
2.77369
2.701
2.6246
2.55548
2.49425
2.45143
2.42276
2.40598
2.39706
2.3897
2.3856
2.38215
2.38092
2.37959
2.3791
2.37841
2.37787
2.37674
2.37593
2.37416
2.3729
2.37024
2.36852
2.36503
2.36264
2.35851
2.35538
2.35087
2.34801
2.34329
2.33966
2.33403
2.32957
2.32364
2.31879
2.31257
2.30729
2.30075
2.29505
2.28821
2.28209
2.27501
2.26844
2.26116
2.25416
2.2467
2.23931
2.2317
2.22405
2.21634
2.20851
2.20079
2.19295
2.18532
2.17754
2.17001
2.16241
2.15511
2.14779
2.14068
2.13361
2.12662
2.1198
2.11292
2.10639
2.09963
2.09345
2.08696
2.08131
2.0754
2.07081
2.06642
2.06459
2.26386
2.20745
2.16285
2.13177
2.10943
2.10137
2.09573
2.10092
2.10681
2.11916
2.13077
2.14755
2.16533
2.18625
2.21096
2.23592
2.26761
2.2961
2.33847
2.3739
2.42679
2.46798
2.52022
2.55765
2.59884
2.60574
2.58381
2.53287
2.46571
2.40362
2.34939
2.31122
2.28699
2.27199
2.27408
2.28206
2.29132
2.30083
2.30701
2.31285
2.31543
2.31844
2.31941
2.31961
2.31934
2.31863
2.3171
2.31545
2.3129
2.31061
2.30738
2.3045
2.30064
2.2971
2.293
2.28956
2.28583
2.28236
2.27815
2.27394
2.26935
2.26479
2.25991
2.25498
2.24974
2.24449
2.23895
2.23348
2.2277
2.22206
2.21609
2.21029
2.20416
2.19819
2.19191
2.18576
2.17928
2.17292
2.16613
2.15942
2.15218
2.14518
2.13761
2.13042
2.12264
2.1154
2.10761
2.10047
2.09282
2.08587
2.07847
2.07176
2.06466
2.05825
2.05153
2.04557
2.03946
2.03444
2.02981
2.02752
2.26011
2.21202
2.16638
2.13194
2.10374
2.0872
2.07566
2.07065
2.06936
2.07191
2.07777
2.08313
2.09387
2.10271
2.11881
2.12997
2.15191
2.16742
2.19665
2.22354
2.26236
2.29794
2.34134
2.38765
2.43191
2.44564
2.42538
2.38318
2.3326
2.28578
2.24326
2.2185
2.19594
2.18661
2.18244
2.188
2.19995
2.21215
2.22484
2.23329
2.24015
2.24436
2.2473
2.24931
2.25077
2.25159
2.2523
2.25215
2.25176
2.25115
2.24975
2.2486
2.24625
2.2444
2.24145
2.23926
2.23651
2.23427
2.2309
2.22781
2.22363
2.22008
2.21551
2.21164
2.20679
2.20253
2.19737
2.19263
2.1871
2.18183
2.17594
2.17027
2.16409
2.15815
2.15177
2.14565
2.13917
2.13296
2.12643
2.12023
2.11373
2.10751
2.10096
2.0946
2.08794
2.08138
2.0746
2.06789
2.06103
2.05427
2.0474
2.04073
2.03396
2.02753
2.02099
2.01501
2.00897
2.00389
1.99917
1.99681
2.25391
2.21131
2.16809
2.13286
2.10264
2.08055
2.06403
2.05375
2.04634
2.04355
2.04136
2.04266
2.04574
2.0489
2.05644
2.06214
2.07446
2.0852
2.10679
2.12977
2.16009
2.19429
2.23783
2.29902
2.34215
2.35395
2.33162
2.29711
2.25699
2.21126
2.17363
2.14246
2.12563
2.11093
2.10467
2.1029
2.10825
2.12013
2.13772
2.15404
2.16981
2.18085
2.19027
2.19617
2.201
2.20426
2.20687
2.2088
2.21019
2.21146
2.21154
2.21133
2.21066
2.20959
2.20771
2.20583
2.20362
2.20169
2.1992
2.19642
2.19299
2.1894
2.18543
2.18131
2.17686
2.17234
2.16753
2.1627
2.15761
2.1525
2.14716
2.14175
2.13613
2.13038
2.12441
2.11822
2.11184
2.10532
2.09873
2.0921
2.08543
2.07887
2.07219
2.06573
2.05902
2.05264
2.04587
2.03955
2.03268
2.02643
2.01948
2.01331
2.00638
2.00033
1.99355
1.98775
1.98141
1.9763
1.97128
1.96879
2.25141
2.21104
2.16968
2.1343
2.10201
2.07792
2.05681
2.04283
2.03131
2.02378
2.01877
2.01432
2.01351
2.01206
2.01396
2.01673
2.0237
2.03263
2.05054
2.07301
2.09803
2.13986
2.19406
2.26582
2.30263
2.30502
2.2831
2.25274
2.2127
2.17071
2.13192
2.10433
2.0829
2.07038
2.06224
2.05852
2.059
2.06317
2.07429
2.09097
2.10966
2.12692
2.14158
2.15194
2.16004
2.16483
2.16868
2.1707
2.17268
2.17341
2.1742
2.17419
2.17369
2.17296
2.17137
2.16992
2.16762
2.16611
2.16386
2.16198
2.159
2.1563
2.15292
2.14976
2.146
2.14231
2.13806
2.13383
2.12907
2.12437
2.11915
2.11411
2.10853
2.10321
2.09726
2.09169
2.08544
2.07969
2.07316
2.0672
2.06043
2.05428
2.04737
2.04112
2.03418
2.02793
2.02101
2.01476
2.00787
2.00162
1.99478
1.98857
1.98182
1.97573
1.96918
1.96332
1.95717
1.95192
1.94692
1.9442
2.24333
2.20795
2.17029
2.13601
2.10353
2.07671
2.05444
2.03578
2.02209
2.01046
2.00232
1.9958
1.99048
1.98771
1.98531
1.98587
1.99053
2.0031
2.01618
2.04005
2.07035
2.11983
2.19853
2.26216
2.28674
2.27644
2.25518
2.22548
2.18703
2.14631
2.11179
2.08363
2.06039
2.0434
2.03105
2.02374
2.01833
2.01634
2.01777
2.02531
2.03742
2.05516
2.07349
2.09032
2.10416
2.11426
2.12169
2.12633
2.12998
2.13193
2.13402
2.13464
2.1359
2.13583
2.13552
2.13489
2.13348
2.13242
2.13068
2.12931
2.12691
2.12457
2.1214
2.11853
2.11502
2.11174
2.10787
2.10418
2.09991
2.09577
2.09104
2.08644
2.08124
2.07618
2.07058
2.0652
2.05936
2.05377
2.04778
2.04205
2.03592
2.03008
2.02381
2.0179
2.01152
2.00559
1.99914
1.99321
1.98675
1.98084
1.97439
1.96849
1.96206
1.95618
1.94987
1.94409
1.93811
1.93283
1.92788
1.92507
2.22897
2.19847
2.16528
2.13476
2.10403
2.07677
2.05274
2.03328
2.01581
2.00271
1.9909
1.98189
1.97515
1.96868
1.96685
1.96546
1.97206
1.98595
2.00174
2.02663
2.07144
2.14007
2.2271
2.27241
2.27882
2.26461
2.24092
2.20977
2.17004
2.13433
2.10252
2.07459
2.05033
2.03023
2.01388
2.00159
1.9934
1.98841
1.98706
1.98723
1.992
2.00286
2.01857
2.03789
2.05633
2.07276
2.08509
2.09451
2.10033
2.10467
2.10679
2.1087
2.10931
2.1101
2.11
2.10963
2.10866
2.10785
2.10625
2.10529
2.10341
2.10167
2.09882
2.09617
2.09273
2.08949
2.08557
2.0819
2.07763
2.07366
2.06908
2.06476
2.0598
2.05506
2.04966
2.04454
2.03872
2.03327
2.02708
2.02139
2.01493
2.00909
2.00245
1.99652
1.9898
1.98385
1.97714
1.9712
1.96454
1.95865
1.95207
1.94623
1.93974
1.93394
1.92759
1.92192
1.91588
1.9107
1.90566
1.90294
2.22435
2.19164
2.15924
2.12808
2.10054
2.07506
2.05137
2.03062
2.01358
1.99752
1.98576
1.9735
1.96545
1.95778
1.954
1.95572
1.96573
1.97802
2.00051
2.03566
2.10143
2.19255
2.25694
2.27669
2.26906
2.25257
2.22965
2.1951
2.16084
2.12938
2.09962
2.07284
2.04849
2.02723
2.0078
1.99239
1.97948
1.97116
1.96481
1.96223
1.96044
1.96183
1.96837
1.97873
1.99545
2.01304
2.03043
2.04445
2.05572
2.06303
2.06826
2.07102
2.07309
2.07384
2.07462
2.07458
2.07419
2.07365
2.07245
2.07172
2.07029
2.06917
2.06696
2.06486
2.06192
2.05931
2.05595
2.0529
2.04917
2.04569
2.04159
2.03768
2.03311
2.02877
2.02382
2.01916
2.01383
2.0089
2.00328
1.99812
1.99225
1.98687
1.98079
1.97524
1.96902
1.96335
1.95707
1.95135
1.94507
1.93933
1.93308
1.92732
1.92113
1.91536
1.90929
1.9036
1.89779
1.89251
1.88759
1.88463
2.21796
2.1885
2.15708
2.1269
2.09665
2.07065
2.04732
2.02632
2.00894
1.99304
1.98013
1.96915
1.95922
1.95372
1.95092
1.95676
1.96695
1.98434
2.01457
2.0757
2.1626
2.24365
2.2749
2.27583
2.26403
2.24584
2.21894
2.18722
2.15769
2.12877
2.10223
2.0767
2.0534
2.03088
2.01092
1.99216
1.97573
1.96143
1.94992
1.94301
1.93724
1.93578
1.93369
1.93661
1.9448
1.95781
1.97501
1.99334
2.0098
2.02381
2.03376
2.04109
2.04517
2.04828
2.04934
2.05063
2.05066
2.05049
2.04992
2.04936
2.04825
2.04742
2.04573
2.04383
2.04105
2.03835
2.03511
2.03204
2.02847
2.02512
2.02125
2.01759
2.01334
2.00934
2.00468
2.00031
1.99523
1.9905
1.98505
1.98
1.97423
1.96893
1.96295
1.95746
1.95134
1.94567
1.93945
1.93364
1.9274
1.9215
1.91533
1.90939
1.90335
1.89742
1.89155
1.88579
1.88016
1.87492
1.8701
1.86721
2.19489
2.17824
2.1526
2.1249
2.09658
2.06883
2.04574
2.02243
2.00474
1.98748
1.97437
1.96307
1.95487
1.95099
1.95408
1.9633
1.97946
2.00562
2.05941
2.14272
2.23155
2.27352
2.28153
2.27438
2.26008
2.23897
2.21027
2.1833
2.1567
2.13137
2.10666
2.08246
2.05872
2.03603
2.01433
1.99395
1.97532
1.95835
1.94339
1.93042
1.92175
1.91572
1.91124
1.91042
1.90966
1.91413
1.92435
1.93894
1.95712
1.97466
1.99081
2.00284
2.01226
2.01756
2.02153
2.0229
2.0242
2.02419
2.02391
2.02351
2.02264
2.02209
2.02098
2.01975
2.01766
2.01542
2.01261
2.0099
2.00667
2.00361
2
1.99655
1.99252
1.98868
1.98424
1.97995
1.97514
1.97047
1.96536
1.96038
1.95504
1.94983
1.94433
1.93896
1.93332
1.92779
1.92206
1.91638
1.91061
1.90485
1.89909
1.8933
1.88757
1.8818
1.87613
1.87047
1.86498
1.85973
1.85499
1.85193
2.1763
2.15613
2.13841
2.1184
2.09503
2.06851
2.04536
2.02253
2.00277
1.98542
1.97074
1.95951
1.95313
1.95423
1.96353
1.97834
2.00196
2.05094
2.12814
2.22354
2.27615
2.2881
2.28317
2.27169
2.25586
2.23026
2.20483
2.1806
2.15701
2.13356
2.10959
2.08584
2.06252
2.03939
2.0175
1.99613
1.97669
1.95773
1.94169
1.92622
1.91435
1.90359
1.89708
1.89236
1.88916
1.88812
1.88914
1.89599
1.90712
1.92367
1.94111
1.95861
1.97282
1.98424
1.99137
1.99646
1.99855
2.00019
2.00025
1.99994
1.99922
1.9986
1.99759
1.99658
1.99485
1.99279
1.99019
1.98761
1.9846
1.98164
1.97825
1.97486
1.97105
1.96727
1.96311
1.95895
1.95443
1.94993
1.94509
1.94029
1.93517
1.93012
1.92478
1.91952
1.91401
1.90859
1.90295
1.89739
1.8917
1.88607
1.88041
1.87478
1.8692
1.86365
1.85819
1.85282
1.84757
1.84267
1.83814
1.83538
2.16911
2.14289
2.12187
2.10065
2.08553
2.06521
2.04413
2.02293
2.0032
1.98581
1.97139
1.96098
1.95901
1.96569
1.97824
1.99994
2.04429
2.11851
2.21241
2.27141
2.28995
2.2869
2.27785
2.2638
2.24333
2.22001
2.19856
2.17651
2.15469
2.13254
2.10974
2.08755
2.06443
2.0429
2.02056
2.00054
1.97979
1.96168
1.94334
1.92753
1.91244
1.8993
1.88954
1.87943
1.8744
1.86898
1.86691
1.86587
1.86835
1.87628
1.88948
1.90576
1.92324
1.93884
1.95187
1.96114
1.96715
1.97066
1.97186
1.97248
1.97165
1.97102
1.96996
1.96924
1.96779
1.96628
1.96406
1.96184
1.95914
1.95646
1.95336
1.95027
1.94678
1.94335
1.93951
1.93575
1.93152
1.92745
1.92288
1.91852
1.91367
1.90905
1.90397
1.89911
1.89387
1.8888
1.88343
1.87821
1.87278
1.86747
1.862
1.85666
1.8512
1.8459
1.84055
1.8354
1.83031
1.82558
1.82123
1.81851
2.16275
2.13811
2.11542
2.0925
2.0715
2.05386
2.03618
2.02012
2.00223
1.98744
1.97434
1.9685
1.973
1.98432
2.00387
2.04401
2.11379
2.20535
2.26963
2.29107
2.28938
2.28143
2.26997
2.25019
2.23084
2.21093
2.19259
2.17237
2.15352
2.13212
2.11237
2.08991
2.06944
2.04734
2.02705
2.00615
1.98643
1.96738
1.94873
1.93182
1.91484
1.89994
1.88518
1.8726
1.86305
1.85423
1.84981
1.8441
1.84312
1.8421
1.84603
1.85536
1.86946
1.88585
1.90255
1.91706
1.92874
1.93638
1.94144
1.94343
1.94445
1.94396
1.94291
1.94231
1.94109
1.93994
1.93794
1.93601
1.93351
1.93113
1.92823
1.92548
1.92219
1.91913
1.91553
1.9122
1.90829
1.90466
1.90045
1.89655
1.89208
1.88791
1.88321
1.87877
1.87385
1.86917
1.86407
1.85921
1.85399
1.84899
1.84371
1.83864
1.83338
1.82831
1.82316
1.81822
1.81336
1.80882
1.80471
1.80203
2.14365
2.1266
2.10854
2.0883
2.06736
2.04882
2.02987
2.01366
1.99956
1.98741
1.98139
1.98431
1.99512
2.01352
2.05123
2.1169
2.206
2.27122
2.29462
2.29458
2.28806
2.27668
2.25852
2.23994
2.22253
2.20575
2.18889
2.1713
2.15322
2.13385
2.11442
2.09376
2.07391
2.05256
2.0327
2.01131
1.99207
1.97149
1.95301
1.93397
1.91598
1.89936
1.88265
1.86923
1.85468
1.84456
1.83427
1.82794
1.822
1.8183
1.81675
1.81746
1.82308
1.83395
1.84865
1.86553
1.88109
1.89485
1.90458
1.91142
1.9147
1.91642
1.91621
1.91559
1.91462
1.91384
1.91224
1.91066
1.90827
1.90622
1.90341
1.901
1.89782
1.89509
1.89166
1.88864
1.88498
1.88165
1.87777
1.87415
1.87005
1.86616
1.86185
1.85771
1.85322
1.84885
1.84419
1.83963
1.83485
1.83017
1.82532
1.82056
1.8157
1.81092
1.80616
1.80147
1.79699
1.79269
1.78898
1.78642
2.12461
2.11393
2.09324
2.07745
2.059
2.04154
2.02468
2.00918
1.99592
1.99031
1.99289
2.00542
2.02404
2.06142
2.12459
2.21223
2.27803
2.30352
2.30321
2.29684
2.28446
2.2669
2.24893
2.23295
2.21752
2.20257
2.1869
2.17057
2.15316
2.13472
2.11562
2.09556
2.0756
2.05467
2.03469
2.01362
1.9942
1.97336
1.95485
1.9345
1.91737
1.89815
1.88232
1.86518
1.85071
1.83681
1.8245
1.8148
1.80609
1.80054
1.79484
1.79255
1.79152
1.79372
1.80106
1.8135
1.82871
1.84527
1.85994
1.87232
1.88057
1.88613
1.88823
1.88917
1.88835
1.88779
1.88669
1.88539
1.88336
1.88127
1.87877
1.87639
1.87358
1.87092
1.86779
1.86491
1.86156
1.85848
1.85492
1.85159
1.84784
1.84422
1.84029
1.83639
1.8323
1.82818
1.82395
1.81968
1.81532
1.81096
1.80653
1.80211
1.79771
1.79329
1.78902
1.78475
1.78077
1.77697
1.77375
1.77159
2.11069
2.10247
2.08658
2.06907
2.05222
2.03651
2.0194
2.00798
1.99862
2.00054
2.01343
2.03207
2.07048
2.13335
2.22077
2.28523
2.31066
2.31016
2.30356
2.29154
2.27185
2.25491
2.23871
2.22544
2.21086
2.19754
2.18169
2.16651
2.1486
2.13148
2.11201
2.09354
2.0732
2.05391
2.03337
2.01369
1.99343
1.9737
1.95412
1.93478
1.91628
1.8975
1.88066
1.86294
1.84816
1.83211
1.8194
1.80602
1.79589
1.78652
1.77951
1.77377
1.76915
1.76779
1.76746
1.77105
1.77979
1.79317
1.80872
1.82419
1.83807
1.84851
1.85572
1.85941
1.86102
1.86083
1.86006
1.85931
1.85761
1.85596
1.85331
1.8512
1.84844
1.84605
1.84314
1.84043
1.8374
1.83444
1.83127
1.8281
1.82475
1.82138
1.81781
1.81427
1.8105
1.8068
1.80288
1.79905
1.79504
1.79113
1.7871
1.78315
1.77917
1.77527
1.77143
1.76776
1.76425
1.76111
1.75846
1.75677
2.08533
2.08133
2.07312
2.05845
2.04395
2.03041
2.01852
2.00919
2.0108
2.02318
2.04142
2.0801
2.14219
2.23005
2.29171
2.31557
2.31418
2.30735
2.29348
2.27381
2.25562
2.24163
2.22803
2.21616
2.20248
2.18959
2.1742
2.15957
2.14224
2.12594
2.1069
2.08925
2.06902
2.05061
2.02984
2.01117
1.99046
1.97191
1.9518
1.9336
1.91444
1.89692
1.87897
1.86224
1.84584
1.82996
1.8156
1.80103
1.78913
1.77669
1.7679
1.75871
1.75286
1.74643
1.74343
1.74166
1.74259
1.74772
1.75722
1.77099
1.78631
1.80085
1.81325
1.82212
1.82778
1.83025
1.83094
1.83037
1.8293
1.82823
1.82601
1.82402
1.82121
1.81909
1.8162
1.81404
1.81104
1.80871
1.80556
1.80302
1.79978
1.79701
1.79371
1.79071
1.78735
1.78413
1.78068
1.77729
1.77379
1.7703
1.7668
1.76332
1.75991
1.7566
1.75341
1.75047
1.74774
1.74543
1.74367
1.74266
2.06615
2.06588
2.05664
2.04632
2.03152
2.02292
2.01629
2.01949
2.03502
2.0542
2.09563
2.15867
2.24652
2.30372
2.32208
2.31984
2.31198
2.29482
2.27417
2.25593
2.24236
2.22949
2.21843
2.20581
2.19355
2.17935
2.16521
2.14945
2.13362
2.11653
2.0992
2.08117
2.06277
2.04429
2.02529
2.00681
1.98762
1.96943
1.95032
1.9326
1.9138
1.89667
1.87835
1.86196
1.84444
1.82896
1.8127
1.79827
1.7838
1.77062
1.75852
1.74718
1.73831
1.72953
1.72351
1.71699
1.71517
1.71332
1.71558
1.72207
1.73308
1.74715
1.76217
1.77596
1.78699
1.79461
1.79886
1.80054
1.80041
1.79986
1.79859
1.79719
1.79438
1.79227
1.78928
1.78717
1.78421
1.78205
1.77904
1.77676
1.7737
1.77131
1.76825
1.76571
1.76262
1.75995
1.75681
1.75409
1.75087
1.74816
1.74495
1.74235
1.73933
1.73697
1.73436
1.73245
1.73055
1.72944
1.7288
1.72884
2.04923
2.04983
2.04673
2.03718
2.02314
2.01596
2.02159
2.04163
2.0639
2.11082
2.17873
2.26521
2.31943
2.33241
2.32828
2.3175
2.29866
2.2765
2.25825
2.24397
2.23184
2.2208
2.20937
2.19746
2.18459
2.17103
2.15672
2.14176
2.12628
2.11012
2.09357
2.07636
2.05891
2.04094
2.02291
2.00456
1.98626
1.96782
1.94944
1.93109
1.91278
1.89476
1.87674
1.85936
1.84188
1.8254
1.80864
1.79328
1.77743
1.76322
1.74862
1.73597
1.72373
1.71382
1.70477
1.69783
1.69153
1.6878
1.6867
1.68728
1.69097
1.69923
1.71226
1.72701
1.74199
1.75493
1.76482
1.77109
1.77419
1.77498
1.77455
1.77372
1.77201
1.76958
1.76675
1.76395
1.76113
1.7583
1.75558
1.75277
1.75
1.74731
1.74442
1.74191
1.7389
1.73653
1.73355
1.73113
1.72836
1.72579
1.72336
1.72082
1.71879
1.71669
1.71516
1.7139
1.71323
1.71327
1.71399
1.71451
2.00368
2.03328
2.03314
2.03011
2.02393
2.02429
2.04153
2.06935
2.12255
2.20041
2.28358
2.33261
2.341
2.33554
2.32129
2.29961
2.2784
2.26065
2.24683
2.23558
2.22485
2.21397
2.20226
2.19008
2.17686
2.16333
2.14869
2.13396
2.1181
2.10233
2.08545
2.0688
2.05112
2.0338
2.01556
1.99781
1.97922
1.96126
1.94255
1.92456
1.90599
1.88822
1.87004
1.85274
1.8351
1.81824
1.80129
1.78527
1.76932
1.75473
1.7404
1.72768
1.71539
1.70458
1.69483
1.6865
1.67925
1.6733
1.66863
1.6668
1.6669
1.66909
1.67498
1.68508
1.69864
1.71387
1.72795
1.73989
1.7482
1.75321
1.75509
1.75495
1.7543
1.75295
1.75046
1.74754
1.74426
1.74126
1.73809
1.73526
1.73212
1.72939
1.72628
1.72361
1.72067
1.71799
1.71535
1.71267
1.71031
1.70782
1.70564
1.70363
1.70178
1.70044
1.69938
1.69897
1.69921
1.70026
1.7021
1.70241
1.91364
2.01054
2.02357
2.02554
2.03087
2.04726
2.07989
2.13335
2.2223
2.29702
2.33792
2.34192
2.33559
2.31926
2.29431
2.27317
2.25578
2.24224
2.23108
2.22137
2.21132
2.20086
2.18922
2.177
2.16373
2.14999
2.1354
2.12047
2.10482
2.08899
2.07249
2.05592
2.03873
2.02157
2.00391
1.98641
1.96846
1.95083
1.93265
1.91495
1.89679
1.87928
1.86156
1.84449
1.82752
1.81146
1.79555
1.7805
1.7657
1.75174
1.73804
1.72539
1.71269
1.70146
1.69021
1.68067
1.67172
1.66442
1.65748
1.65221
1.64873
1.64805
1.64906
1.65233
1.65941
1.6707
1.68473
1.6996
1.71275