/*--------------------------------*- C++ -*----------------------------------*\
| =========                 |                                                 |
| \\      /  F ield         | OpenFOAM: The Open Source CFD Toolbox           |
|  \\    /   O peration     | Version:  2412                                  |
|   \\  /    A nd           | Website:  www.openfoam.com                      |
|    \\/     M anipulation  |                                                 |
\*---------------------------------------------------------------------------*/
FoamFile
{
    version     2.0;
    format      ascii;
    arch        "LSB;label=32;scalar=64";
    class       volVectorField;
    location    "6";
    object      U;
}
// * * * * * * * * * * * * * * * * * * * * * * * * * * * * * * * * * * * * * //

dimensions      [0 1 -1 0 0 0 0];

internalField   nonuniform List<vector> 
5250
(
(2.99999 1.30036e-08 0)
(2.99998 1.00673e-07 0)
(2.99996 3.10034e-07 0)
(2.9999 9.35003e-07 0)
(2.99973 2.20895e-06 0)
(2.99942 5.93672e-06 0)
(2.99841 1.30707e-05 0)
(2.99672 3.61074e-05 0)
(2.99 7.5138e-05 0)
(2.97949 0.000226279 0)
(2.93577 0.000468967 0)
(2.83797 0.00155939 0)
(2.5475 0.00363363 0)
(1.62691 0.0119871 0)
(0.776402 0.0287534 0)
(0.485281 0.0266785 0)
(0.53265 0.0261328 0)
(0.537288 0.0274521 0)
(0.480767 0.028839 0)
(0.391599 0.0303278 0)
(0.310919 0.032168 0)
(0.245039 0.0342286 0)
(0.178717 0.0362768 0)
(0.105552 0.0384192 0)
(0.0439855 0.0406396 0)
(2.99999 3.88389e-08 0)
(2.99998 3.01403e-07 0)
(2.99996 9.2727e-07 0)
(2.9999 2.80088e-06 0)
(2.99974 6.61155e-06 0)
(2.99943 1.78433e-05 0)
(2.99843 3.91659e-05 0)
(2.99677 0.000109352 0)
(2.99016 0.000226556 0)
(2.97982 0.000691559 0)
(2.93682 0.00143191 0)
(2.84079 0.00483053 0)
(2.55526 0.0113293 0)
(1.64787 0.0373217 0)
(0.788151 0.0874825 0)
(0.481051 0.076278 0)
(0.531634 0.0711349 0)
(0.537884 0.0724008 0)
(0.481409 0.0740062 0)
(0.392597 0.0760904 0)
(0.312132 0.0786609 0)
(0.245904 0.0813302 0)
(0.178875 0.083531 0)
(0.104696 0.0853233 0)
(0.0425023 0.0858522 0)
(2.99999 6.33574e-08 0)
(2.99998 4.93235e-07 0)
(2.99996 1.51615e-06 0)
(2.9999 4.59286e-06 0)
(2.99975 1.08427e-05 0)
(2.99945 2.9417e-05 0)
(2.99848 6.45439e-05 0)
(2.99687 0.000181949 0)
(2.99048 0.000376475 0)
(2.98051 0.00116288 0)
(2.93905 0.00240631 0)
(2.84682 0.00820346 0)
(2.57206 0.0193761 0)
(1.6952 0.0639118 0)
(0.816368 0.151604 0)
(0.476086 0.129216 0)
(0.533796 0.119045 0)
(0.543679 0.121474 0)
(0.487634 0.124893 0)
(0.399605 0.12964 0)
(0.319335 0.134668 0)
(0.252397 0.139795 0)
(0.184084 0.144336 0)
(0.107959 0.147828 0)
(0.0433758 0.148281 0)
(3 8.14148e-08 0)
(2.99999 6.33557e-07 0)
(2.99996 1.94619e-06 0)
(2.99991 5.89937e-06 0)
(2.99976 1.38756e-05 0)
(2.99948 3.81148e-05 0)
(2.99856 8.1461e-05 0)
(2.99703 0.000242957 0)
(2.99097 0.000475998 0)
(2.98153 0.00161151 0)
(2.94241 0.00324604 0)
(2.85597 0.0113506 0)
(2.5976 0.027001 0)
(1.76911 0.0888314 0)
(0.861109 0.214961 0)
(0.471041 0.181669 0)
(0.540157 0.166185 0)
(0.555922 0.169959 0)
(0.500643 0.175436 0)
(0.413593 0.18341 0)
(0.333138 0.191269 0)
(0.265114 0.19926 0)
(0.194832 0.206911 0)
(0.115174 0.213105 0)
(0.0461087 0.21419 0)
(3 9.49171e-08 0)
(2.99999 7.37022e-07 0)
(2.99996 2.26393e-06 0)
(2.99991 6.85702e-06 0)
(2.99977 1.60681e-05 0)
(2.9995 4.45906e-05 0)
(2.99865 9.2563e-05 0)
(2.9972 0.000292617 0)
(2.99162 0.000533974 0)
(2.98284 0.00201171 0)
(2.94679 0.00391312 0)
(2.86807 0.0140248 0)
(2.63121 0.0335968 0)
(1.86923 0.110203 0)
(0.924117 0.274076 0)
(0.470747 0.233424 0)
(0.553171 0.212626 0)
(0.576158 0.2169 0)
(0.521758 0.224169 0)
(0.435747 0.236013 0)
(0.354438 0.247614 0)
(0.284649 0.259454 0)
(0.211631 0.27118 0)
(0.12708 0.281208 0)
(0.0512094 0.283976 0)
(3 1.07772e-07 0)
(2.99999 8.37805e-07 0)
(2.99996 2.57349e-06 0)
(2.99992 7.80332e-06 0)
(2.99979 1.83196e-05 0)
(2.99954 5.07634e-05 0)
(2.99877 0.000106055 0)
(2.9974 0.000332902 0)
(2.99239 0.000603433 0)
(2.98438 0.00228934 0)
(2.952 0.00441715 0)
(2.88248 0.0158353 0)
(2.67136 0.0380537 0)
(1.99353 0.124734 0)
(1.00915 0.322402 0)
(0.484427 0.288697 0)
(0.576501 0.264945 0)
(0.606441 0.266815 0)
(0.553321 0.274006 0)
(0.468547 0.289475 0)
(0.385581 0.305308 0)
(0.313212 0.322049 0)
(0.236346 0.339694 0)
(0.144826 0.356022 0)
(0.0593543 0.363028 0)
(3 1.14278e-07 0)
(2.99999 8.87276e-07 0)
(2.99997 2.72794e-06 0)
(2.99993 8.25275e-06 0)
(2.99981 1.94499e-05 0)
(2.99958 5.30415e-05 0)
(2.99889 0.000114142 0)
(2.99762 0.000338445 0)
(2.99324 0.000636458 0)
(2.98605 0.00230499 0)
(2.95766 0.00438723 0)
(2.89797 0.0158489 0)
(2.71507 0.0383088 0)
(2.13615 0.124021 0)
(1.12508 0.330541 0)
(0.535013 0.332039 0)
(0.619147 0.31812 0)
(0.650907 0.317786 0)
(0.599573 0.325324 0)
(0.516102 0.34513 0)
(0.429837 0.366264 0)
(0.353524 0.38913 0)
(0.27203 0.414506 0)
(0.172113 0.440593 0)
(0.0729886 0.457067 0)
(3 1.13722e-07 0)
(2.99999 8.79533e-07 0)
(2.99997 2.70703e-06 0)
(2.99993 8.13778e-06 0)
(2.99983 1.92009e-05 0)
(2.99962 5.12015e-05 0)
(2.999 0.000112925 0)
(2.99783 0.000311603 0)
(2.99402 0.000618984 0)
(2.98753 0.0020526 0)
(2.96291 0.00385611 0)
(2.91244 0.0135374 0)
(2.75475 0.0337928 0)
(2.26365 0.0975489 0)
(1.26499 0.279717 0)
(0.591989 0.357835 0)
(0.65708 0.373185 0)
(0.689702 0.367034 0)
(0.647052 0.378114 0)
(0.569814 0.40151 0)
(0.483223 0.430094 0)
(0.404631 0.461353 0)
(0.319912 0.497232 0)
(0.212353 0.538376 0)
(0.0957982 0.575711 0)
(3 1.20397e-07 0)
(2.99999 9.22453e-07 0)
(2.99997 2.84327e-06 0)
(2.99994 8.48039e-06 0)
(2.99985 2.00599e-05 0)
(2.99966 5.2624e-05 0)
(2.99911 0.000117497 0)
(2.99804 0.000306204 0)
(2.99468 0.000651843 0)
(2.98876 0.00185359 0)
(2.96695 0.00372791 0)
(2.92418 0.0113723 0)
(2.7794 0.0287698 0)
(2.35193 0.0745594 0)
(1.41417 0.22365 0)
(0.649618 0.398073 0)
(0.670986 0.426697 0)
(0.701275 0.419564 0)
(0.681291 0.433723 0)
(0.61818 0.458457 0)
(0.539428 0.494972 0)
(0.463783 0.536515 0)
(0.381662 0.585771 0)
(0.274159 0.651378 0)
(0.13677 0.734342 0)
(3 5.61462e-08 0)
(2.99999 1.44909e-06 0)
(2.99998 2.94598e-06 0)
(2.99995 1.2872e-05 0)
(2.99986 2.13215e-05 0)
(2.9997 8.26948e-05 0)
(2.99921 0.000117329 0)
(2.99828 0.000506193 0)
(2.99531 0.000533446 0)
(2.9901 0.0029966 0)
(2.97065 0.00199004 0)
(2.93415 0.0181827 0)
(2.80284 0.0136946 0)
(2.43121 0.100406 0)
(1.58152 0.189898 0)
(0.738982 0.444692 0)
(0.67699 0.465538 0)
(0.707341 0.465668 0)
(0.705066 0.483688 0)
(0.659584 0.512497 0)
(0.596082 0.556216 0)
(0.530047 0.608845 0)
(0.461446 0.678351 0)
(0.373545 0.787437 0)
(0.212563 0.988107 0)
(3 1.053e-07 0)
(2.99999 8.24773e-07 0)
(2.99998 2.53512e-06 0)
(2.99996 7.68501e-06 0)
(2.9999 1.82467e-05 0)
(2.99974 4.86205e-05 0)
(2.99946 0.000110902 0)
(2.99839 0.000281837 0)
(2.99675 0.000660787 0)
(2.98999 0.00162002 0)
(2.97918 0.00371702 0)
(2.93475 0.0100514 0)
(2.83503 0.0250276 0)
(2.53727 0.0677304 0)
(1.64592 0.201108 0)
(0.845778 0.476983 0)
(0.676081 0.491597 0)
(0.712043 0.498266 0)
(0.726307 0.521083 0)
(0.698058 0.557613 0)
(0.652688 0.607575 0)
(0.60674 0.671213 0)
(0.572443 0.759828 0)
(0.565682 0.898123 0)
(0.595152 1.13081 0)
(3 1.47733e-07 0)
(2.99999 1.31879e-07 0)
(2.99998 1.91889e-06 0)
(2.99996 1.78125e-06 0)
(2.9999 1.33514e-05 0)
(2.99978 9.41321e-06 0)
(2.99941 8.93688e-05 0)
(2.99874 3.60371e-05 0)
(2.99642 0.000646663 0)
(2.99264 0.00028125 0)
(2.97766 0.0047959 0)
(2.95173 0.00262297 0)
(2.85013 0.0340963 0)
(2.58433 0.049004 0)
(1.91389 0.202969 0)
(0.966413 0.519128 0)
(0.684435 0.520698 0)
(0.722917 0.526624 0)
(0.750751 0.550447 0)
(0.737846 0.593094 0)
(0.710419 0.648012 0)
(0.688633 0.719302 0)
(0.690614 0.815785 0)
(0.742428 0.950024 0)
(0.8719 1.12258 0)
(3 7.73827e-08 0)
(2.99999 6.03483e-07 0)
(2.99998 1.85448e-06 0)
(2.99997 5.62438e-06 0)
(2.99991 1.32488e-05 0)
(2.9998 3.5806e-05 0)
(2.99948 7.88398e-05 0)
(2.99885 0.000221745 0)
(2.99696 0.000435936 0)
(2.99345 0.00148629 0)
(2.98127 0.00261481 0)
(2.95927 0.0102681 0)
(2.87819 0.0200634 0)
(2.66597 0.0788079 0)
(2.12438 0.192653 0)
(1.11388 0.554608 0)
(0.709716 0.55932 0)
(0.746379 0.562996 0)
(0.783615 0.579588 0)
(0.782852 0.622172 0)
(0.769719 0.679365 0)
(0.769255 0.751639 0)
(0.797582 0.843217 0)
(0.874481 0.954303 0)
(1.02379 1.06226 0)
(3 8.57444e-08 0)
(3 6.67877e-07 0)
(2.99999 2.05401e-06 0)
(2.99997 6.21815e-06 0)
(2.99992 1.4757e-05 0)
(2.99983 3.94842e-05 0)
(2.99956 8.9118e-05 0)
(2.99903 0.000234454 0)
(2.99748 0.000519195 0)
(2.99446 0.00141862 0)
(2.98488 0.00295591 0)
(2.96653 0.00920485 0)
(2.90399 0.0193628 0)
(2.74451 0.0657951 0)
(2.32916 0.164043 0)
(1.31052 0.499081 0)
(0.789082 0.58066 0)
(0.796104 0.6039 0)
(0.82889 0.613909 0)
(0.837374 0.649679 0)
(0.832792 0.703815 0)
(0.8444 0.77106 0)
(0.886634 0.849486 0)
(0.970453 0.935061 0)
(1.11318 1.00582 0)
(3 8.39848e-08 0)
(3 6.55216e-07 0)
(2.99999 2.0153e-06 0)
(2.99998 6.10165e-06 0)
(2.99994 1.44966e-05 0)
(2.99986 3.87243e-05 0)
(2.99964 8.76593e-05 0)
(2.99921 0.000227597 0)
(2.99794 0.00051815 0)
(2.99549 0.00129868 0)
(2.9877 0.00308503 0)
(2.97318 0.00746326 0)
(2.92282 0.0183652 0)
(2.79849 0.0489293 0)
(2.46334 0.129056 0)
(1.50371 0.376737 0)
(0.878764 0.603601 0)
(0.8386 0.644366 0)
(0.865351 0.657069 0)
(0.887202 0.679553 0)
(0.892993 0.724352 0)
(0.911702 0.78241 0)
(0.959152 0.846797 0)
(1.04242 0.911649 0)
(1.17173 0.961958 0)
(3 7.19375e-08 0)
(3 5.59168e-07 0)
(2.99999 1.72079e-06 0)
(2.99998 5.19035e-06 0)
(2.99995 1.23116e-05 0)
(2.99989 3.27111e-05 0)
(2.99972 7.3779e-05 0)
(2.99939 0.00019123 0)
(2.99837 0.000428253 0)
(2.99661 0.00109781 0)
(2.98999 0.00250756 0)
(2.97944 0.00638937 0)
(2.93699 0.0149883 0)
(2.84252 0.0410029 0)
(2.56716 0.107296 0)
(1.71852 0.313276 0)
(1.01058 0.647174 0)
(0.867697 0.68031 0)
(0.888501 0.695254 0)
(0.920994 0.706223 0)
(0.942973 0.740571 0)
(0.969436 0.788644 0)
(1.01892 0.841537 0)
(1.09844 0.89166 0)
(1.21336 0.928832 0)
(3 5.78861e-08 0)
(3 4.46984e-07 0)
(2.99999 1.37684e-06 0)
(2.99998 4.12754e-06 0)
(2.99996 9.75745e-06 0)
(2.99991 2.57203e-05 0)
(2.99978 5.75454e-05 0)
(2.9995 0.000149849 0)
(2.9987 0.000320919 0)
(2.99722 0.000899317 0)
(2.99208 0.00177107 0)
(2.98368 0.00570595 0)
(2.95041 0.0113577 0)
(2.87961 0.0378544 0)
(2.66453 0.0902888 0)
(1.97977 0.286243 0)
(1.19686 0.675263 0)
(0.910007 0.710439 0)
(0.915993 0.722782 0)
(0.950719 0.727389 0)
(0.985817 0.751236 0)
(1.01917 0.790802 0)
(1.06923 0.834809 0)
(1.14368 0.874589 0)
(1.24532 0.902912 0)
(3 5.07992e-08 0)
(3 3.92495e-07 0)
(2.99999 1.20941e-06 0)
(2.99999 3.63138e-06 0)
(2.99997 8.60707e-06 0)
(2.99993 2.27445e-05 0)
(2.99982 5.11289e-05 0)
(2.99961 0.000132534 0)
(2.99899 0.000291032 0)
(2.99782 0.000782508 0)
(2.99397 0.00161902 0)
(2.98749 0.0049207 0)
(2.96276 0.00978114 0)
(2.91202 0.0320823 0)
(2.7554 0.0771553 0)
(2.26718 0.237886 0)
(1.4485 0.62844 0)
(1.01007 0.726534 0)
(0.971822 0.744014 0)
(0.991446 0.749694 0)
(1.03032 0.762497 0)
(1.0676 0.792998 0)
(1.11493 0.828799 0)
(1.18229 0.860494 0)
(1.27185 0.882258 0)
(3 2.79601e-08 0)
(3 3.79102e-07 0)
(3 9.27117e-07 0)
(2.99999 3.40432e-06 0)
(2.99998 6.73206e-06 0)
(2.99995 2.12826e-05 0)
(2.99987 4.03229e-05 0)
(2.9997 0.000124484 0)
(2.99924 0.00022931 0)
(2.99833 0.000738317 0)
(2.99551 0.00121785 0)
(2.99053 0.00465276 0)
(2.97238 0.0062455 0)
(2.93842 0.0295472 0)
(2.82047 0.0482645 0)
(2.48852 0.190826 0)
(1.75107 0.465025 0)
(1.1215 0.74188 0)
(1.02884 0.768912 0)
(1.03548 0.779705 0)
(1.07255 0.782241 0)
(1.11351 0.800576 0)
(1.15797 0.826893 0)
(1.21769 0.851191 0)
(1.29579 0.867464 0)
(3 2.07372e-08 0)
(3 2.85723e-07 0)
(3 6.94453e-07 0)
(2.99999 2.56389e-06 0)
(2.99998 5.03545e-06 0)
(2.99996 1.59652e-05 0)
(2.99991 3.00317e-05 0)
(2.99977 9.26967e-05 0)
(2.9995 0.000171631 0)
(2.99864 0.000536653 0)
(2.99722 0.000953534 0)
(2.9917 0.00326934 0)
(2.983 0.00505181 0)
(2.94823 0.0212561 0)
(2.87397 0.0340698 0)
(2.64599 0.134962 0)
(1.98197 0.345011 0)
(1.29191 0.753292 0)
(1.07606 0.799167 0)
(1.07128 0.811088 0)
(1.10491 0.808056 0)
(1.15173 0.811252 0)
(1.19649 0.827515 0)
(1.25038 0.845098 0)
(1.31873 0.857126 0)
(3 3.94829e-08 0)
(3 1.42196e-07 0)
(3 6.79239e-07 0)
(2.99999 1.4173e-06 0)
(2.99999 4.70094e-06 0)
(2.99997 8.88753e-06 0)
(2.99993 2.75766e-05 0)
(2.99982 5.04404e-05 0)
(2.99961 0.000158619 0)
(2.99898 0.000272177 0)
(2.99779 0.00096004 0)
(2.99395 0.00145134 0)
(2.98735 0.00619082 0)
(2.96293 0.00915728 0)
(2.91273 0.0406473 0)
(2.75844 0.080036 0)
(2.27965 0.288134 0)
(1.54643 0.687151 0)
(1.16811 0.811723 0)
(1.12361 0.831873 0)
(1.13991 0.833957 0)
(1.1849 0.826674 0)
(1.23254 0.831689 0)
(1.28229 0.842159 0)
(1.34228 0.849954 0)
(3 2.55298e-08 0)
(3 1.39017e-07 0)
(3 5.17441e-07 0)
(3 1.3278e-06 0)
(2.99999 3.65668e-06 0)
(2.99998 8.38643e-06 0)
(2.99995 2.17987e-05 0)
(2.99988 4.8788e-05 0)
(2.99969 0.000125595 0)
(2.99931 0.000278999 0)
(2.9982 0.000724433 0)
(2.99604 0.0015841 0)
(2.98945 0.00431532 0)
(2.97614 0.00915318 0)
(2.935 0.0264902 0)
(2.8345 0.0654953 0)
(2.55292 0.179745 0)
(1.81324 0.539677 0)
(1.29408 0.806786 0)
(1.18114 0.842394 0)
(1.17902 0.855242 0)
(1.21493 0.847567 0)
(1.26414 0.841431 0)
(1.31225 0.843656 0)
(1.3659 0.846763 0)
(3 1.50807e-08 0)
(3 1.17485e-07 0)
(3 3.61499e-07 0)
(3 1.09149e-06 0)
(2.99999 2.58812e-06 0)
(2.99998 6.87811e-06 0)
(2.99996 1.55018e-05 0)
(2.99991 4.02251e-05 0)
(2.9998 8.95999e-05 0)
(2.99948 0.000232622 0)
(2.99887 0.00051584 0)
(2.99694 0.00135344 0)
(2.99366 0.00301941 0)
(2.98133 0.00793366 0)
(2.95997 0.0190163 0)
(2.88092 0.0494584 0)
(2.682 0.137029 0)
(2.16323 0.365919 0)
(1.44533 0.819206 0)
(1.22852 0.869479 0)
(1.21392 0.876624 0)
(1.23867 0.869352 0)
(1.28753 0.855191 0)
(1.33828 0.849907 0)
(1.38918 0.848478 0)
(3 1.40102e-08 0)
(3 7.52016e-08 0)
(3 2.80574e-07 0)
(3 7.19297e-07 0)
(3 1.97877e-06 0)
(2.99999 4.52984e-06 0)
(2.99997 1.17474e-05 0)
(2.99994 2.62079e-05 0)
(2.99985 6.73171e-05 0)
(2.99967 0.000148815 0)
(2.99914 0.000387669 0)
(2.99813 0.000833893 0)
(2.99494 0.0023171 0)
(2.9894 0.00474944 0)
(2.96963 0.0143444 0)
(2.9298 0.0312338 0)
(2.80612 0.0949466 0)
(2.45465 0.263233 0)
(1.75867 0.665239 0)
(1.33323 0.854488 0)
(1.26887 0.87939 0)
(1.27394 0.88364 0)
(1.31378 0.870449 0)
(1.36445 0.859557 0)
(1.41295 0.85401 0)
(3 5.46422e-09 0)
(3 6.48845e-08 0)
(3 1.66755e-07 0)
(3 5.86224e-07 0)
(3 1.20497e-06 0)
(2.99999 3.64319e-06 0)
(2.99998 7.16532e-06 0)
(2.99996 2.0983e-05 0)
(2.9999 4.07585e-05 0)
(2.99975 0.000119051 0)
(2.99945 0.000229146 0)
(2.99855 0.000682694 0)
(2.99692 0.00126839 0)
(2.99135 0.00411594 0)
(2.98195 0.00696028 0)
(2.94738 0.025633 0)
(2.87163 0.049308 0)
(2.64886 0.161932 0)
(2.02121 0.443559 0)
(1.46934 0.823595 0)
(1.3166 0.882817 0)
(1.30725 0.896451 0)
(1.33619 0.88853 0)
(1.38601 0.87145 0)
(1.43512 0.861693 0)
(3 8.66867e-09 0)
(3 3.48792e-08 0)
(3 1.54996e-07 0)
(3 3.44128e-07 0)
(3 1.07942e-06 0)
(2.99999 2.17407e-06 0)
(2.99999 6.35981e-06 0)
(2.99997 1.25284e-05 0)
(2.99993 3.61269e-05 0)
(2.99982 7.04805e-05 0)
(2.99961 0.000204384 0)
(2.99899 0.00039095 0)
(2.9978 0.00118641 0)
(2.99414 0.00212525 0)
(2.98757 0.00725996 0)
(2.96487 0.0124558 0)
(2.91735 0.0456387 0)
(2.7751 0.0961393 0)
(2.33907 0.322745 0)
(1.71146 0.733252 0)
(1.39818 0.878721 0)
(1.35114 0.904078 0)
(1.36174 0.906896 0)
(1.40472 0.8897 0)
(1.45545 0.873185 0)
(3 5.20516e-09 0)
(3 2.83795e-08 0)
(3 1.0537e-07 0)
(3 2.70346e-07 0)
(3 7.412e-07 0)
(3 1.69747e-06 0)
(2.99999 4.38509e-06 0)
(2.99998 9.80334e-06 0)
(2.99995 2.50163e-05 0)
(2.99989 5.55861e-05 0)
(2.99971 0.000141687 0)
(2.99937 0.000313652 0)
(2.99837 0.000805957 0)
(2.9964 0.00176006 0)
(2.99059 0.00472344 0)
(2.9786 0.0100205 0)
(2.94313 0.0285578 0)
(2.85753 0.0690882 0)
(2.6159 0.192721 0)
(1.99206 0.556546 0)
(1.52633 0.855322 0)
(1.40411 0.908788 0)
(1.39457 0.922105 0)
(1.42254 0.912072 0)
(1.47109 0.889392 0)
(3 2.81282e-09 0)
(3 2.18525e-08 0)
(3 6.7311e-08 0)
(3 2.02502e-07 0)
(3 4.79972e-07 0)
(3 1.26711e-06 0)
(2.99999 2.85221e-06 0)
(2.99999 7.3295e-06 0)
(2.99997 1.63007e-05 0)
(2.99992 4.17281e-05 0)
(2.99982 9.24504e-05 0)
(2.99955 0.000237555 0)
(2.999 0.000524636 0)
(2.99741 0.00136082 0)
(2.99446 0.00303202 0)
(2.98464 0.00785501 0)
(2.96677 0.0186882 0)
(2.90563 0.0476925 0)
(2.75455 0.130056 0)
(2.3498 0.345558 0)
(1.7146 0.796332 0)
(1.46724 0.912735 0)
(1.42968 0.933056 0)
(1.44104 0.933002 0)
(1.48275 0.912287 0)
(3 2.93548e-09 0)
(3 1.22766e-08 0)
(3 5.31518e-08 0)
(3 1.20822e-07 0)
(3 3.70941e-07 0)
(3 7.64036e-07 0)
(3 2.1877e-06 0)
(2.99999 4.41518e-06 0)
(2.99998 1.24377e-05 0)
(2.99995 2.49786e-05 0)
(2.99988 7.01655e-05 0)
(2.99973 0.000140421 0)
(2.9993 0.000396635 0)
(2.99849 0.000785411 0)
(2.99601 0.00229448 0)
(2.9916 0.00432577 0)
(2.97627 0.0139546 0)
(2.94763 0.0260722 0)
(2.85308 0.0879603 0)
(2.59813 0.215698 0)
(2.04122 0.586527 0)
(1.58888 0.880732 0)
(1.48291 0.932446 0)
(1.47233 0.944402 0)
(1.4967 0.933948 0)
(3 1.04438e-09 0)
(3 1.09555e-08 0)
(3 2.95651e-08 0)
(3 9.92157e-08 0)
(3 2.12122e-07 0)
(3 6.14138e-07 0)
(3 1.25541e-06 0)
(2.99999 3.51494e-06 0)
(2.99999 7.11509e-06 0)
(2.99997 1.97607e-05 0)
(2.99992 3.9855e-05 0)
(2.99982 0.000110681 0)
(2.99954 0.00022225 0)
(2.99899 0.000624094 0)
(2.99741 0.00122591 0)
(2.99435 0.00364547 0)
(2.98486 0.00667174 0)
(2.96684 0.0224699 0)
(2.90768 0.0421175 0)
(2.75834 0.145032 0)
(2.3767 0.352355 0)
(1.77954 0.805132 0)
(1.54575 0.925566 0)
(1.50723 0.948293 0)
(1.51483 0.950135 0)
(3 7.21314e-10 0)
(3 7.38959e-09 0)
(3 2.00946e-08 0)
(3 6.69411e-08 0)
(3 1.43938e-07 0)
(3 4.14213e-07 0)
(3 8.51337e-07 0)
(3 2.37044e-06 0)
(2.99999 4.82592e-06 0)
(2.99998 1.33298e-05 0)
(2.99995 2.70688e-05 0)
(2.99988 7.46904e-05 0)
(2.99973 0.000151258 0)
(2.99932 0.000419253 0)
(2.99852 0.000843382 0)
(2.99614 0.00238608 0)
(2.99182 0.00469329 0)
(2.97731 0.0142092 0)
(2.94966 0.0275515 0)
(2.86 0.0890823 0)
(2.62055 0.219069 0)
(2.09774 0.585196 0)
(1.66659 0.885626 0)
(1.56076 0.943136 0)
(1.54605 0.956466 0)
(3 8.60971e-10 0)
(3 3.77367e-09 0)
(3 1.58556e-08 0)
(3 3.68021e-08 0)
(3 1.10231e-07 0)
(3 2.31011e-07 0)
(3 6.45356e-07 0)
(3 1.32368e-06 0)
(2.99999 3.63583e-06 0)
(2.99999 7.42206e-06 0)
(2.99997 2.02992e-05 0)
(2.99992 4.13472e-05 0)
(2.99983 0.000113138 0)
(2.99957 0.000229633 0)
(2.99905 0.000633915 0)
(2.99756 0.00126446 0)
(2.9947 0.00366189 0)
(2.98589 0.00686215 0)
(2.96905 0.0222056 0)
(2.9149 0.042349 0)
(2.7793 0.142135 0)
(2.43072 0.343868 0)
(1.86458 0.790866 0)
(1.62662 0.927767 0)
(1.58165 0.954763 0)
(3 4.89116e-10 0)
(3 2.66183e-09 0)
(3 9.87031e-09 0)
(3 2.53215e-08 0)
(3 6.91291e-08 0)
(3 1.58105e-07 0)
(3 4.05602e-07 0)
(3 9.0469e-07 0)
(3 2.28786e-06 0)
(2.99999 5.07331e-06 0)
(2.99998 1.27885e-05 0)
(2.99996 2.83037e-05 0)
(2.99989 7.135e-05 0)
(2.99976 0.000157628 0)
(2.99938 0.000398611 0)
(2.99866 0.000877718 0)
(2.99649 0.00224692 0)
(2.99264 0.00491923 0)
(2.97929 0.0130364 0)
(2.95497 0.0292551 0)
(2.87328 0.0803355 0)
(2.66053 0.217267 0)
(2.18082 0.550864 0)
(1.74525 0.884968 0)
(1.62954 0.950302 0)
(3 1.90688e-10 0)
(3 1.90435e-09 0)
(3 5.23908e-09 0)
(3 1.72756e-08 0)
(3 3.74699e-08 0)
(3 1.06569e-07 0)
(3 2.20598e-07 0)
(3 6.06127e-07 0)
(3 1.2419e-06 0)
(2.99999 3.38128e-06 0)
(2.99999 6.91106e-06 0)
(2.99997 1.87689e-05 0)
(2.99994 3.82924e-05 0)
(2.99984 0.000104101 0)
(2.99965 0.00021168 0)
(2.9991 0.000581899 0)
(2.99806 0.00115859 0)
(2.99487 0.00336573 0)
(2.98929 0.00628553 0)
(2.96988 0.0204216 0)
(2.93193 0.0387938 0)
(2.81307 0.127661 0)
(2.48141 0.327871 0)
(1.98492 0.737999 0)
(1.71381 0.913576 0)
(3 1.90956e-10 0)
(3 1.03023e-09 0)
(3 3.82303e-09 0)
(3 9.79998e-09 0)
(3 2.6707e-08 0)
(3 6.09985e-08 0)
(3 1.55981e-07 0)
(3 3.47196e-07 0)
(3 8.74299e-07 0)
(3 1.93394e-06 0)
(2.99999 4.85053e-06 0)
(2.99998 1.07063e-05 0)
(2.99996 2.68318e-05 0)
(2.9999 5.91011e-05 0)
(2.99978 0.000148396 0)
(2.99945 0.0003257 0)
(2.99881 0.000828564 0)
(2.99691 0.00178168 0)
(2.9935 0.00479857 0)
(2.98185 0.00983698 0)
(2.96122 0.0288636 0)
(2.89148 0.0636206 0)
(2.70694 0.192605 0)
(2.29248 0.4903 0)
(1.84623 0.856735 0)
(3 1.35665e-10 0)
(3 6.17666e-10 0)
(3 2.53888e-09 0)
(3 5.98028e-09 0)
(3 1.75953e-08 0)
(3 3.73159e-08 0)
(3 1.02388e-07 0)
(3 2.12301e-07 0)
(3 5.72573e-07 0)
(3 1.18162e-06 0)
(3 3.17111e-06 0)
(2.99999 6.53871e-06 0)
(2.99998 1.75174e-05 0)
(2.99994 3.6088e-05 0)
(2.99987 9.67235e-05 0)
(2.99967 0.000198688 0)
(2.99928 0.000536695 0)
(2.99817 0.00108336 0)
(2.996 0.00306506 0)
(2.9897 0.00579273 0)
(2.97692 0.0185213 0)
(2.93974 0.034131 0)
(2.84794 0.115335 0)
(2.60733 0.273446 0)
(2.09319 0.686821 0)
(3 8.26612e-11 0)
(3 3.75925e-10 0)
(3 1.54457e-09 0)
(3 3.64108e-09 0)
(3 1.07018e-08 0)
(3 2.27042e-08 0)
(3 6.22072e-08 0)
(3 1.28962e-07 0)
(3 3.47284e-07 0)
(3 7.1618e-07 0)
(3 1.91954e-06 0)
(2.99999 3.95318e-06 0)
(2.99998 1.0581e-05 0)
(2.99997 2.17662e-05 0)
(2.99992 5.82865e-05 0)
(2.99982 0.000119611 0)
(2.99954 0.000321517 0)
(2.99901 0.000656479 0)
(2.99743 0.00178756 0)
(2.99464 0.00361811 0)
(2.98502 0.0101269 0)
(2.96827 0.0210936 0)
(2.91085 0.0600507 0)
(2.77126 0.14689 0)
(2.42108 0.398939 0)
(3 2.95499e-11 0)
(3 2.84098e-10 0)
(3 7.94961e-10 0)
(3 2.57249e-09 0)
(3 5.65083e-09 0)
(3 1.57827e-08 0)
(3 3.30284e-08 0)
(3 8.91136e-08 0)
(3 1.84448e-07 0)
(3 4.93123e-07 0)
(3 1.01818e-06 0)
(3 2.71399e-06 0)
(2.99999 5.59965e-06 0)
(2.99998 1.49088e-05 0)
(2.99995 3.07182e-05 0)
(2.99989 8.18464e-05 0)
(2.99972 0.000168088 0)
(2.99939 0.000451958 0)
(2.99847 0.000910737 0)
(2.99664 0.00256799 0)
(2.99147 0.00489248 0)
(2.98072 0.0152916 0)
(2.9505 0.0290373 0)
(2.87779 0.0940921 0)
(2.68418 0.22134 0)
(3 2.12708e-11 0)
(3 1.63644e-10 0)
(3 5.05132e-10 0)
(3 1.50381e-09 0)
(3 3.56037e-09 0)
(3 9.2575e-09 0)
(3 2.07646e-08 0)
(3 5.23411e-08 0)
(3 1.15919e-07 0)
(3 2.90006e-07 0)
(3 6.40285e-07 0)
(3 1.5991e-06 0)
(3 3.52729e-06 0)
(2.99999 8.80942e-06 0)
(2.99997 1.94168e-05 0)
(2.99993 4.85521e-05 0)
(2.99985 0.000106882 0)
(2.99963 0.000268123 0)
(2.99919 0.000589254 0)
(2.99796 0.00148589 0)
(2.99557 0.00329256 0)
(2.98844 0.00828568 0)
(2.97469 0.0192455 0)
(2.93262 0.0482427 0)
(2.83138 0.125168 0)
(3 1.74811e-11 0)
(3 7.8325e-11 0)
(3 3.2354e-10 0)
(3 7.60739e-10 0)
(3 2.23757e-09 0)
(3 4.73172e-09 0)
(3 1.29524e-08 0)
(3 2.67347e-08 0)
(3 7.18842e-08 0)
(3 1.47469e-07 0)
(3 3.94637e-07 0)
(3 8.08101e-07 0)
(3 2.15959e-06 0)
(2.99999 4.41764e-06 0)
(2.99998 1.1804e-05 0)
(2.99996 2.41097e-05 0)
(2.99991 6.45003e-05 0)
(2.9998 0.000131384 0)
(2.99949 0.00035318 0)
(2.99889 0.000714754 0)
(2.99713 0.00195563 0)
(2.99401 0.0038963 0)
(2.9834 0.0111551 0)
(2.96477 0.0224036 0)
(2.90175 0.0657251 0)
(3 5.70593e-12 0)
(3 5.70968e-11 0)
(3 1.56968e-10 0)
(3 5.14714e-10 0)
(3 1.11187e-09 0)
(3 3.13599e-09 0)
(3 6.43802e-09 0)
(3 1.75312e-08 0)
(3 3.54941e-08 0)
(3 9.58553e-08 0)
(3 1.93033e-07 0)
(3 5.20536e-07 0)
(3 1.04457e-06 0)
(3 2.81792e-06 0)
(2.99999 5.63383e-06 0)
(2.99998 1.52206e-05 0)
(2.99994 3.02676e-05 0)
(2.99987 8.20757e-05 0)
(2.99968 0.000161866 0)
(2.99929 0.000445201 0)
(2.99822 0.000852623 0)
(2.9961 0.00249365 0)
(2.99003 0.00441502 0)
(2.97763 0.0146924 0)
(2.94203 0.0253182 0)
(3 3.82904e-12 0)
(3 2.92305e-11 0)
(3 9.03458e-11 0)
(3 2.66901e-10 0)
(3 6.31139e-10 0)
(3 1.6213e-09 0)
(3 3.62211e-09 0)
(3 8.98835e-09 0)
(3 1.97894e-08 0)
(3 4.8614e-08 0)
(3 1.06569e-07 0)
(3 2.60803e-07 0)
(3 5.70717e-07 0)
(3 1.39384e-06 0)
(2.99999 3.04675e-06 0)
(2.99998 7.43053e-06 0)
(2.99996 1.62268e-05 0)
(2.9999 3.95333e-05 0)
(2.99979 8.62657e-05 0)
(2.99947 0.000209525 0)
(2.99883 0.000460183 0)
(2.99698 0.00109236 0)
(2.9935 0.00250243 0)
(2.98223 0.00552815 0)
(2.96136 0.0139317 0)
(3 2.37415e-12 0)
(3 1.28288e-11 0)
(3 4.73007e-11 0)
(3 1.21259e-10 0)
(3 3.24434e-10 0)
(3 7.36368e-10 0)
(3 1.83166e-09 0)
(3 4.03023e-09 0)
(3 9.80358e-09 0)
(3 2.13626e-08 0)
(3 5.14725e-08 0)
(3 1.1168e-07 0)
(3 2.67402e-07 0)
(3 5.78373e-07 0)
(2.99999 1.3771e-06 0)
(2.99999 2.96942e-06 0)
(2.99997 7.03079e-06 0)
(2.99993 1.51114e-05 0)
(2.99982 3.5564e-05 0)
(2.99961 7.62042e-05 0)
(2.99896 0.000178356 0)
(2.99781 0.000379386 0)
(2.99372 0.000896536 0)
(2.98713 0.00185402 0)
(2.96152 0.00454388 0)
(3 2.5824e-13 0)
(3 8.80107e-12 0)
(3 1.67184e-11 0)
(3 7.61551e-11 0)
(3 1.18886e-10 0)
(3 4.54039e-10 0)
(3 6.59274e-10 0)
(3 2.4757e-09 0)
(3 3.38559e-09 0)
(3 1.31207e-08 0)
(3 1.67403e-08 0)
(3 6.85418e-08 0)
(3 7.9972e-08 0)
(3 3.53543e-07 0)
(3 3.64385e-07 0)
(2.99999 1.79798e-06 0)
(2.99997 1.53239e-06 0)
(2.99993 9.01641e-06 0)
(2.99984 5.48345e-06 0)
(2.99959 4.5491e-05 0)
(2.99908 9.35337e-06 0)
(2.99758 0.000254291 0)
(2.99472 -0.000133912 0)
(2.98525 0.00174301 0)
(2.9678 -0.00183234 0)
(3 1.21433e-12 0)
(3 1.10016e-12 0)
(3 1.5411e-11 0)
(3 1.50507e-11 0)
(3 1.0294e-10 0)
(3 9.29664e-11 0)
(3 5.88202e-10 0)
(3 4.84291e-10 0)
(3 3.24253e-09 0)
(3 2.39775e-09 0)
(3 1.77851e-08 0)
(3 1.17178e-08 0)
(3 9.78918e-08 0)
(3 5.72789e-08 0)
(3 5.42074e-07 0)
(2.99999 2.8031e-07 0)
(2.99997 3.02668e-06 0)
(2.99993 1.35415e-06 0)
(2.99985 1.71185e-05 0)
(2.99961 6.12384e-06 0)
(2.99913 9.92466e-05 0)
(2.99769 1.31329e-05 0)
(2.99496 0.000638819 0)
(2.98577 -0.000330242 0)
(2.96887 0.00460189 0)
(3 8.28968e-13 0)
(3 -7.64317e-13 0)
(3 8.29365e-12 0)
(3 -2.68653e-12 0)
(3 5.43815e-11 0)
(3 -1.52637e-11 0)
(3 3.12435e-10 0)
(3 -1.15395e-10 0)
(3 1.74753e-09 0)
(3 -8.40509e-10 0)
(3 9.79724e-09 0)
(3 -5.61531e-09 0)
(3 5.55474e-08 0)
(3 -3.4878e-08 0)
(3 3.19208e-07 0)
(2.99999 -2.05222e-07 0)
(2.99997 1.86093e-06 0)
(2.99994 -1.17587e-06 0)
(2.99984 1.10392e-05 0)
(2.99966 -6.8694e-06 0)
(2.99909 6.72356e-05 0)
(2.99803 -4.876e-05 0)
(2.99444 0.000463514 0)
(2.98849 -0.000570389 0)
(2.96481 0.00374794 0)
(3 1.12005e-13 0)
(3 9.98177e-13 0)
(3 3.02674e-12 0)
(3 8.91091e-12 0)
(3 2.09126e-11 0)
(3 5.38106e-11 0)
(3 1.19366e-10 0)
(3 2.97594e-10 0)
(3 6.50978e-10 0)
(3 1.61394e-09 0)
(3 3.51984e-09 0)
(3 8.74083e-09 0)
(3 1.90828e-08 0)
(3 4.74829e-08 0)
(3 1.03939e-07 0)
(2.99999 2.58197e-07 0)
(2.99997 5.66436e-07 0)
(2.99994 1.39655e-06 0)
(2.99985 3.0587e-06 0)
(2.99966 7.47565e-06 0)
(2.99909 1.60565e-05 0)
(2.99802 4.083e-05 0)
(2.99453 7.78538e-05 0)
(2.9885 0.000240865 0)
(2.96548 0.00042726 0)
(3 -4.21008e-13 0)
(3 2.96271e-12 0)
(3 -2.12363e-13 0)
(3 2.33986e-11 0)
(3 1.67499e-12 0)
(3 1.42878e-10 0)
(3 1.21908e-11 0)
(3 8.34536e-10 0)
(3 6.28691e-11 0)
(3 4.82946e-09 0)
(3 2.85382e-10 0)
(3 2.78618e-08 0)
(3 1.12622e-09 0)
(3 1.60507e-07 0)
(3 2.81913e-09 0)
(2.99999 9.24239e-07 0)
(2.99997 -1.84487e-08 0)
(2.99994 5.32526e-06 0)
(2.99985 -5.63056e-07 0)
(2.99967 3.08797e-05 0)
(2.99912 -1.18905e-05 0)
(2.99808 0.000194904 0)
(2.99461 -0.000229208 0)
(2.98878 0.00137645 0)
(2.96574 -0.00285822 0)
(3 5.74558e-14 0)
(3 3.18606e-13 0)
(3 1.02353e-12 0)
(3 2.98803e-12 0)
(3 7.13345e-12 0)
(3 1.8508e-11 0)
(3 4.1731e-11 0)
(3 1.04465e-10 0)
(3 2.32186e-10 0)
(3 5.72341e-10 0)
(3 1.26491e-09 0)
(3 3.08486e-09 0)
(3 6.78887e-09 0)
(3 1.63955e-08 0)
(3 3.59305e-08 0)
(2.99999 8.59198e-08 0)
(2.99998 1.8745e-07 0)
(2.99994 4.43659e-07 0)
(2.99987 9.62435e-07 0)
(2.99965 2.2534e-06 0)
(2.99923 4.88921e-06 0)
(2.99784 1.12348e-05 0)
(2.99551 2.46838e-05 0)
(2.98632 5.58105e-05 0)
(2.97066 0.000120491 0)
(3 5.34408e-13 0)
(3 -2.01992e-12 0)
(3 3.06325e-12 0)
(3 -1.49882e-11 0)
(3 1.80721e-11 0)
(3 -9.12686e-11 0)
(3 1.03299e-10 0)
(3 -5.40392e-10 0)
(3 5.88029e-10 0)
(3 -3.1795e-09 0)
(3 3.3543e-09 0)
(3 -1.86215e-08 0)
(3 1.92656e-08 0)
(3 -1.08608e-07 0)
(3 1.12161e-07 0)
(2.99999 -6.32051e-07 0)
(2.99997 6.7042e-07 0)
(2.99994 -3.68596e-06 0)
(2.99985 4.24333e-06 0)
(2.99967 -2.1887e-05 0)
(2.99912 3.24465e-05 0)
(2.9981 -0.000149975 0)
(2.99464 0.000344006 0)
(2.98886 -0.00119626 0)
(2.96593 0.00339856 0)
(1.20847 1.02453 0)
(1.38315 0.779774 0)
(0.84015 0.429751 0)
(0.029051 0.354323 0)
(-0.242789 0.0402892 0)
(-0.411876 0.0026625 0)
(-0.572763 -0.0188658 0)
(-0.652387 -0.0254831 0)
(-0.687862 -0.00797424 0)
(-0.723083 0.0133726 0)
(-0.777382 0.0231196 0)
(-0.8373 0.0225819 0)
(-0.890413 0.0165061 0)
(-0.935587 0.00980022 0)
(-0.979045 0.00644118 0)
(-1.02474 0.00532582 0)
(-1.07156 0.00498288 0)
(-1.11644 0.00485731 0)
(-1.15643 0.00443257 0)
(-1.19122 0.00327738 0)
(-1.22467 0.00190937 0)
(-1.2604 0.00193097 0)
(-1.28902 0.0041143 0)
(-1.3039 0.00424931 0)
(-1.31102 0.00316995 0)
(-1.30807 0.00177474 0)
(-1.28552 -0.000795927 0)
(-1.23867 -0.00493457 0)
(-1.17173 -0.0101029 0)
(-1.0913 -0.0148944 0)
(-1.00412 -0.0186878 0)
(-0.91461 -0.0214164 0)
(-0.825239 -0.023192 0)
(-0.737081 -0.0245687 0)
(-0.652658 -0.0251849 0)
(-0.572427 -0.0255048 0)
(-0.496116 -0.0257665 0)
(-0.422784 -0.0264075 0)
(-0.351418 -0.0284331 0)
(-0.282748 -0.0301838 0)
(-0.217707 -0.0311997 0)
(-0.155282 -0.0323474 0)
(-0.0947967 -0.0334237 0)
(-0.0377187 -0.0346316 0)
(0.0221964 -0.0296412 0)
(0.0750603 -0.0276418 0)
(0.124704 -0.0261388 0)
(0.171553 -0.0249314 0)
(0.216112 -0.0239194 0)
(0.258601 -0.0229493 0)
(0.299381 -0.0219702 0)
(0.338488 -0.0210161 0)
(0.375654 -0.019972 0)
(0.410633 -0.0189191 0)
(0.444321 -0.018053 0)
(0.478011 -0.0175239 0)
(0.511307 -0.016999 0)
(0.543388 -0.0163169 0)
(0.574303 -0.0155863 0)
(0.604197 -0.0148932 0)
(0.633231 -0.0142576 0)
(0.66152 -0.0136405 0)
(0.689141 -0.0130718 0)
(0.716124 -0.0125184 0)
(0.742546 -0.0120053 0)
(0.768431 -0.0115137 0)
(0.79384 -0.011052 0)
(0.818801 -0.0106121 0)
(0.843346 -0.010194 0)
(0.867503 -0.00979185 0)
(0.891297 -0.00940739 0)
(0.914741 -0.00903512 0)
(0.937859 -0.00867563 0)
(0.960662 -0.0083264 0)
(0.983166 -0.00798783 0)
(1.00538 -0.00765724 0)
(1.02733 -0.0073353 0)
(1.04902 -0.00701972 0)
(1.07046 -0.00671046 0)
(1.09166 -0.00640474 0)
(1.11262 -0.00610316 0)
(1.13335 -0.00580304 0)
(1.15383 -0.00550597 0)
(1.17407 -0.00520976 0)
(1.19404 -0.00491671 0)
(1.21374 -0.00462476 0)
(1.23316 -0.00433472 0)
(1.25227 -0.00404437 0)
(1.27106 -0.00375282 0)
(1.2895 -0.00345611 0)
(1.30755 -0.00315225 0)
(1.32516 -0.00283313 0)
(1.34224 -0.00249682 0)
(1.35867 -0.00213163 0)
(1.37429 -0.00171166 0)
(1.38883 -0.00124082 0)
(1.40194 -0.00072686 0)
(1.41313 -0.000128643 0)