/*--------------------------------*- C++ -*----------------------------------*\
| =========                 |                                                 |
| \\      /  F ield         | OpenFOAM: The Open Source CFD Toolbox           |
|  \\    /   O peration     | Version:  2412                                  |
|   \\  /    A nd           | Website:  www.openfoam.com                      |
|    \\/     M anipulation  |                                                 |
\*---------------------------------------------------------------------------*/
FoamFile
{
    version     2.0;
    format      ascii;
    arch        "LSB;label=32;scalar=64";
    class       volScalarField;
    location    "8";
    object      p;
}
// * * * * * * * * * * * * * * * * * * * * * * * * * * * * * * * * * * * * * //

dimensions      [0 2 -2 0 0 0 0];

internalField   nonuniform List<scalar> 
20000
(
4.33198e+07
-2.93017e+07
-1.18297e+07
-6.67612e+06
-3.75674e+06
-2.19495e+06
-1.31749e+06
-804924
-492164
-292976
-160420
-68131.7
-878.567
50390.4
91188.6
124947
153839
179258
202109
222986
242281
260260
277102
292936
307852
321918
335184
347692
359476
370566
380989
390767
399920
408465
416420
423801
430632
436940
442759
448125
453077
457649
461872
465770
469361
472661
475684
478446
480969
483282
485416
487412
489308
491145
492957
494773
496608
498461
500309
502115
503832
505416
506820
508014
509020
509880
510592
511120
511451
511601
511600
511512
511412
511344
511362
511479
511665
511878
512115
512369
512603
512788
512929
513064
513210
513383
513593
513849
514145
514467
514798
515133
515472
515821
516182
516551
516926
517307
517692
518085
-1.88548e+06
-3.77202e+06
-2.74432e+06
-1.83333e+06
-1.08587e+06
-657468
-401326
-245187
-143502
-73131.2
-21272.1
19406.2
53156.2
82475.7
108844
133139
155883
177384
197821
217296
235869
253572
270430
286457
301671
316087
329722
342595
354727
366140
376858
386904
396303
405075
413246
420839
427880
434397
440422
445988
451127
455870
460244
464273
467977
471374
474482
477324
479924
482315
484533
486621
488620
490568
492494
494412
496316
498189
500005
501737
503353
504817
506097
507180
508072
508783
509323
509706
509957
510107
510202
510284
510389
510549
510771
511049
511344
511611
511843
512057
512272
512481
512685
512895
513119
513364
513635
513930
514247
514578
514916
515257
515598
515941
516286
516630
516972
517306
517625
517931
-298216
-620705
-355108
47397.2
230429
272143
249001
205738
168430
141268
124502
116809
116517
121987
131776
144679
159728
176159
193380
210938
228494
245793
262650
278935
294558
309461
323611
336994
349611
361470
372590
382993
392706
401759
410182
418007
425266
431992
438217
443971
449286
454187
458701
462851
466660
470148
473342
476266
478953
481439
483763
485968
488094
490171
492214
494217
496163
498029
499792
501425
502903
504203
505315
506245
507000
507594
508050
508401
508679
508917
509145
509385
509654
509952
510259
510559
510854
511144
511429
511709
511987
512266
512548
512835
513132
513440
513760
514091
514431
514778
515127
515478
515828
516179
516529
516876
517215
517543
517855
518150
58958.7
45994.8
110119
240360
383486
431821
391410
316688
252428
201793
165045
141018
127923
123742
126542
134621
146548
161158
177525
194926
212809
230756
248462
265704
282327
298229
313346
327644
341110
353749
365577
376618
386903
396467
405348
413584
421214
428276
434806
440837
446401
451527
456242
460573
464546
468189
471530
474602
477442
480087
482578
484954
487244
489465
491615
493676
495627
497450
499131
500653
502000
503161
504142
504957
505626
506174
506633
507033
507402
507758
508115
508482
508854
509222
509579
509930
510278
510627
510976
511325
511675
512024
512373
512722
513072
513425
513780
514137
514497
514858
515220
515582
515943
516300
516654
517001
517339
517664
517974
518269
117279
-108008
-169953
-23571.8
203684
297333
275906
217120
169093
132737
107227
90344.8
81759.4
80963.2
86727.1
97651.1
112399
129806
148909
168944
189322
209600
229455
248662
267067
284574
301129
316710
331318
344968
357690
369518
380495
390664
400075
408774
416809
424224
431063
437364
443165
448500
453405
457912
462053
465862
469373
472622
475649
478491
481181
483744
486195
488529
490735
492800
494714
496468
498053
499459
500680
501728
502624
503389
504048
504633
505171
505681
506174
506658
507135
507601
508051
508490
508920
509341
509757
510168
510575
510980
511381
511778
512172
512561
512948
513331
513711
514090
514466
514841
515215
515587
515956
516320
516680
517032
517377
517710
518030
518341
109256
-1.29311e+06
-1.3077e+06
-828278
-479690
-238867
-142796
-111163
-95838.7
-83443.5
-70351.1
-56835.4
-41439.9
-22765.3
-977.58
23245.1
49092.1
75799
102718
129337
155269
180241
204067
226635
247888
267811
286419
303748
319847
334774
348590
361358
373143
384007
394014
403226
411704
419502
426675
433269
439331
444905
450034
454757
459113
463139
466875
470356
473615
476681
479572
482294
484849
487235
489444
491477
493331
495000
496482
497785
498926
499928
500814
501613
502347
503037
503698
504335
504951
505543
506111
506658
507186
507698
508197
508682
509156
509621
510077
510525
510966
511400
511828
512250
512665
513075
513480
513880
514275
514667
515054
515438
515818
516193
516564
516929
517287
517636
517975
518311
74682.1
-4.6014e+06
-4.33414e+06
-3.29866e+06
-2.41761e+06
-1.71833e+06
-1.21398e+06
-864434
-632644
-485700
-389548
-314993
-250542
-192698
-139507
-90031.5
-43827.8
-679.263
39540.5
76934.5
111610
143687
173297
200581
225686
248762
269957
289416
307279
323673
338718
352521
365183
376793
387437
397197
406149
414363
421903
428827
435191
441048
446447
451433
456046
460326
464308
468022
471488
474724
477739
480538
483123
485503
487679
489654
491432
493021
494440
495709
496854
497899
498867
499777
500637
501458
502242
502990
503703
504384
505038
505667
506272
506857
507423
507971
508504
509023
509530
510026
510511
510987
511454
511912
512362
512804
513239
513667
514088
514504
514913
515316
515712
516102
516486
516863
517233
517595
517949
518302
6.78281e+06
-1.56281e+07
-8.96288e+06
-6.30378e+06
-4.32458e+06
-3.02341e+06
-2.18936e+06
-1.66818e+06
-1.32605e+06
-1.07155e+06
-865985
-695694
-552839
-431756
-328278
-239218
-162053
-94772.3
-35764.8
16267
62373.4
103408
140067
172924
202457
229066
253097
274845
294566
312480
328779
343628
357170
369527
380814
391132
400576
409228
417162
424445
431138
437300
442983
448234
453091
457589
461756
465617
469191
472497
475549
478354
480922
483265
485391
487315
489059
490644
492093
493428
494672
495838
496936
497975
498958
499890
500774
501615
502417
503185
503920
504626
505306
505961
506592
507202
507793
508367
508924
509468
509998
510516
511023
511518
512003
512477
512942
513397
513843
514280
514708
515128
515539
515942
516338
516727
517110
517487
517859
518235
1.21231e+08
-9.48309e+07
-3.98948e+07
-2.46246e+07
-1.4761e+07
-9.35215e+06
-6.20599e+06
-4.28384e+06
-3.04861e+06
-2.22292e+06
-1.6509e+06
-1.24157e+06
-939747
-710943
-533125
-391928
-277634
-183517
-104849
-38233.7
18815.8
68152.5
111179
148972
182370
212038
238511
262225
283539
302753
320120
335853
350137
363125
374957
385753
395620
404652
412927
420514
427480
433887
439786
445219
450222
454831
459074
462980
466572
469878
472914
475693
478233
480557
482689
484649
486460
488142
489706
491170
492544
493834
495050
496196
497279
498306
499282
500211
501098
501947
502760
503540
504290
505012
505708
506379
507028
507655
508264
508855
509430
509990
510536
511069
511589
512096
512591
513074
513545
514005
514455
514895
515326
515748
516163
516570
516972
517369
517762
518158
4.40874e+07
-6.5116e+07
-3.65309e+07
-2.31412e+07
-1.42613e+07
-9.30463e+06
-6.39364e+06
-4.52515e+06
-3.28603e+06
-2.43411e+06
-1.83031e+06
-1.39038e+06
-1.06183e+06
-810507
-613975
-457486
-330861
-226855
-140288
-67385.2
-5344.61
47947.9
94112.8
134407
169816
201116
228929
253751
275985
295961
313958
330215
344937
358298
370450
381524
391636
400879
409335
417077
424173
430689
436674
442171
447218
451851
456100
459994
463568
466859
469894
472697
475288
477688
479913
481983
483914
485718
487405
488985
490467
491861
493176
494417
495593
496709
497771
498783
499749
500674
501560
502411
503229
504016
504774
505504
506209
506890
507549
508188
508807
509409
509994
510564
511119
511659
512186
512699
513199
513687
514163
514628
515084
515530
515969
516399
516823
517241
517653
518067
-1.32777e+07
-1.83851e+07
-1.24263e+07
-8.59196e+06
-6.5426e+06
-5.1106e+06
-4.01226e+06
-3.12767e+06
-2.44524e+06
-1.92205e+06
-1.51688e+06
-1.19851e+06
-945192
-740574
-572775
-433836
-317951
-220513
-137944
-67453
-6854.31
45581.3
91235.8
131225
166457
197665
225444
250274
272542
292566
310616
326925
341690
355084
367257
378341
388454
397692
406140
413873
420962
427468
433440
438923
443965
448601
452865
456792
460418
463767
466870
469751
472430
474927
477257
479433
481468
483374
485161
486839
488418
489906
491312
492641
493903
495101
496243
497332
498373
499370
500325
501243
502125
502974
503792
504580
505340
506074
506783
507469
508133
508777
509403
510010
510601
511176
511736
512282
512814
513332
513838
514332
514815
515287
515750
516204
516650
517088
517517
517946
-4.15773e+06
-6.78463e+06
-6.12192e+06
-4.92466e+06
-3.91237e+06
-3.10332e+06
-2.52908e+06
-2.08213e+06
-1.71909e+06
-1.41907e+06
-1.16666e+06
-952074
-769280
-613498
-480295
-366116
-268093
-183666
-110649
-47214.3
8140.55
56648.4
99326.7
137026
170465
200250
226889
250802
272334
291772
309354
325285
339739
352871
364823
375720
385674
394783
403129
410787
417824
424295
430251
435738
440794
445456
449760
453738
457422
460837
464012
466966
469722
472297
474709
476969
479092
481086
482963
484730
486397
487971
489460
490872
492212
493488
494703
495864
496975
498039
499060
500041
500985
501893
502768
503612
504426
505211
505970
506703
507413
508099
508765
509412
510040
510650
511245
511824
512388
512937
513473
513995
514505
515002
515489
515965
516432
516889
517337
517782
-2.65716e+06
-4.46514e+06
-3.81955e+06
-3.03254e+06
-2.56229e+06
-2.20677e+06
-1.87465e+06
-1.5724e+06
-1.31231e+06
-1.09256e+06
-905705
-745082
-605950
-485250
-380163
-288191
-207462
-136451
-73846.1
-18514
30517.7
74073.8
112853
147455
178405
206165
231142
253685
274091
292606
309433
324749
338702
351427
363044
373664
383387
392304
400497
408039
414991
421406
427331
432807
437869
442551
446885
450901
454627
458090
461314
464324
467139
469779
472258
474590
476788
478860
480816
482663
484410
486063
487629
489116
490529
491875
493160
494387
495563
496690
497772
498812
499814
500778
501708
502605
503470
504306
505113
505893
506647
507377
508084
508769
509434
510080
510708
511319
511914
512494
513058
513608
514144
514667
515177
515676
516164
516642
517110
517575
-1.54025e+06
-2.60512e+06
-2.23765e+06
-1.83912e+06
-1.64295e+06
-1.48961e+06
-1.3142e+06
-1.1335e+06
-966498
-818021
-686524
-569587
-465300
-372232
-289137
-214854
-148374
-88831.9
-35472.7
12386.4
55363.9
94007.6
128793
160135
188405
213945
237068
258060
277169
294604
310541
325124
338477
350708
361918
372200
381642
390325
398325
405710
412538
418860
424720
430155
435198
439879
444225
448263
452018
455516
458779
461832
464694
467384
469918
472310
474570
476708
478732
480650
482467
484191
485827
487383
488863
490274
491622
492911
494145
495331
496469
497565
498620
499638
500619
501566
502480
503364
504217
505043
505840
506612
507359
508083
508784
509465
510126
510769
511394
512003
512596
513173
513736
514284
514820
515343
515855
516355
516846
517333
-1.00201e+06
-1.73166e+06
-1.50351e+06
-1.2471e+06
-1.12976e+06
-1.0458e+06
-942827
-827616
-714719
-610293
-515031
-428071
-348554
-275891
-209612
-149235
-94266
-44246.1
1239.21
42579.1
80149
114302
145357
173593
199268
222624
243899
263319
281091
297396
312383
326175
338872
350561
361322
371231
380360
388781
396562
403764
410444
416649
422421
427795
432799
437460
441802
445847
449618
453137
456427
459510
462406
465134
467709
470146
472456
474647
476728
478705
480584
482370
484069
485686
487227
488697
490101
491446
492735
493973
495163
496309
497414
498480
499509
500503
501463
502391
503289
504157
504997
505809
506595
507356
508094
508809
509503
510177
510833
511471
512092
512698
513288
513863
514424
514973
515509
516033
516546
517056
-661295
-1.16505e+06
-1.00603e+06
-830685
-759730
-716758
-658379
-585992
-510469
-437851
-369727
-305951
-246149
-190149
-137901
-89322.6
-44264.9
-2553.93
35978.5
71501.1
104197
134259
161876
187221
210456
231743
251249
269149
285613
300793
314821
327802
339819
350942
361230
370743
379540
387680
395222
402224
408736
414804
420468
425758
430703
435324
439643
443678
447450
450977
454281
457381
460298
463049
465652
468121
470466
472698
474823
476849
478778
480617
482369
484040
485634
487156
488612
490006
491343
492629
493865
495057
496206
497316
498389
499426
500428
501398
502337
503245
504125
504976
505799
506597
507369
508118
508845
509550
510236
510903
511553
512185
512802
513404
513991
514564
515124
515671
516206
516738
-448269
-811749
-697067
-570721
-522898
-497968
-461355
-412145
-358408
-305435
-254944
-206950
-161143
-117419
-75851.1
-36522.2
554.932
35409.6
68078.2
98601.7
127040
153476
178005
200718
221709
241074
258926
275392
290607
304701
317789
329962
341293
351836
361637
370740
379189
387034
394324
401109
407437
413351
418886
424073
428938
433500
437777
441785
445541
449060
452362
455466
458389
461151
463768
466254
468621
470880
473037
475098
477067
478948
480745
482461
484100
485668
487168
488606
489985
491312
492589
493820
495010
496159
497270
498346
499387
500395
501371
502316
503232
504119
504978
505811
506617
507398
508156
508892
509607
510302
510978
511638
512280
512907
513519
514116
514699
515269
515827
516381
-303319
-569840
-482670
-387008
-352110
-336750
-312967
-278450
-239147
-199597
-161482
-124862
-89411.3
-55007.6
-21747.8
10221.7
40809.9
69974.1
97683.1
123907
148631
171863
193630
213965
232908
250506
266825
281954
295995
309056
321238
332622
343272
353232
362538
371221
379313
386851
393876
400432
406562
412305
417695
422762
427528
432012
436228
440190
443912
447407
450692
453784
456700
459458
462074
464564
466940
469212
471387
473471
475468
477381
479212
480964
482641
484247
485784
487258
488674
490036
491348
492613
493836
495019
496165
497274
498349
499391
500401
501380
502329
503249
504141
505005
505843
506655
507443
508207
508950
509673
510376
511060
511728
512379
513015
513636
514242
514836
515416
515993
-202265
-401124
-333029
-258352
-231345
-221005
-204496
-178850
-148580
-117660
-87719.1
-58833.8
-30641.5
-2958.65
24149.8
50534.3
76081.3
100724
124409
147075
168672
189164
208534
226779
243898
259907
274835
288738
301695
313792
325117
335744
345730
355114
363923
372180
379906
387128
393880
400196
406115
411674
416905
421835
426486
430873
435011
438910
442580
446035
449287
452352
455246
457986
460588
463068
465439
467710
469890
471985
473997
475930
477786
479565
481271
482906
484474
485978
487423
488814
490154
491448
492699
493910
495084
496222
497326
498397
499437
500446
501425
502375
503296
504190
505057
505897
506713
507505
508275
509023
509752
510461
511153
511828
512487
513131
513760
514376
514978
515576
-129239
-279024
-224361
-164326
-142176
-134404
-122165
-102164
-77868.7
-52789.9
-28492.2
-5056.72
17912.6
40657.5
63157.5
85279.1
106908
127972
148413
168165
187158
205335
222654
239083
254602
269198
282879
295675
307643
318852
329378
339289
348636
357457
365775
373603
380959
387859
394327
400395
406094
411458
416517
421297
425816
430092
434135
437954
441557
444955
448158
451181
454038
456745
459320
461776
464128
466386
468558
470651
472667
474609
476478
478275
480001
481658
483248
484776
486244
487657
489020
490336
491609
492842
494039
495200
496328
497425
498490
499524
500529
501506
502453
503373
504266
505133
505974
506792
507586
508359
509111
509844
510559
511257
511938
512603
513254
513891
514513
515133
-75494.6
-189189
-144421
-95011.9
-76008.4
-69508.1
-59779.7
-43390.7
-23040
-1874.19
18594.9
38271.3
57567.6
76770.7
95902.2
114852
133513
151819
169716
187142
204024
220294
235898
250790
264932
278300
290882
302694
313774
324177
333970
343212
351955
360234
368068
375472
382454
389026
395206
401018
406489
411649
416525
421142
425518
429668
433601
437324
440845
444171
447311
450277
453082
455743
458276
460695
463015
465246
467399
469477
471486
473426
475298
477103
478840
480511
482117
483661
485146
486575
487954
489286
490576
491825
493039
494218
495365
496481
497567
498623
499650
500648
501619
502562
503478
504368
505232
506073
506890
507685
508460
509214
509950
510669
511371
512057
512728
513385
514027
514667
-35349.2
-122145
-84798.3
-43195.6
-26197.5
-20173.3
-11852.7
2235
19969.5
38496.9
56352.1
73421.9
90125
106782
123453
140050
156477
172675
188599
204192
219387
234111
248302
261907
274882
287192
298819
309764
320054
329733
338857
347483
355658
363417
370783
377766
384374
390615
396501
402050
407285
412232
416917
421361
425582
429593
433403
437017
440442
443681
446743
449639
452380
454981
457459
459828
462103
464296
466416
468468
470458
472386
474252
476055
477795
479472
481086
482639
484134
485574
486963
488306
489606
490867
492092
493283
494444
495574
496675
497748
498793
499810
500799
501762
502698
503608
504493
505354
506191
507007
507801
508576
509331
510069
510791
511496
512186
512862
513523
514182
-5236.3
-71980.5
-40320.5
-4510.07
11250.3
17286.3
24913.8
37588
53630.3
70423.9
86542.7
101853
116773
131646
146563
161459
176247
190876
205308
219494
233371
246869
259921
272471
284472
295886
306689
316878
326470
335502
344021
352080
359725
366991
373901
380470
386704
392609
398194
403473
408465
413192
417677
421939
425994
429856
433531
437023
440338
443478
446450
449261
451925
454454
456865
459172
461391
463533
465609
467625
469585
471490
473340
475133
476868
478543
480158
481714
483213
484657
486051
487399
488704
489970
491201
492400
493569
494708
495821
496906
497964
498995
500000
500979
501932
502859
503761
504640
505495
506328
507140
507932
508706
509461
510200
510923
511631
512324
513003
513680
17203.3
-34779.6
-7532.95
24013.9
39119.7
45520.8
52974
64889.5
79927.9
95664.2
110704
124894
138644
152316
166028
179734
193358
206852
220186
233319
246193
258738
270889
282588
293785
304445
314543
324073
333049
341500
349471
357007
364155
370950
377419
383578
389436
394999
400275
405275
410015
414513
418789
422859
426740
430441
433970
437329
440522
443550
446418
449134
451708
454154
456486
458720
460871
462952
464973
466942
468863
470736
472561
474335
476056
477722
479332
480884
482381
483825
485218
486565
487870
489137
490370
491571
492743
493888
495006
496099
497167
498209
499226
500217
501183
502125
503041
503934
504804
505653
506480
507288
508077
508848
509603
510342
511066
511775
512470
513164
33490.3
-8047.94
15726.4
44215.3
59144.5
66200.6
73895.8
85579.3
100171
115399
129893
143479
156557
169504
182462
195400
208253
220976
233544
245924
258063
269893
281350
292374
302919
312950
322446
331403
339832
347762
355230
362282
368961
375305
381343
387094
392572
397785
402741
407450
411926
416183
420238
424108
427803
431334
434705
437919
440978
443882
446635
449243
451715
454066
456308
458459
460533
462543
464501
466414
468286
470118
471909
473657
475357
477007
478604
480146
481636
483073
484460
485802
487103
488366
489595
490794
491965
493111
494232
495329
496402
497452
498477
499478
500455
501407
502335
503240
504123
504984
505824
506644
507447
508232
509000
509753
510491
511215
511925
512634
44558.7
9706.71
30706.7
57147.6
72349.2
80357.7
88694.9
100639
115302
130529
144965
158413
171266
183912
196514
209059
221485
233753
245841
257721
269348
280658
291588
302080
312089
321586
330557
339000
346931
354377
361374
367966
374195
380097
385707
391047
396134
400982
405601
410002
414195
418196
422017
425671
429170
432519
435721
438779
441691
444459
447084
449571
451931
454175
456317
458375
460362
462293
464179
466028
467843
469627
471377
473091
474763
476390
477968
479495
480970
482396
483773
485105
486396
487651
488873
490066
491233
492376
493496
494594
495670
496723
497754
498762
499746
500707
501644
502559
503451
504322
505173
506004
506818
507614
508395
509160
509911
510648
511370
512093
50854.2
19111.9
37824.5
63107.3
79041.3
88341.7
97748.9
110462
125726
141466
156334
170110
183180
195945
208584
221098
233429
245540
257410
269022
280335
291293
301836
311910
321475
330508
339003
346970
354429
361411
367955
374099
379885
385352
390531
395452
400137
404603
408864
412933
416823
420547
424115
427539
430826
433980
437002
439891
442645
445264
447748
450104
452338
454464
456496
458450
460342
462186
463992
465770
467523
469251
470954
472627
474264
475862
477415
478921
480377
481785
483147
484464
485743
486985
488197
489380
490540
491677
492793
493888
494964
496019
497053
498065
499054
500021
500965
501887
502787
503667
504526
505367
506190
506996
507787
508563
509325
510072
510806
511541
52345.9
19975.6
36768.9
61825.3
79100.7
90222.3
101323
115484
131997
148825
164617
179151
192816
206040
219033
231819
244346
256572
268481
280055
291259
302039
312336
322102
331303
339928
347982
355489
362481
368999
375084
380776
386115
391138
395878
400366
404628
408687
412563
416272
419829
423248
426539
429710
432766
435708
438534
441240
443823
446280
448611
450822
452919
454916
456827
458669
460456
462205
463925
465624
467308
468976
470625
472252
473850
475412
476935
478414
479846
481232
482573
483872
485133
486359
487556
488728
489877
491005
492115
493206
494279
495333
496368
497382
498375
499346
500295
501223
502129
503015
503882
504731
505562
506377
507177
507962
508733
509491
510235
510980
48426
11031.7
26133.3
52029.5
71505.7
85290.6
99070.7
115746
134529
153351
170857
186832
201685
215867
229613
242967
255897
268374
280390
291951
303048
313648
323701
333161
342002
350214
357812
364834
371327
377346
382937
388145
393007
397558
401830
405855
409662
413278
416730
420040
423226
426303
429284
432173
434974
437682
440294
442802
445199
447481
449647
451701
453651
455508
457289
459009
460685
462331
463958
465574
467183
468785
470376
471951
473504
475027
476514
477961
479365
480724
482040
483316
484556
485763
486943
488099
489235
490353
491454
492539
493607
494658
495692
496706
497701
498674
499627
500560
501471
502364
503237
504093
504931
505754
506562
507356
508136
508903
509657
510411
37864.2
-10219.2
3196.24
31235.8
54154.7
71846.3
89659.5
110221
132531
154427
174563
192777
209531
225312
240377
254780
268497
281511
293830
305473
316451
326772
336430
345412
353718
361367
368390
374832
380756
386223
391285
395983
400351
404420
408216
411767
415106
418262
421268
424153
426940
429650
432294
434879
437403
439860
442242
444538
446737
448833
450823
452710
454503
456213
457856
459448
461006
462544
464072
465600
467130
468660
470188
471708
473211
474690
476137
477548
478919
480248
481536
482786
484002
485187
486347
487485
488606
489711
490801
491877
492939
493986
495017
496030
497025
498000
498956
499892
500809
501707
502586
503449
504295
505126
505943
506746
507535
508311
509073
509836
18005.8
-48955.2
-37449.5
-5273.27
23352.7
47337.6
71652.2
98438
126283
152854
176839
198201
217529
235405
252153
267877
282592
296312
309075
320929
331906
342026
351300
359741
367372
374246
380452
386090
391255
396026
400450
404558
408376
411920
415206
418255
421095
423760
426285
428706
431055
433356
435624
437867
440081
442258
444383
446443
448424
450316
452115
453824
455449
457003
458500
459958
461393
462818
464245
465680
467126
468582
470043
471503
472952
474383
475787
477159
478493
479790
481048
482270
483459
484621
485760
486879
487982
489072
490150
491216
492269
493310
494336
495347
496341
497318
498276
499215
500137
501040
501927
502797
503651
504491
505316
506128
506926
507711
508483
509255
-15904.2
-114608
-106094
-67212.9
-29461
4729.55
39709
76697.1
113516
147516
177438
203468
226430
247107
265973
283250
299042
313437
326531
338422
349193
358906
367610
375356
382210
388256
393598
398352
402631
406533
410148
413532
416710
419674
422417
424944
427276
429442
431480
433430
435330
437210
439090
440976
442865
444747
446603
448415
450167
451846
453448
454971
456424
457819
459170
460493
461805
463119
464444
465787
467149
468528
469920
471316
472708
474087
475445
476775
478073
479335
480562
481756
482920
484058
485175
486274
487360
488433
489497
490551
491594
492627
493648
494655
495647
496623
497583
498526
499452
500362
501255
502132
502995
503843
504678
505499
506307
507103
507885
508667
-71765.8
-222464
-218814
-168499
-114572
-62185.1
-8815.71
44873.7
95587
140489
178698
210930
238486
262507
283732
302580
319308
334124
347225
358790
368974
377901
385678
392404
398191
403164
407461
411221
414569
417605
420403
423006
425439
427718
429847
431817
433623
435280
436824
438299
439746
441198
442679
444196
445747
447317
448887
450436
451944
453398
454791
456122
457398
458631
459835
461025
462217
463422
464649
465901
467180
468483
469804
471135
472467
473792
475101
476388
477647
478876
480073
481241
482380
483496
484592
485672
486739
487796
488844
489884
490915
491938
492951
493953
494942
495917
496878
497824
498754
499670
500570
501455
502326
503184
504028
504860
505678
506485
507278
508071
-160424
-404570
-420427
-353941
-267258
-176028
-85578.4
-1275.26
72366.1
133512
182977
222976
255858
283434
306882
326933
344086
358742
371246
381905
390969
398645
405102
410492
414965
418678
421788
424445
426775
428875
430810
432612
434294
435854
437292
438614
439832
440953
441995
442994
443993
445027
446118
447276
448494
449758
451045
452332
453599
454831
456019
457164
458270
459351
460418
461487
462570
463677
464814
465985
467187
468418
469671
470938
472211
473482
474742
475986
477208
478405
479575
480717
481835
482931
484008
485069
486118
487157
488189
489214
490232
491243
492247
493242
494226
495200
496161
497110
498045
498966
499873
500766
501646
502513
503368
504210
505040
505858
506663
507468
-241364
-727891
-829588
-723211
-548333
-366738
-202540
-65209.1
43691.6
127383
191143
240219
278775
309677
334770
355273
372048
385757
396943
406063
413493
419525
424385
428257
431310
433713
435625
437191
438525
439710
440796
441808
442751
443621
444412
445126
445775
446376
446948
447514
448106
448756
449486
450300
451192
452147
453143
454156
455169
456166
457140
458092
459028
459957
460893
461847
462830
463848
464906
466004
467139
468306
469497
470707
471926
473147
474363
475568
476756
477924
479069
480191
481289
482366
483425
484468
485498
486519
487532
488540
489543
490541
491534
492521
493501
494473
495435
496386
497325
498252
499167
500069
500958
501835
502701
503554
504396
505225
506042
506860
49222.8
-1.5226e+06
-1.79356e+06
-1.45553e+06
-1.04563e+06
-692831
-409346
-189968
-25444.4
95453.5
183757
248536
296642
332847
360383
381556
397981
410692
420432
427875
433608
438057
441483
444042
445886
447180
448080
448715
449180
449543
449846
450110
450343
450546
450720
450866
450997
451126
451271
451456
451700
452023
452438
452946
453538
454197
454907
455649
456407
457173
457942
458714
459496
460295
461122
461984
462890
463841
464840
465883
466967
468086
469232
470398
471577
472762
473946
475122
476286
477433
478559
479663
480745
481804
482844
483867
484877
485877
486870
487859
488844
489828
490810
491789
492764
493734
494696
495650
496594
497528
498451
499362
500262
501150
502027
502892
503745
504587
505416
506247
766392
-2.88895e+06
-2.49603e+06
-1.91742e+06
-1.3861e+06
-925735
-556243
-274767
-67669.8
81546.9
187953
263467
316906
354858
382081
402094
417331
428810
436979
442669
446889
450304
453130
455203
456504
457252
457637
457746
457646
457403
457070
456692
456295
455901
455522
455165
454846
454584
454398
454300
454300
454404
454606
454898
455265
455692
456167
456678
457218
457784
458374
458993
459647
460341
461083
461876
462724
463626
464580
465583
466629
467713
468827
469966
471122
472288
473458
474624
475779
476917
478035
479129
480197
481239
482260
483261
484247
485223
486194
487161
488129
489098
490069
491040
492010
492978
493942
494900
495850
496791
497723
498644
499555
500455
501343
502220
503087
503942
504785
505630
3.36832e+06
-3.96701e+06
-2.37533e+06
-1.72834e+06
-1.21399e+06
-792850
-459878
-205028
-15375.2
122920
222462
293326
343175
378195
402793
419930
431780
439767
445214
449280
452743
455987
458549
460443
461490
462089
462552
462743
462610
462217
461643
460953
460201
459426
458666
457955
457321
456786
456370
456088
455941
455913
455984
456135
456349
456613
456918
457259
457633
458043
458492
458987
459534
460138
460802
461530
462320
463172
464083
465046
466058
467112
468204
469328
470477
471645
472823
474003
475174
476327
477455
478553
479618
480650
481654
482633
483596
484547
485493
486439
487389
488343
489304
490268
491236
492204
493170
494132
495089
496038
496979
497911
498833
499745
500646
501537
502418
503288
504147
505008
8.20453e+06
-4.74517e+06
-2.08618e+06
-1.35674e+06
-823761
-465805
-214045
-33351.5
97864.6
193658
263823
315243
353031
381132
402318
418274
430111
438813
445154
449810
453198
455431
456686
457670
458886
460384
461875
462960
463413
463421
463115
462583
461895
461112
460288
459473
458715
458060
457538
457157
456910
456780
456750
456801
456915
457078
457283
457524
457800
458115
458473
458881
459342
459863
460446
461093
461804
462581
463420
464320
465277
466289
467350
468457
469604
470784
471989
473204
474416
475610
476772
477895
478972
480006
481000
481964
482905
483833
484758
485684
486617
487560
488512
489473
490439
491409
492380
493348
494312
495269
496219
497161
498094
499018
499933
500839
501736
502623
503500
504380
3.04808e+06
-2.17922e+06
-943837
-672649
-401033
-189904
-28335.4
90736.2
177418
240837
287992
323881
351887
374251
392425
407104
418556
427362
434340
440123
444723
448292
451096
453475
455657
457557
459002
460010
460684
461083
461242
461190
460959
460586
460114
459586
459045
458528
458064
457675
457374
457168
457058
457034
457085
457197
457360
457564
457806
458085
458404
458765
459171
459625
460129
460685
461299
461971
462706
463506
464376
465315
466322
467393
468527
469716
470950
472213
473484
474738
475955
477121
478229
479278
480276
481233
482161
483074
483983
484895
485818
486753
487702
488662
489631
490605
491582
492556
493527
494492