/*--------------------------------*- C++ -*----------------------------------*\
| =========                 |                                                 |
| \\      /  F ield         | OpenFOAM: The Open Source CFD Toolbox           |
|  \\    /   O peration     | Version:  2412                                  |
|   \\  /    A nd           | Website:  www.openfoam.com                      |
|    \\/     M anipulation  |                                                 |
\*---------------------------------------------------------------------------*/
FoamFile
{
    version     2.0;
    format      ascii;
    arch        "LSB;label=32;scalar=64";
    class       surfaceScalarField;
    location    "8";
    object      phi;
}
// * * * * * * * * * * * * * * * * * * * * * * * * * * * * * * * * * * * * * //

dimensions      [0 3 -1 0 0 0 0];

oriented        oriented;

internalField   nonuniform List<scalar> 
39700
(
-84.4486
-19.3308
-64.9313
-19.5172
-49.4818
-15.4495
-38.9838
-10.498
-31.431
-7.55285
-26.0743
-5.35669
-22.2252
-3.84913
-19.4178
-2.80751
-17.3351
-2.08273
-15.7618
-1.57342
-14.5481
-1.21384
-13.5886
-0.959549
-12.8091
-0.779703
-12.1566
-0.652594
-11.594
-0.56281
-11.0948
-0.499361
-10.6406
-0.45439
-10.2186
-0.422285
-9.81979
-0.399035
-9.43826
-0.381789
-9.07002
-0.368526
-8.7125
-0.357825
-8.36413
-0.348693
-8.02403
-0.340447
-7.69177
-0.332626
-7.36724
-0.324925
-7.05051
-0.317148
-6.74178
-0.309179
-6.4413
-0.300955
-6.14936
-0.29245
-5.86624
-0.283663
-5.5922
-0.274611
-5.32749
-0.265324
-5.07229
-0.255841
-4.82677
-0.246209
-4.59102
-0.236479
-4.36509
-0.226709
-4.14896
-0.216958
-3.94255
-0.207286
-3.74572
-0.197757
-3.55828
-0.188434
-3.37995
-0.179381
-3.2104
-0.17066
-3.04925
-0.16233
-2.89606
-0.154444
-2.75035
-0.147044
-2.6116
-0.140156
-2.47931
-0.133785
-2.35299
-0.127909
-2.23219
-0.122478
-2.11655
-0.117421
-2.00579
-0.11265
-1.89972
-0.108078
-1.79822
-0.103637
-1.7012
-0.0992889
-1.60857
-0.0950428
-1.52021
-0.0909417
-1.43591
-0.0870414
-1.35546
-0.0833888
-1.27861
-0.0799948
-1.20519
-0.0767887
-1.1352
-0.0736137
-1.06887
-0.0702399
-1.00671
-0.0663853
-0.949571
-0.061751
-0.898326
-0.0562931
-0.853653
-0.0502165
-0.816264
-0.0434782
-0.787347
-0.0356016
-0.76735
-0.0273284
-0.753911
-0.0214432
-0.739763
-0.0227493
-0.722902
-0.0258954
-0.694235
-0.0377122
-0.639753
-0.063571
-0.555293
-0.0948419
-0.446841
-0.121528
-0.334517
-0.129637
-0.233888
-0.126828
-0.165034
-0.11238
-0.130994
-0.0771608
-0.0951669
-0.0607608
-0.0512881
-0.0589986
-0.00515486
-0.0584747
0.0421107
-0.0576403
0.0893089
-0.056173
0.135448
-0.0540813
0.17977
-0.0514795
0.221735
-0.0485096
0.260963
-0.0452864
0.297162
-0.0418656
0.330044
-0.0382316
0.359271
-0.0343211
0.38443
-0.0300508
0.405017
-0.0253265
0.420416
-0.0200338
0.429864
-0.0140326
0.432258
-0.0069509
0.426217
0.00148209
0.0117324
0.409841
13.919
1.97136
-4.28413
-1.31406
-11.8027
-7.93099
-14.0002
-8.30057
-14.0776
-7.47547
-13.9227
-5.51161
-13.6531
-4.11879
-13.3325
-3.12828
-12.9848
-2.43052
-12.625
-1.93327
-12.2625
-1.57648
-11.9017
-1.32052
-11.544
-1.13754
-11.1895
-1.00728
-10.8377
-0.914826
-10.4881
-0.849199
-10.1403
-0.802339
-9.79451
-0.768359
-9.45082
-0.74299
-9.10973
-0.723174
-8.77182
-0.706743
-8.43779
-0.692188
-8.10835
-0.678483
-7.78423
-0.664946
-7.46611
-0.651149
-7.15463
-0.636838
-6.85035
-0.621886
-6.55377
-0.606248
-6.2653
-0.58994
-5.98529
-0.573012
-5.71399
-0.555542
-5.4516
-0.537618
-5.19825
-0.519338
-4.95398
-0.500804
-4.71881
-0.482117
-4.4927
-0.463381
-4.27554
-0.444697
-4.06722
-0.426167
-3.86755
-0.407892
-3.67632
-0.389974
-3.4933
-0.37251
-3.3182
-0.355598
-3.15072
-0.339324
-2.99053
-0.323765
-2.83733
-0.308983
-2.69076
-0.295021
-2.55051
-0.281899
-2.41628
-0.269607
-2.28777
-0.258106
-2.16471
-0.247326
-2.04685
-0.237174
-1.93397
-0.227549
-1.82586
-0.218344
-1.72231
-0.209468
-1.62318
-0.200866
-1.52828
-0.19254
-1.43744
-0.18456
-1.35041
-0.177056
-1.26682
-0.170164
-1.18634
-0.163899
-1.10873
-0.158094
-1.03385
-0.152466
-0.961729
-0.146669
-0.892351
-0.140436
-0.82541
-0.133783
-0.760181
-0.127096
-0.695848
-0.120693
-0.631628
-0.114535
-0.566162
-0.108755
-0.497308
-0.10486
-0.423172
-0.105273
-0.343904
-0.112558
-0.258373
-0.123587
-0.171727
-0.140416
-0.100664
-0.156118
-0.0625272
-0.159246
-0.0539415
-0.155149
-0.0525293
-0.150753
-0.0495766
-0.146438
-0.0374884
-0.139815
0.00435194
-0.130953
0.0564743
-0.122781
0.104457
-0.116109
0.14786
-0.110277
0.187276
-0.104836
0.22338
-0.0995371
0.256729
-0.0942526
0.287701
-0.0889037
0.316477
-0.0834193
0.343078
-0.0777485
0.367464
-0.0718791
0.389617
-0.0658139
0.409565
-0.0595299
0.427351
-0.0529573
0.443002
-0.0459851
0.456532
-0.0384836
0.467928
-0.0302854
0.477338
-0.0211377
0.484743
-0.010562
0.00204728
0.490001
15.1194
0.919168
14.0542
-0.248852
7.88686
-1.76373
2.13699
-2.55077
-2.46267
-2.87593
-5.18957
-2.78483
-7.00735
-2.30114
-8.29929
-1.83646
-9.18731
-1.54264
-9.76115
-1.35956
-10.0994
-1.2384
-10.2614
-1.15861
-10.2915
-1.10771
-10.2225
-1.07639
-10.0798
-1.05777
-9.88238
-1.04683
-9.64495
-1.04
-9.3788
-1.03476
-9.09265
-1.0294
-8.79329
-1.02283
-8.48596
-1.01438
-8.17478
-1.0037
-7.86294
-0.990667
-7.55295
-0.975314
-7.24673
-0.957768
-6.94577
-0.938219
-6.65121
-0.916892
-6.36391
-0.894028
-6.08449
-0.869871
-5.81338
-0.844661
-5.55086
-0.818628
-5.2971
-0.791986
-5.05215
-0.764936
-4.81597
-0.737662
-4.58848
-0.710329
-4.36953
-0.683092
-4.15895
-0.656088
-3.95653
-0.629448
-3.76204
-0.60329
-3.57525
-0.57773
-3.3959
-0.552876
-3.22375
-0.52883
-3.05854
-0.505681
-2.90002
-0.483501
-2.74794
-0.462347
-2.60207
-0.442251
-2.46219
-0.423224
-2.32809
-0.405249
-2.19955
-0.388279
-2.07637
-0.372244
-1.95833
-0.357058
-1.8452
-0.342638
-1.73673
-0.328904
-1.63264
-0.315788
-1.53263
-0.30326
-1.43638
-0.29134
-1.3436
-0.280067
-1.2541
-0.269482
-1.16777
-0.25964
-1.08454
-0.250515
-1.00429
-0.242003
-0.926765
-0.233956
-0.851579
-0.226159
-0.778115
-0.21859
-0.705592
-0.211444
-0.63342
-0.204933
-0.561197
-0.199203
-0.488409
-0.194346
-0.414074
-0.191007
-0.338615
-0.1894
-0.264873
-0.189711
-0.196366
-0.194064
-0.136958
-0.199412
-0.0945721
-0.201719
-0.0648913
-0.20313
-0.0357598
-0.202468
-0.0031589
-0.199395
0.030507
-0.194595
0.0634647
-0.188612
0.0969308
-0.181691
0.13229
-0.174137
0.168497
-0.166356
0.204024
-0.158596
0.23807
-0.150927
0.270291
-0.143351
0.30058
-0.135845
0.328933
-0.128381
0.355394
-0.120926
0.380044
-0.113438
0.402975
-0.105877
0.424256
-0.0982057
0.443932
-0.0903989
0.462045
-0.082432
0.478681
-0.0742741
0.493999
-0.0658902
0.508258
-0.0572472
0.521833
-0.0482907
0.535233
-0.0388974
0.549231
-0.028806
-0.0178135
0.565068
9.7331
-1.71998
10.6225
-1.13832
9.09433
-0.235571
6.0824
0.461078
2.24539
0.960933
-1.56182
1.02214
-4.46451
0.601284
-6.43891
0.137751
-7.78002
-0.201692
-8.68538
-0.454358
-9.27467
-0.649272
-9.62562
-0.807835
-9.79487
-0.938639
-9.82637
-1.04508
-9.75432
-1.13003
-9.60528
-1.19609
-9.39987
-1.24564
-9.15408
-1.28081
-8.88023
-1.30352
-8.58781
-1.31553
-8.28413
-1.31837
-7.97472
-1.31343
-7.66382
-1.30191
-7.35461
-1.2849
-7.04945
-1.26333
-6.75008
-1.23801
-6.45776
-1.20966
-6.17336
-1.1789
-5.89748
-1.14626
-5.63047
-1.11221
-5.3725
-1.07716
-5.12363
-1.04146
-4.88379
-1.00541
-4.65286
-0.969273
-4.43063
-0.933276
-4.21686
-0.897613
-4.01131
-0.862449
-3.81367
-0.827932
-3.62367
-0.794186
-3.44103
-0.761325
-3.26546
-0.729451
-3.09671
-0.698654
-2.93451
-0.669013
-2.77863
-0.640583
-2.62884
-0.613401
-2.48496
-0.587486
-2.34678
-0.562838
-2.2141
-0.539443
-2.08674
-0.517257
-1.96449
-0.496212
-1.84715
-0.476235
-1.73446
-0.457277
-1.62615
-0.439295
-1.52194
-0.422219
-1.42158
-0.405998
-1.32481
-0.390651
-1.23139
-0.376223
-1.1411
-0.36272
-1.05372
-0.350185
-0.96913
-0.338541
-0.887243
-0.327612
-0.807898
-0.317351
-0.730841
-0.307641
-0.655611
-0.298677
-0.581873
-0.290543
-0.50958
-0.283182
-0.438503
-0.276941
-0.368727
-0.271643
-0.301082
-0.267275
-0.236184
-0.264435
-0.174843
-0.263313
-0.12119
-0.261807
-0.0738687
-0.260383
-0.0287624
-0.258379
0.0131852
-0.254872
0.051947
-0.250047
0.0884886
-0.244073
0.123447
-0.237146
0.157172
-0.229476
0.18998
-0.221253
0.222077
-0.212657
0.253424
-0.203839
0.283855
-0.194908
0.313203
-0.185931
0.341343
-0.176944
0.368191
-0.167964
0.393699
-0.158994
0.417846
-0.150026
0.440639
-0.141047
0.462114
-0.132042
0.482337
-0.123
0.501389
-0.113917
0.519376
-0.104787
0.536428
-0.0956031
0.552703
-0.0863574
0.568385
-0.0770415
0.583713
-0.0676557
0.599053
-0.0582012
0.615002
-0.0486389
-0.0389357
0.632396
9.36864
-5.59205
10.6518
-2.42149
8.52461
1.89156
4.13225
4.85336
-0.149901
5.24294
-3.65862
4.53064
-5.952
2.89445
-7.55173
1.73731
-8.65864
0.90506
-9.4047
0.291542
-9.86299
-0.191153
-10.0939
-0.577118
-10.1537
-0.879
-10.0866
-1.11235
-9.92695
-1.28991
-9.70109
-1.42217
-9.42924
-1.51772
-9.12673
-1.58357
-8.80511
-1.62541
-8.47303
-1.64789
-8.13692
-1.65479
-7.80147
-1.64919
-7.47012
-1.63362
-7.14527
-1.61012
-6.8286
-1.58039
-6.52123
-1.54579
-6.22386
-1.50748
-5.93685
-1.46638
-5.66036
-1.42325
-5.39436
-1.37875
-5.13869
-1.33339
-4.89313
-1.28762
-4.65737
-1.24181
-4.43106
-1.19625
-4.21386
-1.15119
-4.00539
-1.10684
-3.80529
-1.06336
-3.61318
-1.0209
-3.4287
-0.979566
-3.2515
-0.939473
-3.08127
-0.900697
-2.91769
-0.86331
-2.76046
-0.827373
-2.60933
-0.792924
-2.46403
-0.759973
-2.32436
-0.728517
-2.19008
-0.698553
-2.06098
-0.670073
-1.93682
-0.643051
-1.81734
-0.617419
-1.70235
-0.593075
-1.59164
-0.569956
-1.485
-0.54804
-1.3822
-0.527272
-1.28301
-0.507611
-1.18717
-0.489082
-1.09443
-0.471752
-1.00469
-0.455482
-0.917871
-0.440265
-0.833923
-0.426034
-0.752739
-0.41266
-0.674073
-0.400244
-0.597796
-0.388566
-0.523652
-0.37796
-0.451618
-0.368297
-0.381998
-0.359216
-0.314876
-0.351323
-0.250115
-0.34474
-0.187629
-0.339494
-0.129471
-0.333649
-0.0755863
-0.328235
-0.0240517
-0.323085
0.0241399
-0.31707
0.0683217
-0.310312
0.109082
-0.302862
0.147022
-0.294793
0.182681
-0.286181
0.216495
-0.277104
0.248788
-0.267648
0.279784
-0.257896
0.309621
-0.247934
0.338364
-0.237835
0.366032
-0.227661
0.392625
-0.217455
0.418139
-0.207248
0.442573
-0.197058
0.465933
-0.186894
0.488239
-0.17676
0.509528
-0.166658
0.529853
-0.156591
0.54928
-0.146559
0.567886
-0.136568
0.585762
-0.126623
0.603007
-0.11673
0.619738
-0.106893
0.636084
-0.0971175
0.65219
-0.0874184
0.668229
-0.0778237
0.684432
-0.0683515
-0.0589533
0.701069
10.744
-9.56244
5.10306
3.21947
-1.61013
8.60468
-6.53515
9.77831
-8.86279
7.57051
-9.93186
5.59963
-10.854
3.81656
-11.5209
2.40403
-11.8971
1.28119
-11.9945
0.388755
-11.8903
-0.295492
-11.6507
-0.816801
-11.3223
-1.20763
-10.9382
-1.49663
-10.5218
-1.70651
-10.0894
-1.85476
-9.65236
-1.95496
-9.21851
-2.01766
-8.7931
-2.05108
-8.37961
-2.06166
-7.98021
-2.05449
-7.59617
-2.03356
-7.22808
-2.00205
-6.87608
-1.96249
-6.53998
-1.91688
-6.21939
-1.86681
-5.91377
-1.81356
-5.62247
-1.75815
-5.34484
-1.7014
-5.08015
-1.64398
-4.82772
-1.5864
-4.58685
-1.5291
-4.35688
-1.47244
-4.13715
-1.41666
-3.92708
-1.362
-3.7261
-1.30859
-3.53371
-1.25657
-3.34942
-1.20605
-3.17278
-1.15712
-3.00337
-1.10986
-2.84078
-1.06432
-2.68464
-1.02054
-2.53461
-0.978566
-2.39036
-0.938408
-2.25159
-0.90005
-2.11804
-0.863452
-1.98948
-0.828588
-1.86566
-0.795459
-1.74635
-0.764037
-1.63131
-0.734237
-1.52039
-0.705895
-1.41344
-0.678945
-1.31025
-0.653407
-1.21057
-0.629281
-1.11417
-0.606523
-1.02094
-0.585015
-0.93071
-0.564901
-0.843465
-0.545892
-0.75913
-0.528042
-0.677644
-0.511276
-0.598828
-0.495595
-0.522488
-0.481122
-0.448768
-0.467317
-0.377576
-0.454766
-0.309068
-0.443122
-0.242703
-0.43276
-0.178466
-0.423804
-0.118187
-0.414084
-0.0614606
-0.405089
-0.00690086
-0.396205
0.0445836
-0.386923
0.0921705
-0.377337
0.136259
-0.367442
0.177234
-0.357253
0.215468
-0.346794
0.251304
-0.336094
0.285049
-0.325187
0.316972
-0.314108
0.347299
-0.302895
0.376212
-0.291585
0.403848
-0.280212
0.430304
-0.268811
0.455652
-0.257416
0.479946
-0.246052
0.503235
-0.234741
0.525563
-0.223497
0.546975
-0.21233
0.567522
-0.201248
0.587256
-0.190254
0.606228
-0.179349
0.62449
-0.168535
0.642094
-0.157815
0.659089
-0.147192
0.675523
-0.136674
0.691453
-0.126268
0.706941
-0.115987
0.722045
-0.105841
0.736806
-0.0958412
0.751258
-0.0859981
-0.0763185
0.765539
4.48393
-6.42008
-12.7663
20.4697
-19.4232
15.2615
-21.109
11.4641
-21.3248
7.78625
-20.6629
4.9377
-19.5703
2.72396
-18.2869
1.12053
-17.0162
0.0104299
-15.8286
-0.798985
-14.7274
-1.39682
-13.7178
-1.82652
-12.7948
-2.13078
-11.9507
-2.34089
-11.1781
-2.47933
-10.47
-2.563
-9.82023
-2.60498
-9.22284
-2.61528
-8.67259
-2.60159
-8.16468
-2.56985
-7.69481
-2.52466
-7.25911
-2.46957
-6.85415
-2.40736
-6.47687
-2.34015
-6.12454
-2.2696
-5.79479
-2.19699
-5.48547
-2.12333
-5.19472
-2.04939
-4.92086
-1.97578
-4.6624
-1.90299
-4.41802
-1.83138
-4.18653
-1.76123
-3.96686
-1.69278
-3.75804
-1.62619
-3.55923
-1.56156
-3.36967
-1.49896
-3.18868
-1.43841
-3.01569
-1.37994
-2.85015
-1.32361
-2.69157
-1.26946
-2.53948
-1.21749
-2.39345
-1.16771
-2.25311
-1.12012
-2.11807
-1.07473
-1.988
-1.03149
-1.86263
-0.990267
-1.74178
-0.950991
-1.62525
-0.913634
-1.51287
-0.878167
-1.40441
-0.84457
-1.29968
-0.812634
-1.19843
-0.782333
-1.10053
-0.753619
-1.00585
-0.726442
-0.914203
-0.70084
-0.825673
-0.676439
-0.739996
-0.653718
-0.657121
-0.632188
-0.576896
-0.61201
-0.499425
-0.592861
-0.424434
-0.575136
-0.352025
-0.558592
-0.282034
-0.542981
-0.213983
-0.529219
-0.148936
-0.515429
-0.0875717
-0.501761
-0.0293245
-0.48919
0.0265506
-0.476444
0.079094
-0.463655
0.128074
-0.450853
0.173776
-0.438025
0.216436
-0.425172
0.256307
-0.412292
0.293635
-0.39939
0.328654
-0.386472
0.361584
-0.373549
0.392627
-0.360633
0.421965
-0.347741
0.449762
-0.334886
0.476161
-0.322085
0.501289
-0.309355
0.525252
-0.29671
0.54814
-0.284163
0.570026
-0.271725
0.590974
-0.259408
0.611043
-0.247219
0.630287
-0.235165
0.64876
-0.22325
0.666515
-0.211479
0.683606
-0.199854
0.700093
-0.18838
0.716034
-0.177059
0.731488
-0.165896
0.746512
-0.154894
0.761161
-0.144062
0.77549
-0.133407
0.789547
-0.122936
0.803375
-0.112656
0.817018
-0.102574
-0.092707
0.830571
-34.0296
-1.99356
-43.083
29.5231
-42.0158
14.1943
-38.4569
7.90513
-34.3311
3.66046
-30.452
1.05855
-26.9946
-0.73354
-23.938
-1.93612
-21.238
-2.68965
-18.8997
-3.13736
-16.8987
-3.39795
-15.1873
-3.53802
-13.7207
-3.59746
-12.4591
-3.60267
-11.3688
-3.56985
-10.4216
-3.51032
-9.59421
-3.43261
-8.86691
-3.34281
-8.22355
-3.2452
-7.65079
-3.14289
-7.13764
-3.03812
-6.67505
-2.93249
-6.25559
-2.82719
-5.87308
-2.72304
-5.52245
-2.62065
-5.19948
-2.52041
-4.90065
-2.42264
-4.62302
-2.32754
-4.3641
-2.23525
-4.12178
-2.14589
-3.89428
-2.05951
-3.68004
-1.97613
-3.47773
-1.89579
-3.2862
-1.81847
-3.10441
-1.74415
-2.93148
-1.67274
-2.76663
-1.60416
-2.60922
-1.53831
-2.45867
-1.47517
-2.31447
-1.41473
-2.17616
-1.35695
-2.04327
-1.30181
-1.91545
-1.24923
-1.79232
-1.19923
-1.67354
-1.15172
-1.55888
-1.10648
-1.44817
-1.06336
-1.34124
-1.02233
-1.23797
-0.983322
-1.13813
-0.946441
-1.04159
-0.91134
-0.948048
-0.878213
-0.85742
-0.846763
-0.769788
-0.816792
-0.684915
-0.78866
-0.602926
-0.761633
-0.523317
-0.736829
-0.446135
-0.713217
-0.371362
-0.691028
-0.299012
-0.669924
-0.228552
-0.650853
-0.160853
-0.632189
-0.0963787
-0.613739
-0.0352504
-0.596418
0.0231381
-0.579474
0.0788509
-0.562778
0.131025
-0.546368
0.179971
-0.530183
0.225901
-0.514199
0.268989
-0.4984
0.309417
-0.482778
0.347365
-0.467324
0.383006
-0.452032
0.416511
-0.436897
0.448042
-0.421918
0.477751
-0.407093
0.505783
-0.392427
0.53227
-0.377921
0.557336
-0.363582
0.581094
-0.349413
0.603647
-0.335421
0.625087
-0.321611
0.645502
-0.307986
0.664969
-0.294553
0.683563
-0.281314
0.701349
-0.26827
0.718386
-0.255424
0.734735
-0.242776
0.750453
-0.230331
0.765597
-0.218089
0.780221
-0.206051
0.794373
-0.194218
0.808101
-0.182587
0.821447
-0.171161
0.834441
-0.159935
0.847106
-0.148909
0.859455
-0.138078
0.871489
-0.127439
0.883192
-0.116983
-0.106696
0.894559
-163.419
8.48315
-120.271
-13.6244
-93.3212
-12.756
-71.9521
-13.464
-55.7915
-12.5001
-43.9047
-10.8283
-35.1459
-9.4924
-28.6921
-8.38999
-23.8549
-7.5269
-20.1555
-6.83681
-17.2773
-6.27624
-15.0034
-5.81206
-13.181
-5.41991
-11.6982
-5.08567
-10.4751
-4.79316
-9.45367
-4.5319
-8.59075
-4.29576
-7.85358
-4.08022
-7.21724
-3.88182
-6.6625
-3.69793
-6.17445
-3.5265
-5.74135
-3.36594
-5.35394
-3.21498
-5.00481
-3.07259
-4.688
-2.9379
-4.39869
-2.81021
-4.13295
-2.6889
-3.88755
-2.57349
-3.65982
-2.46358
-3.44754
-2.35881
-3.24882
-2.2589
-3.06211
-2.16356
-2.88608
-2.07259
-2.71959
-1.98578
-2.56164
-1.90297
-2.41137
-1.82393
-2.26803
-1.74848
-2.131
-1.67638
-1.99977
-1.60751
-1.87386
-1.54182
-1.75292
-1.47915
-1.6365
-1.41957
-1.52435
-1.36279
-1.41614
-1.30896
-1.31152
-1.25794
-1.21024
-1.20947
-1.11212
-1.16332
-1.01701
-1.11941
-0.924937
-1.0775
-0.83573
-1.03791
-0.749542
-0.999966
-0.665811
-0.964577
-0.584378
-0.931049
-0.505305
-0.898971
-0.428452
-0.868905
-0.353998
-0.839807
-0.281363
-0.81356
-0.210885
-0.78822
-0.143013
-0.763909
-0.0780733
-0.740095
-0.0162517
-0.717701
0.042743
-0.695938
0.099219
-0.674755
0.152613
-0.654144
0.203002
-0.634039
0.250561
-0.614383
0.295399
-0.595139
0.337656
-0.576274
0.377473
-0.557761
0.414987
-0.53958
0.450329
-0.521713
0.483627
-0.504148
0.515002
-0.486874
0.544575
-0.46988
0.572461
-0.453162
0.598771
-0.436714
0.623611
-0.420533
0.647081
-0.404615
0.669275
-0.388959
0.690282
-0.373566
0.710188
-0.358435
0.729072
-0.343567
0.747007
-0.32896
0.764064
-0.314614
0.780308
-0.300529
0.795804
-0.286704
0.810612
-0.273138
0.824791
-0.259828
0.838393
-0.246774
0.851467
-0.233971
0.864056
-0.221417
0.876203
-0.209109
0.887948
-0.197043
0.899326
-0.185216
0.910366
-0.17362
0.921096
-0.162248
0.931537
-0.151094
0.941707
-0.140149
0.95162
-0.129401
-0.118833
0.961326
-74.9648
-13.8705
-65.4042
-23.185
-53.7412
-24.419
-42.5395
-24.6656
-33.5271
-21.5126
-27.3758
-16.9796
-22.87
-13.9982
-19.3584
-11.9016
-16.5741
-10.3113
-14.3425
-9.06845
-12.5345
-8.08435
-11.0543
-7.29247
-9.83384
-6.64049
-8.81284
-6.10684
-7.95015
-5.65605
-7.21503
-5.26724
-6.58341
-4.92763
-6.03633
-4.62757
-5.55873
-4.35972
-5.13857
-4.11842
-4.76617
-3.89927
-4.4337
-3.69881
-4.13481
-3.51431
-3.86432
-3.34355
-3.61798
-3.18475
-3.3923
-3.03643
-3.18438
-2.89741
-2.9918
-2.7667
-2.81255
-2.6435
-2.64491
-2.52717
-2.48744
-2.41713
-2.33892
-2.3129
-2.19832
-2.21406
-2.06477
-2.12026
-1.93753
-2.03118
-1.81599
-1.94653
-1.69955
-1.86602
-1.58775
-1.78936
-1.48017
-1.71634
-1.37648
-1.64685
-1.27645
-1.5806
-1.17971
-1.51782
-1.08622
-1.4579
-0.99565
-1.40126
-0.907728
-1.34771
-0.822277
-1.2969
-0.739122
-1.2486
-0.658083
-1.20273
-0.579187
-1.15885
-0.50227
-1.11748
-0.42771
-1.0774
-0.354891
-1.04052
-0.283904
-1.00543
-0.214769
-0.971824
-0.147782
-0.93998
-0.0829825
-0.908904
-0.0209976
-0.87974
0.0384438
-0.851694
0.0952782
-0.824668
0.149956
-0.798565
0.201933
-0.773346
0.251332
-0.748911
0.298272
-0.725186
0.342818
-0.70211
0.385055
-0.679629
0.425075
-0.657698
0.462973
-0.636278
0.498842
-0.615334
0.532776
-0.59484
0.564865
-0.574773
0.5952
-0.555113
0.623867
-0.535844
0.650952
-0.516953
0.676537
-0.498428
0.700704
-0.480261
0.723531
-0.462445
0.745095
-0.444973
0.765471
-0.42784
0.78473
-0.411042
0.802941
-0.394576
0.82017
-0.378439
0.836478
-0.362626
0.851926
-0.347136
0.866573
-0.331965
0.880473
-0.317111
0.893682
-0.302571
0.906251
-0.28834
0.918227
-0.274415
0.929657
-0.260791
0.940584
-0.247461
0.95105
-0.234421
0.961094
-0.221665
0.970751
-0.209188
0.980057
-0.196983
0.989049
-0.185046
0.997762
-0.173369
1.00623
-0.161944
1.0145
-0.150764
1.02259
-0.139821
-0.129101
1.03061
46.4564
-2.70982
28.7116
-5.44027
16.3171
-12.0245
6.51796
-14.8665
0.0382325
-15.0329
-3.42945
-13.512
-5.03254
-12.3952
-5.70738
-11.2269
-5.90282
-10.116
-5.84491
-9.1265
-5.65113
-8.2783
-5.38516
-7.55862
-5.09547
-6.9304
-4.79324
-6.4093
-4.4935
-5.95606
-4.20555
-5.55548
-3.93407
-5.19943
-3.68095
-4.88104
-3.44637
-4.59468
-3.22955
-4.33566
-3.02918
-4.10009
-2.84375
-3.88473
-2.67174
-3.68685
-2.5117
-3.50416
-2.36231
-3.33475
-2.22239
-3.17701
-2.09088
-3.02961
-1.96685
-2.89148
-1.84944
-2.76171
-1.73789
-2.63957
-1.63152
-2.5244
-1.52974
-2.41565
-1.43203
-2.31279
-1.33798
-2.21539
-1.24726
-2.12306
-1.15958
-2.03545
-1.07465
-1.95226
-0.992207
-1.87321
-0.912007
-1.79803
-0.833814
-1.72663
-0.757546
-1.65856
-0.68295
-1.59423
-0.61017
-1.53262
-0.538998
-1.47451
-0.469342
-1.41959
-0.401235
-1.36739
-0.334632
-1.31777
-0.269502
-1.27063
-0.205745
-1.22561
-0.143519
-1.18297
-0.0827181
-1.14162
-0.0238685
-1.10275
0.03304
-1.06565
0.088106
-1.03017
0.141078
-0.996188
0.192581
-0.963579
0.242014
-0.932278
0.289425
-0.902161
0.334864
-0.873119
0.378389
-0.84506
0.420014
-0.817903
0.459778
-0.791573
0.49773
-0.766004
0.533921
-0.741135
0.568402
-0.716918
0.601229
-0.693305
0.632456
-0.67026
0.66214
-0.647749
0.690335
-0.625745
0.717098
-0.604224
0.742482
-0.583166
0.766544
-0.562555
0.789337
-0.542376
0.810914
-0.522619
0.831331
-0.503274
0.850638
-0.484332
0.868889
-0.465787
0.886135
-0.447633
0.902427
-0.429865
0.917814
-0.412478
0.932344
-0.395468
0.946064
-0.378831
0.959022
-0.362561
0.971261
-0.346656
0.982826
-0.331111
0.993756
-0.31592
1.00409
-0.30108
1.01388
-0.286584
1.02315
-0.272428
1.03195
-0.258606
1.04031
-0.245111
1.04827
-0.231938
1.05587
-0.219081
1.06315
-0.206532
1.07015
-0.194286
1.07689
-0.182336
1.08342
-0.170677
1.08978
-0.159302
1.09601
-0.148209
-0.137388
1.1022
33.4422
-1.56
32.5569
-4.555
27.5971
-7.06467
21.1054
-8.37489
15.0229
-8.95038
10.5772
-9.06646
7.13094
-8.94906
4.56543
-8.66151
2.71564
-8.26638
1.41555
-7.82661
0.518441
-7.38145
-0.091594
-6.94889
-0.496541
-6.5258
-0.766029
-6.1402
-0.943599
-5.77889
-1.05682
-5.44269
-1.12438
-5.13233
-1.15919
-4.84673
-1.17037
-4.58403
-1.16444
-4.34215
-1.1461
-4.11904
-1.11873
-3.91275
-1.08477
-3.72151
-1.04598
-3.54369
-1.00366
-3.37786
-0.958758
-3.22275
-0.91199
-3.07728
-0.86388
-2.94054
-0.814817
-2.81179
-0.765089
-2.69037
-0.714905
-2.57573
-0.664415
-2.46735
-0.613727
-2.36477
-0.562924
-2.26757
-0.512078
-2.17536
-0.46126
-2.08782
-0.410528
-2.00464
-0.359902
-1.92559
-0.309381
-1.85043
-0.259002
-1.77901
-0.208709
-1.71099
-0.158681
-1.64654
-0.108863
-1.58486
-0.0595679
-1.52628
-0.0109593
-1.4707
0.0369141
-1.41778
0.0839822
-1.36737
0.130117
-1.31931
0.175412
-1.27346
0.219573
-1.2297
0.263261
-1.18786
0.305862
-1.14789
0.347326
-1.10965
0.387642
-1.07301
0.426783
-1.03784
0.46475
-1.00405
0.5015
-0.971525
0.537018
-0.940165
0.571301
-0.909878
0.604351
-0.880577
0.636175
-0.852183
0.666781
-0.824627
0.696185
-0.797844
0.724402
-0.771779
0.75145
-0.746383
0.77735
-0.721613
0.802122
-0.697431
0.825791
-0.673807
0.84838
-0.650714
0.869914
-0.628129
0.89042
-0.606034
0.909925
-0.584413
0.928456
-0.563252
0.946043
-0.542542
0.962716
-0.522273
0.978505
-0.502438
0.993441
-0.483032
1.00756
-0.464047
1.02088
-0.44548
1.03345
-0.427326
1.04529
-0.409582
1.05645
-0.392242
1.06694
-0.375302
1.0768
-0.358759
1.08607
-0.342607
1.09478
-0.326842
1.10296
-0.31146
1.11064
-0.296454
1.11786
-0.28182
1.12465
-0.267552
1.13103
-0.253644
1.13706
-0.24009
1.14274
-0.226883
1.14813
-0.214017
1.15325
-0.201486
1.15813
-0.189283
1.16281
-0.177403
1.16732
-0.165839
1.17169
-0.154585
-0.143629
1.17598
28.3435
-1.04927
26.4929
-2.70435
23.4665
-4.03838
20.1344
-5.04281
16.9493
-5.76529
14.1037
-6.22091
11.6128
-6.45823
9.48902
-6.53787
7.72435
-6.50183
6.28005
-6.38247
5.10428
-6.20586
4.14763
-5.99245
3.37941
-5.75784
2.7539
-5.51497
2.24612
-5.27143
1.83529
-5.03224
1.50326
-4.80072
1.23493
-4.57887
1.01801
-4.36763
0.842601
-4.16732
0.70077
-3.97784
0.586201
-3.79887
0.493875
-3.62992
0.419822
-3.47044
0.360909
-3.31981
0.314666
-3.17743
0.279122
-3.04272
0.252686
-2.91515
0.234041
-2.79425
0.222078
-2.67958
0.21586
-2.57074
0.214588
-2.46737
0.217588
-2.36912
0.224292
-2.27568
0.234221
-2.18675
0.246969
-2.10208
0.26218
-2.02143
0.279538
-1.94457
0.298764
-1.87133
0.319544
-1.80152
0.341745
-1.73497
0.36492
-1.67153
0.389254
-1.61104
0.414456
-1.55337
0.440218
-1.49837
0.466407
-1.44591
0.492904
-1.39583
0.519599
-1.348
0.546407
-1.30228
0.573231
-1.25855
0.600012
-1.21669
0.626639
-1.17658
0.653026
-1.13811
0.679101
-1.10116
0.704803
-1.06564
0.730078
-1.03143
0.754877
-0.99843
0.779158
-0.966558
0.802886
-0.935722
0.82603
-0.905841
0.848565
-0.876842
0.87047
-0.848657
0.891726
-0.821227
0.912319
-0.7945
0.932235
-0.768427
0.951465
-0.742971
0.970001
-0.718095
0.987838
-0.693771
1.00497
-0.669974
1.02141
-0.646685
1.03714
-0.623886
1.05217
-0.601564
1.06651
-0.579708
1.08017
-0.558309
1.09314
-0.53736
1.10546
-0.516856
1.11712
-0.496793
1.12815
-0.477166
1.13855
-0.457972
1.14835
-0.439208
1.15756
-0.42087
1.1662
-0.402957
1.1743
-0.385465
1.18188
-0.368389
1.18895
-0.351728
1.19555
-0.335476
1.20169
-0.319629
1.2074
-0.304184
1.21271
-0.289134
1.21763
-0.274475
1.2222
-0.260201
1.22645
-0.246306
1.23039
-0.232784
1.23405
-0.21963
1.23747
-0.206836
1.24067
-0.194396
1.24367
-0.182303
1.24649
-0.170548
1.24916
-0.159122
-0.148012
1.25172
23.0272
-0.643686
22.0599
-1.73703
20.7059
-2.68441
19.0756
-3.41253
17.2893
-3.979
15.4748
-4.40649
13.7237
-4.70723
12.0866
-4.90084
10.592
-5.00738
9.25337
-5.04392
8.07224
-5.02489
7.04232
-4.9627
6.15234
-4.86805
5.38711
-4.74998
4.73126
-4.61584
4.17016
-4.47143
3.69034
-4.32123
3.27978
-4.16867
2.92805
-4.01631
2.62627
-3.86598
2.36692
-3.71897
2.14367
-3.57614
1.95119
-3.43802
1.78505
-3.30491
1.64152
-3.17695
1.5175
-3.05411
1.41037
-2.93635
1.31792
-2.82351
1.23829
-2.71547
1.16985
-2.61205
1.11123
-2.51308
1.06126
-2.4184
1.01891
-2.32782
0.983302
-2.24117
0.953681
-2.15828
0.929385
-2.07898
0.909834
-2.00312
0.894517
-1.93054
0.882975
-1.86111
0.874794
-1.79471
0.869611
-1.73119
0.867084
-1.67046
0.866932
-1.61238
0.868882
-1.55684
0.872679
-1.50373
0.878098
-1.45292
0.884944
-1.4043
0.893041
-1.35774
0.902234
-1.31315
0.912377
-1.27039
0.923339
-1.22937
0.934994
-1.18998
0.947226
-1.15211
0.95993
-1.11565
0.973011
-1.08052
0.986382
-1.04662
0.999963
-1.01384
1.01368
-0.982123
1.02747
-0.95137
1.04127
-0.92151
1.05503
-0.892476
1.06869
-0.864204
1.08221
-0.83664
1.09554
-0.809733
1.10865
-0.783442
1.12149
-0.757729
1.13405
-0.732563
1.14627
-0.707918
1.15815
-0.683774
1.16965
-0.660113
1.18076
-0.636921
1.19146
-0.614188
1.20172
-0.591906
1.21156
-0.570069
1.22094
-0.548674
1.22987
-0.527717
1.23835
-0.507196
1.24637
-0.487111
1.25394
-0.46746
1.26106
-0.448242
1.26773
-0.429457
1.27397
-0.411103
1.27978
-0.393178
1.28517
-0.375682
1.29016
-0.358611
1.29476
-0.341964
1.29899
-0.325736
1.30286
-0.309925
1.30639
-0.294526
1.30959
-0.279536
1.3125
-0.264949
1.31512
-0.250759
1.31747
-0.236962
1.31958
-0.223551
1.32147
-0.21052
1.32315
-0.197863
1.32464
-0.185571
1.32598
-0.173639
1.32717
-0.162058
-0.150822
1.32828
19.9503
-0.454016
19.4197
-1.2064
18.5888
-1.85353
17.5486
-2.37239
16.3822
-2.81266
15.1599
-3.18422
13.9348
-3.48223
12.7428
-3.70887
11.6072
-3.87195
10.5432
-3.98003
9.55922
-4.04103
8.65875
-4.0624
7.84162
-4.0511
7.10498
-4.01354
6.44425
-3.95535
5.85389
-3.88132
5.32786
-3.79549
4.86004
-3.70117
4.44447
-3.60108
4.0755
-3.49739
3.74795
-3.39183
3.45707
-3.28571
3.19863
-3.18006
2.96886
-3.07566
2.76444
-2.97307
2.58244
-2.87271
2.42033
-2.77486
2.27586
-2.67971
2.14707
-2.58739
2.03225
-2.49798
1.92989
-2.41151
1.83866
-2.328
1.7574
-2.24743
1.68507
-2.16976
1.62077
-2.09494
1.56372
-2.02292
1.5132
-1.95363
1.46858
-1.887
1.4293
-1.82295
1.39485
-1.76141
1.36477
-1.70231
1.33865
-1.64557
1.31611
-1.59111
1.29682
-1.53885
1.28048
-1.48871
1.26679
-1.4406
1.25552
-1.39443
1.24645
-1.35009
1.23935
-1.30751
1.23405
-1.26658
1.23038
-1.22721
1.22818
-1.18931
1.2273
-1.15278
1.2276
-1.11753
1.22895
-1.08348
1.23125
-1.05053
1.23438
-1.01861
1.23825
-0.987638
1.24275
-0.957538
1.2478
-0.928243
1.25333
-0.899689
1.25924
-0.871821
1.26547
-0.844586
1.27195
-0.81794
1.27862
-0.791845
1.28542
-0.766268
1.29229
-0.741182
1.29918
-0.716565
1.30604
-0.692399
1.31284
-0.668673
1.31953
-0.645377
1.32607
-0.622503
1.33243
-0.600047
1.3386
-0.578009
1.34453
-0.556387
1.35021
-0.535182
1.35563
-0.514396
1.36077
-0.49403
1.36562
-0.474087
1.37017
-0.454568
1.37441
-0.435476
1.37835
-0.416811
1.38198
-0.398576
1.3853
-0.380769
1.38832
-0.363391
1.39104
-0.346441
1.39347
-0.329917
1.39562
-0.313817
1.39749
-0.298139
1.39911
-0.282879
1.40047
-0.268034
1.4016
-0.253599
1.4025
-0.239568
1.4032
-0.225938
1.4037
-0.212703
1.40402
-0.199856
1.40419
-0.187394
1.40422
-0.17531
1.40413
-0.1636
-0.152262
1.40397
17.5019
-0.321846
17.1574
-0.861865
16.6407
-1.33694
15.9981
-1.72979
15.2612
-2.07582
14.4585
-2.38161
13.6178
-2.64156
12.7632
-2.8544
11.9144
-3.02325
11.0866
-3.15236
10.2913
-3.24587
9.53658
-3.30781
8.82753
-3.34223
8.16689
-3.35309
7.55542
-3.34409
6.99246
-3.3186
6.47633
-3.27962
6.00467
-3.22979
5.57468
-3.1714
5.18337
-3.10642
4.82769
-3.03651
4.50464
-2.96305
4.21135
-2.8872
3.94513
-2.80989
3.70347
-2.7319
3.48406
-2.65382
3.28482
-2.57617
3.10385
-2.49932
2.93943
-2.42359
2.79001
-2.34921
2.65419
-2.27638
2.53071
-2.20525
2.41843
-2.13592
2.31635
-2.06847
2.22355
-2.00297
2.1392
-1.93945
2.06257
-1.87791
1.993
-1.81837
1.92987
-1.76081
1.87266
-1.70521
1.82085
-1.65155
1.774
-1.59981
1.7317
-1.54993
1.69357
-1.50188
1.65927
-1.4556
1.62849
-1.41104
1.60095
-1.36813
1.57638
-1.32681
1.55456
-1.28699
1.53527
-1.24862
1.5183
-1.2116
1.50348
-1.17587
1.49062
-1.14133
1.47958
-1.10791
1.47019
-1.07554
1.46232
-1.04413
1.45584
-1.01361
1.45061
-0.983919
1.44654
-0.95498
1.44349
-0.926733
1.44138
-0.899122
1.44009
-0.872095
1.43954
-0.845607
1.43963
-0.819618
1.44028
-0.794094
1.44142
-0.769008
1.44296
-0.744336
1.44484
-0.720064
1.44698
-0.696176
1.44934
-0.672667
1.45186
-0.64953
1.45447
-0.626763
1.45714
-0.604368
1.45983
-0.582347
1.46249
-0.560704
1.46509
-0.539443
1.46761
-0.518571
1.47001
-0.498093
1.47228
-0.478014
1.47439
-0.45834
1.47633
-0.439077
1.47809
-0.420228
1.47966
-0.401798
1.48103
-0.38379
1.4822
-0.366204
1.48316
-0.349044
1.48391
-0.332309
1.48446
-0.315999