/*--------------------------------*- C++ -*----------------------------------*\
| =========                 |                                                 |
| \\      /  F ield         | OpenFOAM: The Open Source CFD Toolbox           |
|  \\    /   O peration     | Version:  2412                                  |
|   \\  /    A nd           | Website:  www.openfoam.com                      |
|    \\/     M anipulation  |                                                 |
\*---------------------------------------------------------------------------*/
FoamFile
{
    version     2.0;
    format      ascii;
    arch        "LSB;label=32;scalar=64";
    class       volVectorField;
    location    "8";
    object      U;
}
// * * * * * * * * * * * * * * * * * * * * * * * * * * * * * * * * * * * * * //

dimensions      [0 1 -1 0 0 0 0];

internalField   nonuniform List<vector> 
20000
(
(-27512.1 -16007.6 0)
(629.141 -2903 0)
(-4990.56 -2225.48 0)
(-3420.55 -1572.31 0)
(-2769.42 -1114.82 0)
(-2265.96 -783.552 0)
(-1908.77 -555.187 0)
(-1648.83 -397.554 0)
(-1457.59 -288.484 0)
(-1314.16 -212.807 0)
(-1204.5 -160.218 0)
(-1118.77 -123.634 0)
(-1049.99 -98.1568 0)
(-993.228 -80.3922 0)
(-944.973 -67.9859 0)
(-902.751 -59.3011 0)
(-864.817 -53.1957 0)
(-829.951 -48.8705 0)
(-797.302 -45.7646 0)
(-766.289 -43.4838 0)
(-736.513 -41.7512 0)
(-707.711 -40.3731 0)
(-679.709 -39.2153 0)
(-652.4 -38.1855 0)
(-625.722 -37.2217 0)
(-599.644 -36.2834 0)
(-574.157 -35.345 0)
(-549.266 -34.3916 0)
(-524.986 -33.4152 0)
(-501.336 -32.4133 0)
(-478.34 -31.3865 0)
(-456.025 -30.3373 0)
(-434.418 -29.2695 0)
(-413.55 -28.1869 0)
(-393.453 -27.0931 0)
(-374.153 -25.9911 0)
(-355.669 -24.8839 0)
(-338.012 -23.7747 0)
(-321.177 -22.6681 0)
(-305.148 -21.5712 0)
(-289.9 -20.4937 0)
(-275.405 -19.4481 0)
(-261.636 -18.449 0)
(-248.573 -17.5108 0)
(-236.199 -16.6471 0)
(-224.501 -15.8679 0)
(-213.464 -15.1787 0)
(-203.061 -14.5786 0)
(-193.253 -14.06 0)
(-183.981 -13.6086 0)
(-175.164 -13.2036 0)
(-166.708 -12.8193 0)
(-158.505 -12.4265 0)
(-150.447 -11.9971 0)
(-142.425 -11.5107 0)
(-134.34 -10.9644 0)
(-126.126 -10.3822 0)
(-117.765 -9.82041 0)
(-109.323 -9.3569 0)
(-100.952 -9.06067 0)
(-92.8628 -8.96338 0)
(-85.2892 -9.06685 0)
(-78.5282 -9.36681 0)
(-72.8651 -9.84452 0)
(-68.2795 -10.4878 0)
(-64.4814 -11.4207 0)
(-61.6174 -12.9266 0)
(-60.4177 -15.0745 0)
(-61.6165 -17.5745 0)
(-65.2859 -19.9115 0)
(-71.435 -21.5413 0)
(-79.03 -22.4124 0)
(-86.1854 -21.9951 0)
(-87.1917 -20.3562 0)
(-80.2068 -18.0615 0)
(-73.8801 -15.046 0)
(-68.8867 -12.6876 0)
(-63.5156 -10.7737 0)
(-58.2989 -9.32885 0)
(-51.3205 -8.02279 0)
(-42.9487 -5.62376 0)
(-34.5264 -4.70323 0)
(-24.5096 -4.82322 0)
(-16.7633 -4.88103 0)
(-10.1924 -4.90024 0)
(-4.55276 -4.9073 0)
(0.214816 -4.89473 0)
(4.19423 -4.82658 0)
(7.59239 -4.6686 0)
(10.6654 -4.41658 0)
(13.5629 -4.09037 0)
(16.2671 -3.70891 0)
(18.6552 -3.27212 0)
(20.6016 -2.76057 0)
(22.0238 -2.14609 0)
(22.8424 -1.39691 0)
(22.9272 -0.467396 0)
(22.1604 0.713271 0)
(20.2577 2.2721 0)
(17.4546 4.41358 0)
(1761.56 3645.64 0)
(1298.46 -1995.62 0)
(-872.687 -2995.5 0)
(-1033.62 -2189.67 0)
(-1140.91 -1662.48 0)
(-1129.29 -1212.98 0)
(-1111.29 -894.905 0)
(-1083.22 -669.8 0)
(-1054.76 -509.861 0)
(-1024.96 -395.14 0)
(-994.831 -312.538 0)
(-964.931 -253.071 0)
(-935.458 -210.356 0)
(-906.428 -179.765 0)
(-877.784 -157.914 0)
(-849.457 -142.32 0)
(-821.392 -131.165 0)
(-793.56 -123.117 0)
(-765.957 -117.208 0)
(-738.599 -112.738 0)
(-711.517 -109.206 0)
(-684.754 -106.254 0)
(-658.353 -103.637 0)
(-632.363 -101.183 0)
(-606.829 -98.7831 0)
(-581.795 -96.3658 0)
(-557.302 -93.891 0)
(-533.388 -91.3391 0)
(-510.085 -88.7051 0)
(-487.422 -85.994 0)
(-465.422 -83.2173 0)
(-444.104 -80.3903 0)
(-423.488 -77.5301 0)
(-403.586 -74.6538 0)
(-384.411 -71.7769 0)
(-365.971 -68.9123 0)
(-348.27 -66.0708 0)
(-331.305 -63.2616 0)
(-315.064 -60.4938 0)
(-299.531 -57.7781 0)
(-284.684 -55.1283 0)
(-270.499 -52.5615 0)
(-256.956 -50.0968 0)
(-244.037 -47.7537 0)
(-231.73 -45.5495 0)
(-220.025 -43.4962 0)
(-208.912 -41.5984 0)
(-198.373 -39.8512 0)
(-188.379 -38.2393 0)
(-178.882 -36.7366 0)
(-169.811 -35.3083 0)
(-161.075 -33.9123 0)
(-152.564 -32.5019 0)
(-144.165 -31.0326 0)
(-135.779 -29.4738 0)
(-127.344 -27.8242 0)
(-118.859 -26.1271 0)
(-110.381 -24.4719 0)
(-102 -22.9695 0)
(-93.8108 -21.7147 0)
(-85.938 -20.759 0)
(-78.5762 -20.1102 0)
(-71.9512 -19.7417 0)
(-66.208 -19.5869 0)
(-61.3495 -19.5796 0)
(-57.2934 -19.7753 0)
(-54.0369 -20.3364 0)
(-51.7033 -21.286 0)
(-50.6612 -22.4098 0)
(-50.7189 -23.751 0)
(-50.8519 -25.4728 0)
(-50.0553 -27.2158 0)
(-48.5507 -27.4172 0)
(-46.2007 -26.4353 0)
(-42.9471 -25.8321 0)
(-39.226 -25.4199 0)
(-35.0207 -24.3295 0)
(-30.1615 -22.5268 0)
(-24.2687 -20.3559 0)
(-18.6611 -18.2093 0)
(-13.1087 -16.4772 0)
(-7.66554 -15.2604 0)
(-2.68487 -14.4535 0)
(1.71485 -13.843 0)
(5.56515 -13.3491 0)
(8.90827 -12.9215 0)
(11.7973 -12.505 0)
(14.2959 -12.0319 0)
(16.4844 -11.4444 0)
(18.4538 -10.7218 0)
(20.2718 -9.87769 0)
(21.9516 -8.93118 0)
(23.458 -7.88227 0)
(24.7402 -6.70641 0)
(25.76 -5.36311 0)
(26.4909 -3.80093 0)
(26.9204 -1.953 0)
(27.057 0.289861 0)
(26.9447 2.96431 0)
(27.2334 6.17527 0)
(1287.93 442.174 0)
(1328.4 -80.6634 0)
(970.269 -583.99 0)
(444.722 -1064.25 0)
(-114.943 -1179.67 0)
(-343.188 -904.05 0)
(-520.934 -696.539 0)
(-629.343 -544.609 0)
(-711.468 -438.1 0)
(-765.361 -362.33 0)
(-798.486 -307.829 0)
(-816.079 -268.722 0)
(-822.03 -240.874 0)
(-819.243 -221.191 0)
(-809.908 -207.35 0)
(-795.695 -197.611 0)
(-777.888 -190.678 0)
(-757.473 -185.601 0)
(-735.216 -181.686 0)
(-711.711 -178.438 0)
(-687.42 -175.512 0)
(-662.703 -172.669 0)
(-637.84 -169.757 0)
(-613.049 -166.681 0)
(-588.498 -163.388 0)
(-564.319 -159.859 0)
(-540.609 -156.093 0)
(-517.445 -152.106 0)
(-494.882 -147.922 0)
(-472.961 -143.569 0)
(-451.71 -139.082 0)
(-431.147 -134.494 0)
(-411.281 -129.841 0)
(-392.116 -125.153 0)
(-373.649 -120.461 0)
(-355.873 -115.793 0)
(-338.777 -111.17 0)
(-322.349 -106.615 0)
(-306.573 -102.145 0)
(-291.432 -97.7801 0)
(-276.91 -93.5386 0)
(-262.991 -89.4402 0)
(-249.662 -85.5045 0)
(-236.912 -81.7493 0)
(-224.733 -78.1894 0)
(-213.117 -74.8338 0)
(-202.051 -71.6836 0)
(-191.519 -68.7303 0)
(-181.486 -65.9546 0)
(-171.903 -63.3265 0)
(-162.698 -60.8075 0)
(-153.777 -58.3546 0)
(-145.034 -55.9254 0)
(-136.366 -53.4867 0)
(-127.71 -51.0281 0)
(-119.056 -48.573 0)
(-110.457 -46.1809 0)
(-101.983 -43.9328 0)
(-93.7045 -41.9038 0)
(-85.7273 -40.1439 0)
(-78.2153 -38.6833 0)
(-71.3442 -37.5398 0)
(-65.2138 -36.7114 0)
(-59.8071 -36.1929 0)
(-55.0727 -36.0015 0)
(-50.9589 -36.1543 0)
(-47.4186 -36.5946 0)
(-44.3767 -37.1989 0)
(-41.7396 -37.8893 0)
(-39.244 -38.5518 0)
(-36.5589 -38.9892 0)
(-33.7599 -39.0176 0)
(-30.4842 -38.7677 0)
(-26.6085 -38.6443 0)
(-22.7937 -38.3355 0)
(-18.735 -37.1961 0)
(-14.5788 -35.5701 0)
(-10.5978 -33.8549 0)
(-6.74073 -32.192 0)
(-2.99352 -30.5952 0)
(0.644146 -29.085 0)
(4.13865 -27.7259 0)
(7.43591 -26.5178 0)
(10.493 -25.4159 0)
(13.2874 -24.377 0)
(15.8206 -23.361 0)
(18.1147 -22.3313 0)
(20.1967 -21.2562 0)
(22.0932 -20.114 0)
(23.8335 -18.8972 0)
(25.443 -17.6117 0)
(26.9312 -16.2687 0)
(28.2856 -14.8743 0)
(29.4845 -13.4245 0)
(30.5216 -11.9062 0)
(31.4138 -10.3005 0)
(32.1768 -8.57412 0)
(32.8353 -6.67069 0)
(33.3501 -4.42512 0)
(34.3798 -1.77057 0)
(813.608 -94.3711 0)
(860.288 -202.601 0)
(783.531 -239.51 0)
(602.337 -230.468 0)
(403.211 -247.159 0)
(43.2593 -323.582 0)
(-313.818 -272.189 0)
(-457.891 -226.183 0)
(-581.37 -205.054 0)
(-665.015 -200.428 0)
(-721.079 -201.699 0)
(-756.318 -205.523 0)
(-775.54 -210.608 0)
(-782.51 -216.092 0)
(-780.179 -221.338 0)
(-770.868 -225.926 0)
(-756.393 -229.597 0)
(-738.168 -232.216 0)
(-717.292 -233.737 0)
(-694.613 -234.17 0)
(-670.787 -233.569 0)
(-646.315 -232.009 0)
(-621.579 -229.581 0)
(-596.867 -226.382 0)
(-572.397 -222.509 0)
(-548.329 -218.055 0)
(-524.779 -213.112 0)
(-501.829 -207.764 0)
(-479.538 -202.088 0)
(-457.941 -196.155 0)
(-437.061 -190.03 0)
(-416.908 -183.773 0)
(-397.482 -177.436 0)
(-378.775 -171.067 0)
(-360.773 -164.708 0)
(-343.459 -158.397 0)
(-326.812 -152.166 0)
(-310.811 -146.045 0)
(-295.435 -140.059 0)
(-280.664 -134.234 0)
(-266.482 -128.593 0)
(-252.871 -123.156 0)
(-239.819 -117.941 0)
(-227.316 -112.961 0)
(-215.35 -108.225 0)
(-203.91 -103.733 0)
(-192.978 -99.4782 0)
(-182.527 -95.4446 0)
(-172.519 -91.6057 0)
(-162.894 -87.9259 0)
(-153.579 -84.3647 0)
(-144.49 -80.8854 0)
(-135.538 -77.4612 0)
(-126.66 -74.083 0)
(-117.846 -70.7747 0)
(-109.143 -67.594 0)
(-100.632 -64.6071 0)
(-92.3792 -61.8692 0)
(-84.426 -59.4344 0)
(-76.8465 -57.3369 0)
(-69.7694 -55.5934 0)
(-63.3238 -54.2141 0)
(-57.5527 -53.1675 0)
(-52.4127 -52.4427 0)
(-47.8411 -52.0368 0)
(-43.7336 -51.8921 0)
(-39.9781 -51.9246 0)
(-36.418 -52.0219 0)
(-32.7483 -52.098 0)
(-29.2058 -51.9608 0)
(-25.5301 -51.542 0)
(-21.5628 -51.1725 0)
(-17.5628 -50.8684 0)
(-13.6213 -50.2205 0)
(-9.67391 -49.1952 0)
(-6.00127 -47.9723 0)
(-2.58438 -46.5999 0)
(0.620205 -45.1128 0)
(3.65557 -43.5539 0)
(6.55588 -41.9605 0)
(9.34476 -40.3629 0)
(12.0311 -38.7826 0)
(14.6098 -37.2268 0)
(17.0677 -35.6918 0)
(19.3924 -34.166 0)
(21.5814 -32.634 0)
(23.6407 -31.0817 0)
(25.574 -29.4985 0)
(27.3794 -27.8773 0)
(29.0583 -26.2152 0)
(30.6189 -24.5139 0)
(32.0709 -22.7774 0)
(33.4217 -21.007 0)
(34.6779 -19.1968 0)
(35.8482 -17.3351 0)
(36.9442 -15.4111 0)
(37.9805 -13.4161 0)
(38.9783 -11.3293 0)
(39.9159 -9.10949 0)
(41.1952 -6.675 0)
(525.557 -615.792 0)
(790.296 -267.606 0)
(790.44 106.246 0)
(563.396 376.979 0)
(231.062 626.886 0)
(-277.371 630.09 0)
(-420.113 376.428 0)
(-534.277 200.113 0)
(-641.498 73.6026 0)
(-714.588 -13.9953 0)
(-763.935 -79.4344 0)
(-792.371 -132.258 0)
(-804.066 -175.409 0)
(-803.851 -209.936 0)
(-794.857 -236.985 0)
(-779.533 -257.666 0)
(-759.746 -272.978 0)
(-736.914 -283.797 0)
(-712.109 -290.873 0)
(-686.134 -294.845 0)
(-659.586 -296.254 0)
(-632.907 -295.556 0)
(-606.419 -293.136 0)
(-580.353 -289.315 0)
(-554.871 -284.365 0)
(-530.085 -278.514 0)
(-506.064 -271.954 0)
(-482.852 -264.846 0)
(-460.47 -257.326 0)
(-438.923 -249.509 0)
(-418.206 -241.493 0)
(-398.306 -233.361 0)
(-379.203 -225.183 0)
(-360.872 -217.018 0)
(-343.284 -208.918 0)
(-326.41 -200.924 0)
(-310.218 -193.072 0)
(-294.681 -185.394 0)
(-279.772 -177.914 0)
(-265.467 -170.657 0)
(-251.745 -163.643 0)
(-238.584 -156.891 0)
(-225.965 -150.412 0)
(-213.87 -144.215 0)
(-202.282 -138.299 0)
(-191.178 -132.657 0)
(-180.53 -127.277 0)
(-170.3 -122.139 0)
(-160.439 -117.213 0)
(-150.881 -112.462 0)
(-141.561 -107.853 0)
(-132.418 -103.368 0)
(-123.408 -99.0159 0)
(-114.528 -94.8191 0)
(-105.831 -90.8171 0)
(-97.3717 -87.0689 0)
(-89.1851 -83.6214 0)
(-81.3084 -80.4909 0)
(-73.7957 -77.7182 0)
(-66.7358 -75.3318 0)
(-60.2301 -73.3301 0)
(-54.3156 -71.718 0)
(-48.9323 -70.431 0)
(-44.0112 -69.4498 0)
(-39.534 -68.6871 0)
(-35.2978 -68.0098 0)
(-31.2063 -67.4053 0)
(-27.1515 -66.6853 0)
(-22.9784 -65.797 0)
(-18.7405 -64.8735 0)
(-14.4331 -64.1069 0)
(-10.3773 -63.2747 0)
(-6.44675 -62.1652 0)
(-2.79469 -60.8771 0)
(0.605854 -59.4612 0)
(3.79071 -57.9341 0)
(6.78691 -56.309 0)
(9.61591 -54.5992 0)
(12.2962 -52.8191 0)
(14.8454 -50.9841 0)
(17.2813 -49.11 0)
(19.6181 -47.2118 0)
(21.8622 -45.3012 0)
(24.0153 -43.3858 0)
(26.078 -41.4683 0)
(28.0507 -39.5489 0)
(29.9343 -37.627 0)
(31.7287 -35.7025 0)
(33.4322 -33.7741 0)
(35.0446 -31.8397 0)
(36.5674 -29.8976 0)
(38.0074 -27.947 0)
(39.3769 -25.9874 0)
(40.6874 -24.0185 0)
(41.9463 -22.0411 0)
(43.1623 -20.0564 0)
(44.3541 -18.0643 0)
(45.5507 -16.0631 0)
(46.7324 -14.044 0)
(48.2444 -11.9736 0)
(-97.7392 -1640.64 0)
(744.645 -588.384 0)
(407.078 887.798 0)
(-508.831 1696.77 0)
(-615.922 1379.44 0)
(-758.418 1046.12 0)
(-817.877 717.748 0)
(-878.215 462.211 0)
(-923.446 265.543 0)
(-943.125 112.421 0)
(-944.475 -11.4696 0)
(-931.77 -110.399 0)
(-909.306 -186.042 0)
(-881.325 -243.283 0)
(-849.869 -285.983 0)
(-816.473 -317.167 0)
(-782.226 -339.217 0)
(-747.883 -354.02 0)
(-713.969 -363.074 0)
(-680.833 -367.573 0)
(-648.705 -368.471 0)
(-617.725 -366.534 0)
(-587.969 -362.374 0)
(-559.471 -356.487 0)
(-532.23 -349.269 0)
(-506.225 -341.041 0)
(-481.42 -332.062 0)
(-457.771 -322.543 0)
(-435.226 -312.652 0)
(-413.733 -302.53 0)
(-393.24 -292.288 0)
(-373.694 -282.022 0)
(-355.046 -271.807 0)
(-337.244 -261.706 0)
(-320.24 -251.77 0)
(-303.983 -242.04 0)
(-288.43 -232.548 0)
(-273.541 -223.32 0)
(-259.282 -214.377 0)
(-245.624 -205.734 0)
(-232.538 -197.402 0)
(-219.994 -189.389 0)
(-207.964 -181.7 0)
(-196.42 -174.332 0)
(-185.337 -167.273 0)
(-174.683 -160.507 0)
(-164.419 -154.018 0)
(-154.498 -147.789 0)
(-144.873 -141.799 0)
(-135.487 -136.025 0)
(-126.302 -130.449 0)
(-117.318 -125.081 0)
(-108.542 -119.962 0)
(-99.9859 -115.13 0)
(-91.6907 -110.607 0)
(-83.6859 -106.414 0)
(-75.9879 -102.598 0)
(-68.6539 -99.1504 0)
(-61.7559 -96.1083 0)
(-55.3442 -93.4755 0)
(-49.4057 -91.202 0)
(-43.9368 -89.2741 0)
(-38.8153 -87.5582 0)
(-33.9549 -86.0459 0)
(-29.4555 -84.624 0)
(-24.8858 -83.0896 0)
(-20.3543 -81.5451 0)
(-15.8371 -79.9513 0)
(-11.3593 -78.5182 0)
(-7.11358 -77.0734 0)
(-3.06485 -75.4788 0)
(0.703406 -73.7754 0)
(4.20562 -71.9881 0)
(7.47295 -70.1217 0)
(10.5355 -68.1822 0)
(13.4191 -66.1779 0)
(16.1429 -64.1175 0)
(18.7211 -62.0098 0)
(21.1659 -59.8631 0)
(23.4885 -57.6859 0)
(25.6993 -55.4867 0)
(27.8087 -53.2741 0)
(29.8263 -51.0557 0)
(31.7595 -48.8374 0)
(33.6129 -46.6238 0)
(35.3899 -44.4184 0)
(37.0945 -42.2236 0)
(38.7294 -40.0408 0)
(40.2957 -37.8713 0)
(41.7945 -35.7151 0)
(43.2288 -33.5707 0)
(44.6035 -31.4349 0)
(45.9234 -29.3057 0)
(47.1903 -27.1831 0)
(48.4083 -25.0679 0)
(49.5894 -22.96 0)
(50.7516 -20.8583 0)
(51.9131 -18.7639 0)
(53.0402 -16.681 0)
(54.4377 -14.6125 0)
(-1861.31 -3054.51 0)
(290.586 2368.38 0)
(-1332.74 2439.19 0)
(-1715.29 2059.56 0)
(-1726.54 1518.43 0)
(-1686.18 1073.98 0)
(-1599.86 718.263 0)
(-1497.55 442.29 0)
(-1393.7 218.123 0)
(-1299.99 28.3796 0)
(-1207.3 -116.62 0)
(-1122.71 -223.837 0)
(-1046.88 -303.139 0)
(-977.502 -360.721 0)
(-914.023 -401.466 0)
(-855.855 -429.183 0)
(-802.478 -446.839 0)
(-753.419 -456.738 0)
(-708.245 -460.667 0)
(-666.566 -460.017 0)
(-628.031 -455.872 0)
(-592.324 -449.079 0)
(-559.162 -440.303 0)
(-528.292 -430.065 0)
(-499.49 -418.771 0)
(-472.554 -406.742 0)
(-447.306 -394.229 0)
(-423.59 -381.429 0)
(-401.265 -368.495 0)
(-380.212 -355.549 0)
(-360.321 -342.687 0)
(-341.5 -329.985 0)
(-323.666 -317.504 0)
(-306.745 -305.296 0)
(-290.663 -293.395 0)
(-275.352 -281.829 0)
(-260.747 -270.619 0)
(-246.795 -259.78 0)
(-233.451 -249.325 0)
(-220.679 -239.258 0)
(-208.442 -229.581 0)
(-196.701 -220.289 0)
(-185.42 -211.375 0)
(-174.563 -202.829 0)
(-164.104 -194.632 0)
(-154.009 -186.756 0)
(-144.239 -179.186 0)
(-134.757 -171.921 0)
(-125.537 -164.963 0)
(-116.555 -158.316 0)
(-107.803 -151.966 0)
(-99.3073 -145.927 0)
(-91.0876 -140.236 0)
(-83.1297 -134.926 0)
(-75.4471 -130.008 0)
(-68.0758 -125.462 0)
(-61.0601 -121.363 0)
(-54.4462 -117.655 0)
(-48.2488 -114.343 0)
(-42.4221 -111.359 0)
(-36.8767 -108.658 0)
(-31.7164 -106.195 0)
(-26.6759 -103.75 0)
(-21.668 -101.409 0)
(-17.0138 -99.0749 0)
(-12.0997 -96.7149 0)
(-7.54827 -94.6293 0)
(-3.18494 -92.4682 0)
(0.923918 -90.2398 0)
(4.76479 -87.9649 0)
(8.34657 -85.6578 0)
(11.6905 -83.3221 0)
(14.8204 -80.959 0)
(17.7586 -78.5703 0)
(20.5244 -76.1589 0)
(23.1341 -73.7289 0)
(25.6007 -71.2849 0)
(27.9341 -68.8321 0)
(30.143 -66.375 0)
(32.2353 -63.9184 0)
(34.2201 -61.4671 0)
(36.1076 -59.0259 0)
(37.908 -56.5986 0)
(39.6287 -54.1886 0)
(41.2742 -51.7986 0)
(42.8502 -49.4306 0)
(44.3619 -47.0862 0)
(45.811 -44.7666 0)
(47.1998 -42.4721 0)
(48.5337 -40.2022 0)
(49.8212 -37.955 0)
(51.069 -35.7282 0)
(52.2796 -33.5199 0)
(53.455 -31.328 0)
(54.6017 -29.1502 0)
(55.7302 -26.9845 0)
(56.8519 -24.8314 0)
(57.9778 -22.6943 0)
(59.0745 -20.5784 0)
(60.4383 -18.4899 0)
(-9921.01 -4131.42 0)
(-959.124 7385.38 0)
(-3804.27 4488.09 0)
(-3261.34 3102.26 0)
(-2935.14 2009.79 0)
(-2594.58 1205.07 0)
(-2295.01 583.951 0)
(-2029.25 137.3 0)
(-1792.1 -143.656 0)
(-1585.58 -316.724 0)
(-1412.82 -429.998 0)
(-1265.99 -504.254 0)
(-1140.61 -551.699 0)
(-1033.17 -580.472 0)
(-940.645 -595.891 0)
(-860.525 -601.637 0)
(-790.749 -600.383 0)
(-729.608 -594.06 0)
(-675.688 -584.078 0)
(-627.826 -571.481 0)
(-585.071 -557.046 0)
(-546.641 -541.358 0)
(-511.894 -524.859 0)
(-480.3 -507.884 0)
(-451.419 -490.689 0)
(-424.88 -473.467 0)
(-400.375 -456.363 0)
(-377.643 -439.489 0)
(-356.467 -422.924 0)
(-336.671 -406.726 0)
(-318.105 -390.938 0)
(-300.646 -375.589 0)
(-284.191 -360.704 0)
(-268.653 -346.299 0)
(-253.949 -332.382 0)
(-239.996 -318.953 0)
(-226.718 -306.008 0)
(-214.046 -293.544 0)
(-201.929 -281.564 0)
(-190.324 -270.069 0)
(-179.186 -259.053 0)
(-168.468 -248.504 0)
(-158.135 -238.404 0)
(-148.154 -228.746 0)
(-138.501 -219.509 0)
(-129.154 -210.662 0)
(-120.092 -202.187 0)
(-111.308 -194.094 0)
(-102.797 -186.397 0)
(-94.5357 -179.123 0)
(-86.5114 -172.238 0)
(-78.763 -165.751 0)
(-71.3223 -159.663 0)
(-64.157 -153.988 0)
(-57.2857 -148.779 0)
(-50.7131 -143.927 0)
(-44.4763 -139.545 0)
(-38.5605 -135.475 0)
(-32.9577 -131.725 0)
(-27.5053 -128.123 0)
(-22.1209 -124.736 0)
(-17.1339 -121.458 0)
(-12.0142 -118.155 0)
(-7.16791 -115.156 0)
(-2.56075 -112.223 0)
(1.8068 -109.295 0)
(5.91432 -106.368 0)
(9.76372 -103.449 0)
(13.3709 -100.541 0)
(16.7491 -97.6457 0)
(19.9119 -94.7614 0)
(22.8762 -91.8888 0)
(25.6608 -89.0289 0)
(28.2829 -86.1829 0)
(30.7569 -83.3524 0)
(33.0939 -80.539 0)
(35.3027 -77.7446 0)
(37.3913 -74.9712 0)
(39.3665 -72.2203 0)
(41.2338 -69.4936 0)
(42.9994 -66.7925 0)
(44.6718 -64.1188 0)
(46.2608 -61.4742 0)
(47.7747 -58.8606 0)
(49.2195 -56.2793 0)
(50.6011 -53.7308 0)
(51.9248 -51.2154 0)
(53.1953 -48.7325 0)
(54.4177 -46.2803 0)
(55.5991 -43.8567 0)
(56.7459 -41.46 0)
(57.8631 -39.0899 0)
(58.9537 -36.746 0)
(60.0206 -34.4276 0)
(61.0669 -32.134 0)
(62.0952 -29.8662 0)
(63.1079 -27.6268 0)
(64.1084 -25.4205 0)
(65.0567 -23.2533 0)
(66.2431 -21.1334 0)
(-44286.8 10448.1 0)
(-838.619 1378.58 0)
(-9661.53 -136.574 0)
(-6398.97 -865.109 0)
(-5049.53 -1181.08 0)
(-3930.75 -1244.03 0)
(-3111.68 -1213.75 0)
(-2510.36 -1148.14 0)
(-2066.89 -1094.1 0)
(-1731.77 -1046.14 0)
(-1473.64 -1001.86 0)
(-1271.45 -960.315 0)
(-1110.67 -921.029 0)
(-980.888 -883.846 0)
(-874.673 -848.261 0)
(-786.553 -813.998 0)
(-712.532 -781.023 0)
(-649.651 -749.314 0)
(-595.642 -718.836 0)
(-548.772 -689.551 0)
(-507.709 -661.416 0)
(-471.415 -634.387 0)
(-439.082 -608.419 0)
(-410.066 -583.469 0)
(-383.848 -559.5 0)
(-360.001 -536.475 0)
(-338.169 -514.364 0)
(-318.055 -493.139 0)
(-299.416 -472.771 0)
(-282.061 -453.234 0)
(-265.83 -434.497 0)
(-250.592 -416.532 0)
(-236.248 -399.309 0)
(-222.718 -382.802 0)
(-209.927 -366.983 0)
(-197.797 -351.82 0)
(-186.251 -337.278 0)
(-175.228 -323.329 0)
(-164.68 -309.959 0)
(-154.565 -297.171 0)
(-144.83 -284.952 0)
(-135.42 -273.303 0)
(-126.302 -262.188 0)
(-117.465 -251.618 0)
(-108.906 -241.573 0)
(-100.613 -232.017 0)
(-92.5716 -222.916 0)
(-84.7884 -214.273 0)
(-77.2626 -206.078 0)
(-69.9714 -198.387 0)
(-62.8788 -191.118 0)
(-56.0439 -184.35 0)
(-49.5463 -177.997 0)
(-43.3221 -171.997 0)
(-37.3783 -166.457 0)
(-31.5559 -161.149 0)
(-25.9164 -156.313 0)
(-20.5029 -151.641 0)
(-15.388 -147.186 0)
(-10.1276 -142.768 0)
(-5.20499 -138.773 0)
(-0.493241 -134.884 0)
(3.98371 -131.083 0)
(8.22204 -127.351 0)
(12.2196 -123.684 0)
(15.985 -120.078 0)
(19.5284 -116.528 0)
(22.8605 -113.029 0)
(25.9931 -109.578 0)
(28.9373 -106.173 0)
(31.7036 -102.812 0)
(34.3035 -99.4937 0)
(36.7502 -96.217 0)
(39.0566 -92.9824 0)
(41.2341 -89.7905 0)
(43.2918 -86.642 0)
(45.2373 -83.5371 0)
(47.0766 -80.476 0)
(48.8151 -77.4585 0)
(50.4578 -74.4843 0)
(52.01 -71.5525 0)
(53.4782 -68.6625 0)
(54.869 -65.8142 0)
(56.1888 -63.0081 0)
(57.4439 -60.2446 0)
(58.6409 -57.5236 0)
(59.787 -54.845 0)
(60.8886 -52.2079 0)
(61.951 -49.6111 0)
(62.9785 -47.0536 0)
(63.9746 -44.5352 0)
(64.9425 -42.0559 0)
(65.885 -39.6161 0)
(66.8042 -37.2162 0)
(67.7017 -34.857 0)
(68.578 -32.5395 0)
(69.4335 -30.2646 0)
(70.2691 -28.0335 0)
(71.0428 -25.8471 0)
(72.0314 -23.7071 0)
(-31601.7 -9237.34 0)
(2952.16 -6261.03 0)
(-5285.32 -5072 0)
(-3675.28 -4578.52 0)
(-2966.51 -3832.98 0)
(-2414.96 -3077.24 0)
(-1980.54 -2567.08 0)
(-1667.58 -2192.51 0)
(-1418.09 -1905.37 0)
(-1220.06 -1681.29 0)
(-1060.71 -1504.26 0)
(-931.104 -1362.13 0)
(-824.681 -1245.93 0)
(-736.101 -1150.2 0)
(-661.931 -1069.2 0)
(-599.11 -999.234 0)
(-545.325 -937.935 0)
(-498.946 -883.558 0)
(-458.616 -834.787 0)
(-423.259 -790.628 0)
(-392.012 -750.312 0)
(-364.19 -713.24 0)
(-339.249 -678.933 0)
(-316.758 -647.004 0)
(-296.363 -617.14 0)
(-277.767 -589.092 0)
(-260.71 -562.66 0)
(-244.965 -537.691 0)
(-230.34 -514.061 0)
(-216.683 -491.671 0)
(-203.863 -470.432 0)
(-191.769 -450.265 0)
(-180.32 -431.096 0)
(-169.462 -412.859 0)
(-159.147 -395.493 0)
(-149.322 -378.941 0)
(-139.93 -363.149 0)
(-130.932 -348.063 0)
(-122.301 -333.651 0)
(-114.006 -319.908 0)
(-105.998 -306.803 0)
(-98.2162 -294.367 0)
(-90.6358 -282.53 0)
(-83.255 -271.339 0)
(-76.0883 -260.771 0)
(-69.1252 -250.775 0)
(-62.3619 -241.306 0)
(-55.8188 -232.352 0)
(-49.4813 -223.84 0)
(-43.3521 -215.859 0)
(-37.3338 -208.211 0)
(-31.4894 -201.16 0)
(-25.9282 -194.486 0)
(-20.5458 -188.059 0)
(-15.4423 -181.999 0)
(-10.2106 -176.003 0)
(-5.27288 -170.582 0)
(-0.526609 -165.385 0)
(4.02014 -160.387 0)
(8.36823 -155.562 0)
(12.515 -150.883 0)
(16.4569 -146.34 0)
(20.1991 -141.918 0)
(23.7472 -137.606 0)
(27.1067 -133.394 0)
(30.2841 -129.273 0)
(33.2862 -125.235 0)
(36.1203 -121.274 0)
(38.7939 -117.388 0)
(41.3147 -113.571 0)
(43.6905 -109.82 0)
(45.9294 -106.135 0)
(48.0398 -102.512 0)
(50.0308 -98.9507 0)
(51.9108 -95.451 0)
(53.6874 -92.0126 0)
(55.3671 -88.635 0)
(56.9555 -85.3178 0)
(58.4576 -82.0601 0)
(59.8779 -78.8607 0)
(61.2206 -75.718 0)
(62.4895 -72.6307 0)
(63.6888 -69.5978 0)
(64.8233 -66.6185 0)
(65.8984 -63.6923 0)
(66.9197 -60.8189 0)
(67.8932 -57.9981 0)
(68.8246 -55.2301 0)
(69.7184 -52.5151 0)
(70.5783 -49.853 0)
(71.4073 -47.2438 0)
(72.2078 -44.6871 0)
(72.9815 -42.1825 0)
(73.7298 -39.7295 0)
(74.4541 -37.328 0)
(75.1562 -34.9775 0)
(75.8373 -32.6776 0)
(76.5001 -30.427 0)
(77.1058 -28.2233 0)
(77.9075 -26.0628 0)
(4082.09 1954.92 0)
(3847.06 -1259.89 0)
(1922.46 -3330.46 0)
(742.215 -4244.03 0)
(198.779 -4066.73 0)
(-215.898 -3284.94 0)
(-354.814 -2796.32 0)
(-440.266 -2424.55 0)
(-469.92 -2125.53 0)
(-471.655 -1882.85 0)
(-459.113 -1686 0)
(-439.39 -1524.74 0)
(-416.802 -1389.61 0)
(-391.952 -1278.4 0)
(-367.689 -1183.38 0)
(-344.475 -1100.66 0)
(-322.367 -1028.03 0)
(-301.679 -963.694 0)
(-282.47 -906.247 0)
(-264.699 -854.571 0)
(-248.257 -807.773 0)
(-233.015 -765.132 0)
(-218.849 -726.052 0)
(-205.656 -690.034 0)
(-193.354 -656.657 0)
(-181.871 -625.571 0)
(-171.132 -596.495 0)
(-161.055 -569.206 0)
(-151.559 -543.533 0)
(-142.568 -519.338 0)
(-134.008 -496.506 0)
(-125.806 -474.933 0)
(-117.91 -454.527 0)
(-110.295 -435.203 0)
(-102.952 -416.882 0)
(-95.8694 -399.49 0)
(-89.0251 -382.965 0)
(-82.4068 -367.242 0)
(-76.0136 -352.27 0)
(-69.8289 -338.031 0)
(-63.8101 -324.448 0)
(-57.9135 -311.607 0)
(-52.1141 -299.362 0)
(-46.4031 -287.84 0)
(-40.8184 -276.991 0)
(-35.3703 -266.727 0)
(-30.0622 -257.007 0)
(-24.9116 -247.804 0)
(-19.8546 -238.99 0)
(-14.9601 -230.677 0)
(-9.96575 -222.526 0)
(-5.20657 -215.066 0)
(-0.616274 -207.959 0)
(3.80259 -201.17 0)
(8.0557 -194.682 0)
(12.1458 -188.469 0)
(16.0753 -182.501 0)
(19.8427 -176.761 0)
(23.4539 -171.228 0)
(26.914 -165.884 0)
(30.2261 -160.714 0)
(33.3925 -155.701 0)
(36.4156 -150.83 0)
(39.2976 -146.089 0)
(42.0413 -141.466 0)
(44.6496 -136.953 0)
(47.1258 -132.541 0)
(49.4735 -128.224 0)
(51.697 -123.996 0)
(53.8006 -119.854 0)
(55.7893 -115.793 0)
(57.6682 -111.812 0)
(59.4427 -107.907 0)
(61.1186 -104.078 0)
(62.7019 -100.323 0)
(64.1982 -96.6411 0)
(65.6128 -93.0323 0)
(66.9504 -89.4956 0)
(68.2153 -86.0303 0)
(69.4114 -82.6355 0)
(70.5422 -79.3098 0)
(71.6103 -76.0518 0)
(72.6183 -72.8601 0)
(73.5691 -69.7334 0)
(74.4661 -66.6708 0)
(75.3129 -63.6717 0)
(76.1136 -60.7358 0)
(76.8722 -57.863 0)
(77.5927 -55.0535 0)
(78.279 -52.307 0)
(78.9347 -49.6232 0)
(79.563 -47.0013 0)
(80.1662 -44.44 0)
(80.7456 -41.938 0)
(81.3022 -39.4939 0)
(81.8369 -37.1061 0)
(82.3522 -34.7732 0)
(82.8536 -32.4935 0)
(83.3081 -30.2641 0)
(83.9434 -28.0807 0)
(2673.43 -744.46 0)
(2973.19 -1639.14 0)
(2518.25 -2044.94 0)
(1944.64 -2220.64 0)
(1419.27 -2284.31 0)
(992.082 -2261.46 0)
(682.507 -2171.58 0)
(448.591 -2036.11 0)
(275.856 -1882.94 0)
(154.5 -1733.21 0)
(70.9501 -1597.22 0)
(13.5934 -1476.75 0)
(-26.7762 -1365.56 0)
(-51.7253 -1272.24 0)
(-68.6294 -1188.64 0)
(-80.011 -1112.99 0)
(-87.1374 -1044.58 0)
(-91.2078 -982.63 0)
(-93.0751 -926.375 0)
(-93.3535 -875.118 0)
(-92.4707 -828.247 0)
(-90.7151 -785.235 0)
(-88.2848 -745.623 0)
(-85.3336 -709.007 0)
(-81.9971 -675.022 0)
(-78.4009 -643.352 0)
(-74.6512 -613.724 0)
(-70.8245 -585.918 0)
(-66.9669 -559.762 0)
(-63.0962 -535.116 0)
(-59.2087 -511.864 0)
(-55.2886 -489.905 0)
(-51.3241 -469.155 0)
(-47.3186 -449.529 0)
(-43.2887 -430.947 0)
(-39.2522 -413.332 0)
(-35.2191 -396.615 0)
(-31.2124 -380.735 0)
(-27.2496 -365.633 0)
(-23.3386 -351.282 0)
(-19.4567 -337.572 0)
(-15.6203 -324.602 0)
(-11.7479 -312.136 0)
(-7.87387 -300.403 0)
(-4.03257 -289.356 0)
(-0.224846 -278.875 0)
(3.54029 -268.926 0)
(7.2579 -259.475 0)
(10.9277 -250.481 0)
(14.5401 -241.919 0)
(18.079 -233.759 0)
(21.5295 -225.967 0)
(24.8743 -218.513 0)
(28.1084 -211.373 0)
(31.2307 -204.523 0)
(34.2427 -197.943 0)
(37.1474 -191.615 0)
(39.9488 -185.519 0)
(42.651 -179.638 0)
(45.2577 -173.954 0)
(47.7715 -168.451 0)
(50.1937 -163.115 0)
(52.5246 -157.932 0)
(54.7641 -152.888 0)
(56.9116 -147.973 0)
(58.9669 -143.177 0)
(60.9301 -138.492 0)
(62.8018 -133.912 0)
(64.5831 -129.43 0)
(66.2754 -125.042 0)
(67.8811 -120.744 0)
(69.4027 -116.534 0)
(70.8431 -112.41 0)
(72.2057 -108.368 0)
(73.494 -104.409 0)
(74.7118 -100.532 0)
(75.8628 -96.7352 0)
(76.9505 -93.0187 0)
(77.9781 -89.3819 0)
(78.9488 -85.8241 0)
(79.8655 -82.3445 0)
(80.7305 -78.9421 0)
(81.5455 -75.6154 0)
(82.3117 -72.363 0)
(83.0308 -69.1838 0)
(83.7049 -66.0765 0)
(84.3367 -63.0405 0)
(84.9291 -60.0748 0)
(85.4856 -57.1787 0)
(86.0096 -54.3516 0)
(86.5049 -51.5925 0)
(86.9747 -48.9006 0)
(87.4212 -46.2746 0)
(87.8463 -43.713 0)
(88.2511 -41.2143 0)
(88.6365 -38.7765 0)
(89.0047 -36.3978 0)
(89.3607 -34.0767 0)
(89.6744 -31.8122 0)
(90.1523 -29.6026 0)
(2246.42 -224.412 0)
(2463.04 -579.593 0)
(2079.19 -909.025 0)
(1713.12 -1165.4 0)
(1451.83 -1336.48 0)
(1228.89 -1430.4 0)
(1019.8 -1472.82 0)
(832.905 -1478.57 0)
(676.302 -1457.22 0)
(549.27 -1416.73 0)
(446.692 -1363.77 0)
(363.422 -1303.69 0)
(295.802 -1240.63 0)
(241.149 -1177.53 0)
(196.842 -1116.21 0)
(160.769 -1057.64 0)
(131.448 -1002.38 0)
(107.672 -950.587 0)
(88.4072 -902.227 0)
(72.7871 -857.132 0)
(60.1095 -815.09 0)
(49.8312 -775.875 0)
(41.5449 -739.267 0)
(34.9364 -705.047 0)
(29.7411 -673.004 0)
(25.719 -642.932 0)
(22.6506 -614.64 0)
(20.3446 -587.962 0)
(18.6491 -562.761 0)
(17.459 -538.923 0)
(16.7037 -516.353 0)
(16.3372 -494.972 0)
(16.3304 -474.709 0)
(16.6591 -455.497 0)
(17.2943 -437.27 0)
(18.2003 -419.962 0)
(19.3369 -403.511 0)
(20.6577 -387.865 0)
(22.1252 -372.974 0)
(23.709 -358.797 0)
(25.3881 -345.296 0)
(27.1457 -332.446 0)
(28.968 -320.217 0)
(30.8526 -308.58 0)
(32.7954 -297.509 0)
(34.7935 -286.975 0)
(36.8441 -276.949 0)
(38.941 -267.398 0)
(41.0745 -258.293 0)
(43.2306 -249.603 0)
(45.3927 -241.3 0)
(47.5433 -233.356 0)
(49.667 -225.745 0)
(51.752 -218.44 0)
(53.7907 -211.42 0)
(55.7796 -204.664 0)
(57.7178 -198.152 0)
(59.6069 -191.868 0)
(61.449 -185.795 0)
(63.2463 -179.917 0)
(65.0003 -174.22 0)
(66.7111 -168.691 0)
(68.3776 -163.315 0)
(69.9978 -158.082 0)
(71.5689 -152.98 0)
(73.088 -148.001 0)
(74.5526 -143.135 0)
(75.9602 -138.377 0)
(77.3091 -133.72 0)
(78.5983 -129.161 0)
(79.8276 -124.695 0)
(80.9972 -120.32 0)
(82.1081 -116.034 0)
(83.1615 -111.835 0)
(84.1589 -107.722 0)
(85.102 -103.694 0)
(85.9929 -99.7517 0)
(86.834 -95.8936 0)
(87.6275 -92.1197 0)
(88.3758 -88.4298 0)
(89.0811 -84.8233 0)
(89.7452 -81.2995 0)
(90.3696 -77.8574 0)
(90.9549 -74.4959 0)
(91.5018 -71.2135 0)
(92.0111 -68.0088 0)
(92.4844 -64.8806 0)
(92.9236 -61.8275 0)
(93.331 -58.8487 0)
(93.7092 -55.9429 0)
(94.0614 -53.1094 0)
(94.3902 -50.3472 0)
(94.6981 -47.6552 0)
(94.9871 -45.0323 0)
(95.2582 -42.477 0)
(95.5122 -39.9879 0)
(95.75 -37.5636 0)
(95.9743 -35.2031 0)
(96.1542 -32.9061 0)
(96.4822 -30.6723 0)
(1824.29 -174.046 0)
(1999.35 -455.968 0)
(1763.09 -685.106 0)
(1563.47 -848.336 0)
(1430.94 -966.185 0)
(1302.83 -1049.09 0)
(1163.55 -1102.34 0)
(1025.21 -1131 0)
(897.756 -1140.27 0)
(784.161 -1134.76 0)
(684.23 -1118.16 0)
(596.98 -1093.41 0)
(521.32 -1062.88 0)
(456.111 -1028.57 0)
(400.125 -992.047 0)
(352.124 -954.472 0)
(310.973 -916.702 0)
(275.688 -879.372 0)
(245.426 -842.928 0)
(219.445 -807.657 0)
(197.101 -773.733 0)
(177.849 -741.245 0)
(161.253 -710.23 0)
(146.965 -680.685 0)
(134.695 -652.576 0)
(124.178 -625.843 0)
(115.163 -600.411 0)
(107.413 -576.203 0)
(100.724 -553.143 0)
(94.9261 -531.163 0)
(89.896 -510.209 0)
(85.5456 -490.233 0)
(81.8134 -471.189 0)
(78.6514 -453.038 0)
(76.0151 -435.736 0)
(73.8573 -419.242 0)
(72.1269 -403.513 0)
(70.7697 -388.507 0)
(69.7325 -374.184 0)
(68.9662 -360.51 0)
(68.4292 -347.452 0)
(68.0886 -334.985 0)
(67.9206 -323.084 0)
(67.9104 -311.724 0)
(68.0492 -300.885 0)
(68.3315 -290.543 0)
(68.752 -280.674 0)
(69.3031 -271.252 0)
(69.9737 -262.251 0)
(70.7487 -253.645 0)
(71.6096 -245.405 0)
(72.5367 -237.507 0)
(73.5109 -229.923 0)
(74.5154 -222.631 0)
(75.5372 -215.608 0)
(76.5671 -208.835 0)
(77.6 -202.294 0)
(78.6336 -195.968 0)
(79.6674 -189.842 0)
(80.7018 -183.901 0)
(81.7369 -178.134 0)
(82.7718 -172.527 0)
(83.8044 -167.069 0)
(84.8316 -161.749 0)