/*--------------------------------*- C++ -*----------------------------------*\
| =========                 |                                                 |
| \\      /  F ield         | OpenFOAM: The Open Source CFD Toolbox           |
|  \\    /   O peration     | Version:  2412                                  |
|   \\  /    A nd           | Website:  www.openfoam.com                      |
|    \\/     M anipulation  |                                                 |
\*---------------------------------------------------------------------------*/
FoamFile
{
    version     2.0;
    format      ascii;
    arch        "LSB;label=32;scalar=64";
    class       volScalarField;
    location    "7";
    object      p;
}
// * * * * * * * * * * * * * * * * * * * * * * * * * * * * * * * * * * * * * //

dimensions      [1 -1 -2 0 0 0 0];

internalField   nonuniform List<scalar> 
200
(
1.19356
0.863885
1.08102
0.924565
1.04084
0.97973
1.00872
1.00019
1.00097
1.0016
1.19093
0.837631
1.05751
0.98722
0.998633
0.996388
0.996959
0.99822
0.999362
1.00014
1.186
0.841923
1.04327
0.981227
1.00005
0.996661
0.997855
0.999176
1.00015
1.00077
1.17954
0.874726
1.05011
0.952063
0.994369
0.981469
0.988711
0.992539
0.995697
0.99772
1.22445
0.928731
1.01218
0.984516
0.994002
0.993446
0.994978
0.996121
0.997283
0.998313
1.19068
0.866099
1.06472
0.952646
1.00688
0.986638
0.992561
0.9923
0.993773
0.995497
1.19281
0.8268
1.04678
0.993223
0.997334
0.996359
0.996105
0.996435
0.996909
0.997436
1.20165
0.845236
1.09754
0.975079
1.00511
1.00079
0.998853
0.998439
0.999241
0.999933
1.20024
0.862861
1.07039
0.893113
1.0379
0.980119
1.00549
0.998168
1.00099
1.00076
1.20009
0.857763
1.0836
0.946608
1.02382
0.981134
1.01123
0.990178
1.00769
0.996727
1.00186
1.00174
1.00166
1.00168
1.00177
1.00189
1.00199
1.00205
1.00208
1.00208
1.00069
1.00086
1.00094
1.00125
1.00159
1.00186
1.00201
1.00208
1.00211
1.00212
1.00116
1.00137
1.00152
1.00171
1.00186
1.00197
1.00203
1.00207
1.00209
1.00208
0.999379
1.00035
1.00085
1.00126
1.00159
1.00183
1.00198
1.00206
1.00209
1.00209
0.999338
1.00004
1.00069
1.00123
1.00161
1.00184
1.00196
1.00202
1.00203
1.00201
0.997855
0.999241
1.0005
1.00113
1.00154
1.00176
1.00187
1.00192
1.00193
1.00193
0.998603
0.999643
1.00059
1.00115
1.00146
1.00163
1.00171
1.00174
1.00176
1.0018
1.00089
1.00079
1.00118
1.00129
1.00141
1.00156
1.00165
1.00163
1.00157
1.00171
1.00127
1.00053
1.00117
1.00115
1.00126
1.0013
1.00152
1.00151
1.00149
1.00172
1.00436
0.999684
1.00175
1.00125
1.00144
1.00147
1.00157
1.0016
1.00155
1.00173
)
;

boundaryField
{
    inlet
    {
        type            fixedValue;
        value           uniform 1;
    }
    sym
    {
        type            slip;
    }
    wedge
    {
        type            slip;
    }
    top
    {
        type            slip;
    }
    back
    {
        type            empty;
    }
    front
    {
        type            empty;
    }
    outlet
    {
        type            zeroGradient;
    }
}


// ************************************************************************* //
