/*--------------------------------*- C++ -*----------------------------------*\
| =========                 |                                                 |
| \\      /  F ield         | OpenFOAM: The Open Source CFD Toolbox           |
|  \\    /   O peration     | Version:  2412                                  |
|   \\  /    A nd           | Website:  www.openfoam.com                      |
|    \\/     M anipulation  |                                                 |
\*---------------------------------------------------------------------------*/
FoamFile
{
    version     2.0;
    format      ascii;
    arch        "LSB;label=32;scalar=64";
    class       surfaceScalarField;
    location    "7";
    object      phi;
}
// * * * * * * * * * * * * * * * * * * * * * * * * * * * * * * * * * * * * * //

dimensions      [1 0 -1 0 0 0 0];

oriented        oriented;

internalField   nonuniform List<scalar> 
370
(
0.529202
6.26409e-08
0.529201
3.77654e-07
0.5292
1.22537e-06
0.529197
3.26446e-06
0.529189
7.99748e-06
0.52917
1.88657e-05
0.529126
4.38434e-05
0.529024
0.000101852
0.528786
0.000240271
0.000590776
0.528192
0.529202
3.20556e-08
0.529202
2.00824e-07
0.529203
6.75123e-07
0.529204
1.83085e-06
0.529207
4.51851e-06
0.529216
1.06654e-05
0.529235
2.46426e-05
0.529281
5.64406e-05
0.529391
0.000128838
0.000296826
0.529686
0.529202
1.01204e-08
0.529202
6.33235e-08
0.529203
2.12439e-07
0.529204
5.74439e-07
0.529207
1.41195e-06
0.529214
3.31475e-06
0.529231
7.60569e-06
0.52927
1.72734e-05
0.52936
3.89204e-05
8.80279e-05
0.529569
0.529202
3.18662e-09
0.529202
1.99506e-08
0.529202
6.69368e-08
0.529202
1.80841e-07
0.529203
4.43698e-07
0.529206
1.03869e-06
0.529211
2.37448e-06
0.529223
5.36627e-06
0.52925
1.20255e-05
2.69637e-05
0.529311
0.529202
1.00635e-09
0.529202
6.29655e-09
0.529202
2.11123e-08
0.529202
5.70177e-08
0.529202
1.3987e-07
0.529203
3.27392e-07
0.529205
7.48392e-07
0.529208
1.6911e-06
0.529217
3.78942e-06
8.4894e-06
0.529235
0.529202
3.26271e-10
0.529202
2.04127e-09
0.529202
6.84431e-09
0.529202
1.84858e-08
0.529202
4.53546e-08
0.529202
1.06187e-07
0.529203
2.42807e-07
0.529204
5.48855e-07
0.529206
1.23023e-06
2.75505e-06
0.529212
0.529202
1.05609e-10
0.529202
6.60685e-10
0.529202
2.21532e-09
0.529202
5.98373e-09
0.529202
1.46822e-08
0.529202
3.4381e-08
0.529202
7.86279e-08
0.529203
1.7778e-07
0.529203
3.98563e-07
8.92366e-07
0.529205
0.529202
3.30723e-11
0.529202
2.06983e-10
0.529202
6.94272e-10
0.529202
1.8755e-09
0.529202
4.60155e-09
0.529202
1.07736e-08
0.529202
2.46321e-08
0.529202
5.56774e-08
0.529202
1.24771e-07
2.79099e-07
0.529203
0.529202
9.05954e-12
0.529202
5.67501e-11
0.529202
1.90521e-10
0.529202
5.14801e-10
0.529202
1.26282e-09
0.529202
2.95517e-09
0.529202
6.75162e-09
0.529202
1.52467e-08
0.529202
3.41384e-08
7.62728e-08
0.529202
0.529202
0.529202
0.529202
0.529202
0.529202
0.529202
0.529202
0.529202
0.529202
0.529202
0.643589
-0.115406
0.753803
-0.110234
0.855612
-0.101826
0.950014
-0.0944195
1.02321
-0.0731741
1.06676
-0.0435496
1.06593
0.000892209
0.982835
0.0831324
0.888866
0.0939297
0.0654691
0.529279
-0.115005
0.527705
-0.108677
0.529472
-0.103597
0.530905
-0.0958109
0.548833
-0.0911351
0.576631
-0.0713626
0.620176
-0.0426192
0.690641
0.0127031
0.721803
0.062692
0.0935905
0.519008
-0.104439
0.512755
-0.102427
0.509597
-0.100454
0.511082
-0.0972879
0.514349
-0.0944042
0.53196
-0.08897
0.568851
-0.0795103
0.649913
-0.0683672
0.757992
-0.045395
0.0570016
0.515792
-0.0909161
0.503401
-0.0900397
0.492173
-0.0892273
0.482706
-0.087821
0.474675
-0.0863774
0.470024
-0.0843174
0.470297
-0.0797843
0.473835
-0.0719073
0.486094
-0.057666
-0.0337563
0.514501
-0.0761809
0.500311
-0.0758512
0.486577
-0.0754928
0.473661
-0.074906
0.461509
-0.0742265
0.450463
-0.0732713
0.442437
-0.0717571
0.438677
-0.0681497
0.443235
-0.0622243
-0.054074
0.514104
-0.0610724
0.499209
-0.0609567
0.484517
-0.0608006
0.470174
-0.0605633
0.45619
-0.0602425
0.442725
-0.0598064
0.430102
-0.0591341
0.419846
-0.0578929
0.412988
-0.0553676
-0.0519451
0.513973
-0.0458401
0.498818
-0.0458023
0.483757
-0.0457395
0.468837
-0.0456432
0.454087
-0.045493
0.439572
-0.0452914
0.42541
-0.0449715
0.411982
-0.0444646
0.400059
-0.0434455
-0.0419425
0.513932
-0.0305691
0.498687
-0.0305575
0.483482
-0.0305345
0.468332
-0.0304924
0.453263
-0.030425
0.438303
-0.0303306
0.423508
-0.0301774
0.40899
-0.0299463
0.39507
-0.029525
-0.0288572
0.513919
-0.015286
0.498644
-0.0152824
0.483384
-0.0152748
0.468151
-0.0152588
0.452959
-0.0152334
0.43782
-0.0151918
0.422772
-0.015129
0.407858
-0.0150323
0.393207
-0.0148735
-0.0146058
0.513916
0.498634
0.483359
0.4681
0.452866
0.437675
0.422546
0.407514
0.39264
)
;

boundaryField
{
    inlet
    {
        type            calculated;
        value           nonuniform List<scalar> 10(-0.529202 -0.529202 -0.529202 -0.529202 -0.529202 -0.529202 -0.529202 -0.529202 -0.529202 -0.529202);
    }
    sym
    {
        type            calculated;
        value           uniform 0;
    }
    wedge
    {
        type            calculated;
        value           nonuniform List<scalar> 10(-1.68131e-37 0 3.229e-17 0 4.65294e-17 0 0 1.178e-16 0 5.34068e-17);
    }
    top
    {
        type            calculated;
        value           uniform 0;
    }
    back
    {
        type            empty;
    }
    front
    {
        type            empty;
    }
    outlet
    {
        type            calculated;
        value           nonuniform List<scalar> 10(0.823372 0.693657 0.794586 0.5768 0.463535 0.410854 0.390056 0.381984 0.378955 0.378034);
    }
}


// ************************************************************************* //
