/*--------------------------------*- C++ -*----------------------------------*\
| =========                 |                                                 |
| \\      /  F ield         | OpenFOAM: The Open Source CFD Toolbox           |
|  \\    /   O peration     | Version:  2412                                  |
|   \\  /    A nd           | Website:  www.openfoam.com                      |
|    \\/     M anipulation  |                                                 |
\*---------------------------------------------------------------------------*/
FoamFile
{
    version     2.0;
    format      ascii;
    arch        "LSB;label=32;scalar=64";
    class       surfaceScalarField;
    location    "7";
    object      phi;
}
// * * * * * * * * * * * * * * * * * * * * * * * * * * * * * * * * * * * * * //

dimensions      [1 0 -1 0 0 0 0];

oriented        oriented;

internalField   nonuniform List<scalar> 
370
(
4.56181e-05
9.28944e-05
-0.000182827
0.000228405
-0.000193177
1.02426e-05
0.000319181
-0.000512316
0.000281327
3.78487e-05
0.000418425
-0.000137074
0.000419719
-1.28304e-06
0.000409967
9.77142e-06
0.000390393
1.95898e-05
2.74105e-05
0.000363
0.000344719
-0.000135495
0.00079015
-0.000216919
0.000978991
-0.000178624
0.000617026
-0.000150336
0.000718452
-6.35777e-05
0.000577944
3.43856e-06
0.000482346
9.43179e-05
0.00035465
0.000137475
0.000236228
0.000138032
0.000116459
0.000147182
0.000329291
-0.000366413
0.000684381
-0.000571944
0.000563067
-5.73783e-05
0.000419648
-6.92189e-06
0.00034103
1.49952e-05
0.000224356
0.000120093
0.000123794
0.000194843
3.2409e-05
0.000228818
-3.62409e-05
0.000206738
0.000157088
-7.68318e-05
9.93589e-05
-0.00038596
-0.000110886
-0.000361585
-0.000504499
0.00033617
-0.000589922
7.85126e-05
-0.000721644
0.000146736
-0.000713164
0.000111589
-0.00065296
0.000134627
-0.000566422
0.000142284
-0.000484889
0.000125226
9.4756e-05
-0.000422558
-0.000952674
0.00030386
-0.00174768
0.000433488
-0.00108464
-0.000326842
-0.00100462
-1.39316e-06
-0.000855563
-2.26744e-06
-0.000795381
5.14255e-05
-0.000719745
5.90066e-05
-0.000638349
6.09007e-05
-0.000553755
4.06413e-05
1.24933e-05
-0.000471487
1.44533e-05
0.000357505
-0.000141546
0.000589501
-0.00047737
9.46832e-06
-0.000519722
4.33749e-05
-0.000639163
0.000117555
-0.000617697
3.00138e-05
-0.000573286
1.46101e-05
-0.000494199
-1.81624e-05
-0.000397962
-5.55712e-05
-8.30154e-05
-0.000302428
0.00033661
0.000106796
0.000819362
0.000106897
0.000821841
6.53964e-06
0.000604963
0.000257896
0.000581397
0.000140585
0.000515504
9.58743e-05
0.000464613
6.55102e-05
0.000421916
2.45553e-05
0.000379343
-1.29758e-05
-4.48694e-05
0.000341217
0.000238719
-6.91136e-06
0.000604489
-0.000258764
0.000773742
-0.000162866
0.000764941
0.00026668
0.000927787
-2.22895e-05
0.000842524
0.000181133
0.000858837
4.92015e-05
0.000805362
7.80385e-05
0.000776986
1.54075e-05
2.18745e-05
0.000710249
9.48843e-05
4.62119e-05
-0.000138155
-2.581e-05
-4.3862e-05
-0.000257372
0.000476208
-0.000253312
0.000331848
0.000122047
0.000413949
9.90517e-05
0.000434693
2.84631e-05
0.000291326
0.000221408
0.000293521
1.32177e-05
9.03573e-05
0.000225042
0.000193647
0.000167847
-8.96588e-05
-0.000342935
-0.000220928
-0.00012185
-9.33875e-05
0.000128032
0.000141255
0.000231621
0.000324759
3.82737e-05
0.000298733
2.60494e-05
0.000271701
2.70451e-05
0.000239885
3.18258e-05
0.000208287
3.16039e-05
0.00018264
2.56388e-05
0.000165106
1.75215e-05
0.000154782
1.03177e-05
0.000149748
5.02999e-06
5.45198e-06
-1.5864e-05
0.000201365
-9.41648e-05
0.000104374
-0.000115653
4.85149e-05
-0.000104887
2.10576e-05
-7.67528e-05
3.4664e-06
-4.33843e-05
-7.72977e-06
-1.33719e-05
-1.24866e-05
9.49593e-06
-1.25491e-05
2.63381e-05
-1.18216e-05
-1.30221e-06
-0.000149647
0.000274193
-0.000177914
0.000132623
-0.000162981
3.3575e-05
-0.000120438
-2.14798e-05
-7.1808e-05
-4.51558e-05
-2.91888e-05
-5.03364e-05
2.36949e-06
-4.403e-05
2.27121e-05
-3.28752e-05
2.94745e-05
-1.85804e-05
6.16537e-07
-0.000346234
0.000197865
-0.000264021
5.04131e-05
-0.000171782
-5.86582e-05
-9.3741e-05
-9.95231e-05
-3.43874e-05
-0.000104512
8.62697e-06
-9.33456e-05
3.64947e-05
-7.18946e-05
5.0781e-05
-4.71524e-05
5.31008e-05
-2.08683e-05
4.44518e-06
-0.000299284
2.56749e-05
-0.000146438
-0.00010242
-4.2355e-05
-0.000162742
2.06735e-05
-0.000162552
5.86022e-05
-0.000142443
8.00197e-05
-0.000114761
9.25232e-05
-8.43969e-05
9.77373e-05
-5.23814e-05
9.60182e-05
-1.91519e-05
1.01741e-05
-7.44177e-05
-0.000202309
5.62211e-05
-0.000233046
0.000105592
-0.000212105
0.000131932
-0.00018888
0.000142736
-0.000153241
0.000143814
-0.000115829
0.000141127
-8.16978e-05
0.000136356
-4.76028e-05
0.000128447
-1.12451e-05
1.71412e-05
0.000341948
-0.000203009
0.000311264
-0.000202351
0.000288064
-0.000188896
0.000257902
-0.000158711
0.00022749
-0.000122826
0.000200169
-8.84864e-05
0.000179736
-6.12469e-05
0.000164815
-3.26718e-05
0.000148959
4.62139e-06
2.45089e-05
0.000615484
-0.000108234
0.000488606
-7.54615e-05
0.000401268
-0.000101547
0.000313067
-7.0496e-05
0.000240227
-4.99647e-05
0.000184635
-3.28777e-05
0.000156319
-3.29258e-05
0.000144296
-2.06456e-05
0.00012404
2.48818e-05
2.94002e-05
0.000198042
-8.12272e-05
0.000103782
1.88171e-05
4.02321e-05
-3.80103e-05
-1.30954e-05
-1.71705e-05
-4.12541e-05
-2.18175e-05
-3.75196e-05
-3.66562e-05
-1.83548e-05
-5.215e-05
2.73449e-06
-4.17376e-05
1.65476e-05
1.11039e-05
2.49797e-05
0.000150407
0.000169239
0.000131243
0.000114087
9.22856e-05
5.5636e-05
3.45708e-06
-3.82638e-05
-2.71397e-05
)
;

boundaryField
{
    inlet
    {
        type            calculated;
        value           nonuniform List<scalar> 10(-0.000139133 -0.000116902 -9.89463e-05 -7.99215e-05 0.000262595 -6.8879e-05 -8.67197e-05 -0.000126158 -0.000149093 -0.000148561);
    }
    sym
    {
        type            calculated;
        value           uniform 0;
    }
    wedge
    {
        type            calculated;
        value           nonuniform List<scalar> 10(1.20119e-20 0 1.20105e-20 0 1.20115e-20 1.20121e-20 0 1.20111e-20 -1.20106e-20 1.20094e-20);
    }
    top
    {
        type            calculated;
        value           uniform 0;
    }
    back
    {
        type            empty;
    }
    front
    {
        type            empty;
    }
    outlet
    {
        type            calculated;
        value           nonuniform List<scalar> 10(0.00014429 3.3075e-05 2.75392e-05 4.92801e-05 9.03041e-05 0.000121483 0.000141601 0.00011916 2.10074e-05 -2.1274e-06);
    }
}


// ************************************************************************* //
