/*--------------------------------*- C++ -*----------------------------------*\
| =========                 |                                                 |
| \\      /  F ield         | OpenFOAM: The Open Source CFD Toolbox           |
|  \\    /   O peration     | Version:  2412                                  |
|   \\  /    A nd           | Website:  www.openfoam.com                      |
|    \\/     M anipulation  |                                                 |
\*---------------------------------------------------------------------------*/
FoamFile
{
    version     2.0;
    format      ascii;
    arch        "LSB;label=32;scalar=64";
    class       volVectorField;
    location    "7";
    object      U;
}
// * * * * * * * * * * * * * * * * * * * * * * * * * * * * * * * * * * * * * //

dimensions      [0 1 -1 0 0 0 0];

internalField   nonuniform List<vector> 
200
(
(-22.884 0.46869 0)
(16.6934 2.3655 0)
(-12.1669 -0.752892 0)
(7.58927 -3.80256 0)
(-3.29357 -0.496499 0)
(3.10448 -1.30759 0)
(0.0299121 -0.600689 0)
(1.1936 -0.482172 0)
(0.976901 -0.382622 0)
(0.846349 -0.287479 0)
(-16.7805 0.237576 0)
(11.1717 0.468617 0)
(-1.13345 0.795006 0)
(2.65353 -0.74629 0)
(1.33332 0.652483 0)
(1.48179 0.0629872 0)
(1.28603 0.53195 0)
(0.982772 0.562814 0)
(0.667888 0.568341 0)
(0.423398 0.558383 0)
(-16.4967 -1.11343 0)
(11.0511 -3.6906 0)
(-2.18554 -2.95248 0)
(2.64543 -1.36128 0)
(0.337241 -1.11263 0)
(0.750526 -0.0290515 0)
(0.421282 0.77133 0)
(0.173171 1.19602 0)
(-0.0237417 1.17595 0)
(-0.134706 0.907673 0)
(-17.0044 -2.18773 0)
(11.1985 -3.5532 0)
(-7.16709 2.61442 0)
(2.48941 1.07958 0)
(-3.4687 1.22197 0)
(-0.980403 1.0631 0)
(-1.77498 1.13668 0)
(-1.36228 1.13818 0)
(-1.20618 0.980898 0)
(-1.0382 0.747997 0)
(-12.3089 -0.153192 0)
(2.03501 0.182868 0)
(-5.61781 0.0610743 0)
(-1.13239 0.386908 0)
(-2.56428 0.355797 0)
(-1.74991 0.577526 0)
(-1.78236 0.674978 0)
(-1.55086 0.724608 0)
(-1.36644 0.624225 0)
(-1.15435 0.4562 0)
(-19.0153 1.99694 0)
(12.5139 3.89612 0)
(-8.16132 -2.51813 0)
(3.25381 -0.715473 0)
(-3.76061 -0.305922 0)
(-0.428747 -0.17628 0)
(-1.78003 -0.1203 0)
(-1.15738 -0.152661 0)
(-1.03339 -0.251444 0)
(-0.764418 -0.359554 0)
(-17.447 0.988211 0)
(11.5514 3.39976 0)
(-1.31116 2.34066 0)
(2.51268 1.55156 0)
(1.20264 1.30972 0)
(1.24509 0.656847 0)
(1.15154 0.337452 0)
(1.04199 0.00620063 0)
(0.920157 -0.303499 0)
(0.810276 -0.525797 0)
(-19.0753 -0.324668 0)
(12.8857 -1.51608 0)
(-3.24654 -1.97271 0)
(3.83537 1.32961 0)
(1.52905 0.193971 0)
(1.88694 0.633147 0)
(1.99588 0.352834 0)
(1.94066 0.29388 0)
(1.82267 0.167222 0)
(1.71368 0.0606269 0)
(-23.4809 0.25115 0)
(17.6078 -1.16468 0)
(-12.9941 -0.222251 0)
(8.65923 0.731839 0)
(-2.8477 -0.249933 0)
(2.80202 1.01888 0)
(0.259931 0.279019 0)
(1.06834 0.683629 0)
(0.571611 -0.0323695 0)
(0.626082 0.228253 0)
(-21.8613 0.080511 0)
(15.985 0.738422 0)
(-9.31744 -1.73683 0)
(5.67257 -2.70481 0)
(-5.30271 1.19346 0)
(3.17784 0.398175 0)
(-3.02137 0.100575 0)
(2.07298 1.58458 0)
(-0.987633 0.248066 0)
(1.23455 0.675603 0)
(0.752502 -0.124119 -2.90829e-21)
(0.742781 0.009626 0)
(0.710797 0.127468 0)
(0.658994 0.202614 0)
(0.594095 0.236139 1.13041e-17)
(0.531129 0.240549 0)
(0.485412 0.232007 0)
(0.461978 0.220483 0)
(0.458167 0.209517 0)
(0.465258 0.197515 -6.80219e-18)
(0.123497 0.593902 -4.99897e-18)
(-0.205989 0.286796 5.17924e-18)
(-0.272811 0.143375 0)
(-0.293456 0.0757122 0)
(-0.24065 0.0447409 2.53694e-22)
(-0.164358 0.0193623 0)
(-0.0807305 0.00329339 0)
(0.00091619 -0.00607563 0)
(0.053375 -0.0104107 0)
(0.106498 0.0246797 0)
(-0.280424 0.623436 0)
(-0.43882 0.193978 -5.13044e-18)
(-0.433972 -0.0268408 0)
(-0.368933 -0.123399 0)
(-0.248884 -0.159987 -1.13367e-17)
(-0.131556 -0.143529 5.87498e-18)
(-0.0327171 -0.10606 0)
(0.0460664 -0.0564957 6.32247e-18)
(0.0893104 -0.0205498 0)
(0.0885016 0.0227657 6.83171e-18)
(-0.908316 0.539678 0)
(-0.769136 0.20174 0)
(-0.543273 -0.0577216 0)
(-0.322358 -0.197054 0)
(-0.159334 -0.227599 5.66545e-18)
(-0.0273742 -0.204052 -5.87331e-18)
(0.0729394 -0.144885 0)
(0.132747 -0.0821749 -1.2617e-17)
(0.165179 -0.0161759 0)
(0.158267 0.0449007 -6.81811e-18)
(-0.949394 0.277563 2.46043e-18)
(-0.50188 -0.160691 2.55842e-18)
(-0.198867 -0.42229 0)
(-0.00827188 -0.423814 2.73779e-18)
(0.114967 -0.361524 2.82818e-18)
(0.19229 -0.280487 0)
(0.245102 -0.189817 0)
(0.280208 -0.0962765 6.28676e-18)
(0.297015 -0.00579683 0)
(0.290231 0.0762859 0)
(-0.491285 -0.424944 -2.49036e-18)
(0.0988801 -0.549519 -2.57065e-18)
(0.192752 -0.539332 0)
(0.314002 -0.474669 -2.71988e-18)
(0.364078 -0.381609 -2.81048e-18)
(0.389338 -0.280177 0)
(0.399854 -0.179564 0)
(0.404955 -0.0768137 0)
(0.401568 0.0258272 0)
(0.390563 0.108473 0)
(0.79274 -0.66682 2.46792e-18)
(0.794214 -0.639959 0)
(0.737601 -0.566787 0)
(0.690635 -0.468595 0)
(0.63309 -0.360053 2.79673e-18)
(0.57584 -0.257055 0)
(0.527136 -0.169142 0)
(0.499014 -0.0759825 0)
(0.476349 0.0338883 0)
(0.455637 0.108962 3.39138e-18)
(1.46753 -0.161928 -1.20512e-18)
(1.33708 -0.219491 1.25091e-18)
(1.08413 -0.274216 0)
(0.904663 -0.248391 1.34782e-18)
(0.723721 -0.193702 -1.40285e-18)
(0.575452 -0.11459 1.4579e-18)
(0.461367 -0.0677835 1.51661e-18)
(0.429598 -0.00622988 0)
(0.410669 0.0864903 1.63748e-18)
(0.384108 0.119348 -1.70171e-18)
(0.416609 -0.397051 -1.87252e-18)
(0.437067 -0.116391 -1.93967e-18)
(0.126261 -0.263877 0)
(0.0565608 -0.118499 -2.08726e-18)
(-0.118429 -0.0730061 -7.17892e-19)
(-0.116945 -0.0611429 -2.22364e-18)
(-0.0772042 -0.106494 -1.53364e-18)
(-0.0355615 -0.0932811 0)
(0.0474869 0.0868039 -1.64767e-18)
(0.0670594 0.0903952 -2.56704e-18)
(-0.263196 0.0114903 6.26615e-19)
(0.758871 0.24936 6.48907e-19)
(0.22033 0.0810283 0)
(0.363466 0.0441769 6.91115e-19)
(0.268944 -0.0352868 -7.14434e-19)
(0.211099 -0.130151 7.395e-19)
(0.111322 -0.180861 0)
(-0.0932988 -0.138131 0)
(-0.147613 -0.0204029 0)
(-0.00734227 0.0563893 8.55024e-19)
)
;

boundaryField
{
    inlet
    {
        type            fixedValue;
        value           uniform (3 0 0);
    }
    sym
    {
        type            slip;
    }
    wedge
    {
        type            slip;
    }
    top
    {
        type            slip;
    }
    back
    {
        type            empty;
    }
    front
    {
        type            empty;
    }
    outlet
    {
        type            inletOutlet;
        inletValue      uniform (3 0 0);
        value           nonuniform List<vector> 10((0.465258 0.197515 -6.80219e-18) (0.106498 0.0246797 0) (0.0885016 0.0227657 6.83171e-18) (0.158267 0.0449007 -6.81811e-18) (0.290231 0.0762859 0) (0.390563 0.108473 0) (0.455637 0.108962 3.39138e-18) (0.384108 0.119348 -1.70171e-18) (0.0670594 0.0903952 -2.56704e-18) (3 0 0));
    }
}


// ************************************************************************* //
