/*--------------------------------*- C++ -*----------------------------------*\
| =========                 |                                                 |
| \\      /  F ield         | OpenFOAM: The Open Source CFD Toolbox           |
|  \\    /   O peration     | Version:  2412                                  |
|   \\  /    A nd           | Website:  www.openfoam.com                      |
|    \\/     M anipulation  |                                                 |
\*---------------------------------------------------------------------------*/
FoamFile
{
    version     2.0;
    format      ascii;
    arch        "LSB;label=32;scalar=64";
    class       volScalarField;
    location    "0.0045";
    object      ddt0(rho,K);
}
// * * * * * * * * * * * * * * * * * * * * * * * * * * * * * * * * * * * * * //

dimensions      [1 -1 -3 0 0 0 0];

internalField   nonuniform List<scalar> 
180000
(
1.70804e-06
1.15963e-07
1.69562e-05
-6.15838e-08
-1.54791e-05
-5.7392e-06
1.75299e-05
3.39436e-05
-3.05357e-05
1.99721e-05
2.00352e-05
1.87391e-05
3.84824e-05
7.1096e-06
5.23031e-06
-6.96601e-05
1.07219e-05
-3.25378e-05
-1.24407e-05
1.11616e-05
5.54435e-07
-6.30633e-05
-1.56088e-05
4.31891e-05
-9.1367e-06
-2.13887e-05
-3.15123e-05
-3.46504e-06
-5.14188e-05
-9.54968e-06
-3.36806e-05
1.81655e-05
-2.4248e-06
-5.32482e-05
9.53543e-07
-2.91574e-06
7.11865e-06
1.80786e-05
6.99628e-06
-1.20777e-05
4.82087e-05
1.15776e-05
9.027e-06
7.66047e-05
1.05197e-06
-4.05483e-05
-2.86926e-05
2.53164e-05
-1.25785e-05
-3.3034e-06
-1.08543e-05
1.51692e-05
-7.79813e-05
-1.28395e-05
-9.64887e-06
3.51897e-05
1.84981e-05
-1.95985e-05
-6.9583e-06
2.43433e-05
9.4177e-06
-4.32559e-06
2.6664e-05
4.86862e-05
-1.75454e-05
1.99928e-06
-3.70277e-05
-3.7272e-05
1.70049e-05
8.42237e-06
-4.27181e-05
2.24097e-05
-1.31358e-05
6.66548e-07
-1.08816e-05
-2.24158e-05
-3.09536e-05
-1.29674e-05
-3.35599e-05
-6.57213e-06
-2.25175e-05
-5.54802e-05
5.76926e-06
-2.75586e-05
-7.80478e-05
-5.90453e-06
-5.27421e-05
-6.71989e-05
-9.07522e-06
6.86028e-06
-3.31561e-05
-2.46659e-05
-8.8508e-06
-2.80884e-06
5.90276e-05
2.20856e-05
7.36172e-06
2.77595e-05
-2.33314e-06
-2.13502e-05
2.1427e-05
2.66416e-05
2.36385e-05
2.84211e-05
-2.27777e-05
-1.80972e-05
1.57961e-05
3.51481e-05
6.41233e-05
2.17502e-05
-3.34988e-05
-1.2706e-05
-1.34666e-05
2.41234e-05
2.46247e-05
-8.67416e-05
4.88866e-06
-1.40805e-05
1.05358e-05
-1.64272e-05
-3.7549e-05
-5.93988e-06
1.48354e-05
1.35472e-05
-3.33589e-05
-2.42003e-05
-4.15346e-07
-8.93705e-06
-1.13782e-05
-3.67884e-05
-4.02862e-05
-2.49157e-05
-2.6211e-05
6.75343e-06
1.66283e-05
-6.51677e-05
-3.23888e-05
3.41864e-05
1.81651e-05
-5.9418e-05
5.24138e-06
1.39209e-05
-2.99761e-05
4.71708e-06
2.2093e-05
-3.25225e-05
-1.79012e-05
4.85206e-05
2.45597e-05
7.46203e-05
-1.27219e-05
4.03442e-06
-2.4971e-05
-3.93274e-06
1.13973e-05
-5.3574e-06
-5.13135e-05
1.18052e-05
1.63712e-05
2.82453e-05
-3.79939e-05
3.29757e-07
5.26912e-05
-2.27601e-05
1.02418e-05
2.23347e-05
-9.7083e-06
-1.89603e-05
1.86752e-05
7.9128e-05
5.80286e-06
6.38939e-06
-1.96102e-05
3.99514e-06
-4.0829e-05
-1.69314e-05
-2.99374e-05
1.70638e-06
1.39367e-05
-1.13582e-05
-2.07854e-05
5.54552e-05
2.56636e-05
9.86087e-06
2.28227e-05
0.000113542
2.08612e-05
-2.95849e-05
5.31503e-05
-1.81352e-05
-7.10781e-06
6.21934e-05
1.09591e-05
-1.14433e-05
1.4966e-05
-2.17915e-05
-4.04398e-05
2.01837e-05
-4.31617e-05
6.1266e-06
5.05879e-06
-5.79159e-05
-1.1834e-05
7.18125e-06
-2.42095e-05
-4.70047e-05
-7.70167e-06
-1.38517e-05
-1.56324e-05
4.25279e-07
-2.55746e-05
-1.82105e-05
1.98439e-05
7.29596e-06
-3.21541e-06
1.0763e-05
8.88596e-06
3.74206e-05
5.08213e-06
-2.86383e-05
-4.54586e-06
2.3534e-05
-2.04312e-05
2.52915e-05
5.13185e-05
-4.13364e-05
2.65479e-05
2.58345e-05
6.13512e-05
4.71385e-05
1.60061e-05
2.49718e-05
-3.4285e-05
-3.35214e-05
8.68676e-06
7.15218e-05
5.83786e-05
-1.72288e-06
-2.12261e-05
1.71043e-05
-4.4372e-06
-8.30806e-06
-1.38549e-05
2.4253e-05
1.62065e-05
5.17378e-06
-2.03059e-06
-6.10452e-06
-1.96902e-05
1.2165e-05
5.98542e-05
-3.2997e-05
-5.35865e-05
-6.81368e-05
2.32313e-05
1.02055e-05
-4.53793e-05
-2.63335e-05
-4.30063e-05
-1.66384e-05
-6.47628e-05
-3.53449e-05
-0.000110988
-0.000210532
-0.000306408
-0.000509204
-0.000811753
-0.00134183
-0.00203071
-0.00332019
-0.00521466
-0.00846588
-0.0131856
-0.0212813
-0.0333916
-0.0540629
-0.0842589
-0.137484
-0.215896
-0.352677
-0.557089
-0.919887
-1.47173
-2.44126
-3.93167
-6.60973
-10.7037
-17.2972
-27.5471
-42.7245
-61.7971
-83.8269
-112.673
-119.418
-142.095
-100.195
-268.371
-151.259
-2022.39
-3060.16
-5.49082e-06
-1.675e-05
7.18103e-06
2.70219e-05
-2.74312e-06
-1.48733e-05
-2.15977e-06
1.56073e-05
-3.58118e-05
-2.14537e-06
-1.35377e-05
5.55394e-06
2.98832e-05
-1.09839e-05
-3.39313e-06
2.16941e-05
-1.72132e-06
2.66591e-05
4.23685e-05
3.86689e-06
1.69885e-05
9.29864e-06
-3.268e-05
-7.92549e-06
1.22362e-05
1.18732e-05
1.39094e-05
3.27389e-10
-3.25275e-05
3.4749e-05
-8.95034e-06
-1.4217e-05
-1.45345e-05
-1.25716e-05
-3.58652e-06
-4.83724e-05
-1.54721e-05
-4.83957e-05
-3.15601e-05
-4.40241e-05
1.81386e-05
1.72762e-05
-9.81087e-06
2.16894e-05
3.29861e-05
7.59102e-06
-9.11953e-06
3.41667e-05
-2.83927e-06
-3.06109e-06
-1.82953e-05
-1.99264e-05
-7.51507e-06
-1.66267e-05
2.55921e-05
-3.00791e-05
-1.66002e-05
-3.48389e-05
-1.6316e-05
1.21026e-05
2.62476e-05
4.72444e-05
-2.23799e-05
-1.35447e-06
-2.7958e-05
1.09627e-05
-2.18236e-05
-1.26584e-05
7.37074e-05
3.93886e-05
-1.72384e-05
4.4667e-06
8.89779e-06
-4.7893e-05
4.19672e-06
2.17297e-05
-6.94433e-06
2.02512e-05
-3.10774e-05
-1.37333e-05
4.37854e-05
3.34823e-05
-4.08559e-05
-2.30706e-05
1.5998e-06
-4.85076e-05
-4.75662e-05
5.17518e-05
-1.98125e-05
9.90588e-06
-1.40774e-05
-2.25492e-05
-1.43335e-05
1.62887e-05
-2.45141e-06
5.37685e-05
4.00358e-06
-1.97384e-05
2.34273e-05
-1.80331e-05
2.75963e-06
7.79924e-05
4.09795e-06
-2.69142e-05
3.77161e-05
-1.20901e-06
-7.42702e-06
-4.67779e-05
-4.27135e-05
3.27984e-06
1.73475e-05
4.49725e-05
8.91907e-07
-1.90157e-06
-1.77946e-05
3.08787e-05
7.43562e-06
-2.24348e-06
-2.16328e-06
5.49166e-05
5.47193e-05
1.316e-05
-1.98634e-06
2.58447e-05
2.05654e-05
-1.33789e-05
-4.40848e-05
2.56757e-05
-3.49292e-05
8.42194e-06
-1.99496e-05
-3.37679e-05
-1.22122e-05
3.60553e-05
-1.31406e-05
-6.49671e-07
7.1677e-06
-3.03963e-05
7.28916e-06
3.99656e-06
-7.38162e-05
-4.71487e-06
-4.44792e-05
-4.21899e-05
-4.15954e-05
-5.38974e-05
-3.39498e-05
-3.52078e-05
-2.08248e-05
-4.20537e-06
-1.84102e-05
-6.32698e-05
-4.06577e-06
2.49003e-05
-7.26334e-06
-1.46322e-05
8.91269e-07
2.47979e-05
1.36803e-05
1.41384e-05
4.59632e-05
-6.16426e-06
-7.15927e-06
1.71098e-05
-1.55757e-05
-2.47387e-05
4.73304e-05
5.84915e-05
-4.40175e-05
-3.28449e-05
2.88698e-05
7.76156e-05
3.70624e-05
3.01609e-05
7.82756e-05
1.66178e-05
1.63068e-05
5.29153e-05
-1.20864e-05
5.20815e-05
4.48066e-05
-1.77695e-05
9.16529e-06
1.00513e-06
1.55262e-05
2.56261e-05
-2.27489e-05
5.9886e-05
6.37954e-05
6.08656e-06
6.94661e-05
3.30951e-05
-6.28144e-06
1.12243e-05
6.01239e-05
-5.15782e-05
-2.39345e-05
6.63013e-05
1.21635e-05
-2.46884e-05
-5.86249e-05
1.27885e-05
4.57761e-05
-6.94213e-06
2.24997e-05
-5.6793e-05
-4.25424e-05
2.29975e-05
-2.42673e-05
1.22704e-05
-3.47174e-05
-6.02143e-05
-2.36036e-05
3.03544e-05
-6.7568e-05
-4.40398e-05
-1.1103e-05
-1.97751e-05
3.40018e-05
2.65949e-05
1.11333e-05
1.35939e-05
3.21011e-05
-2.2369e-05
2.25915e-06
-1.77648e-05
-5.04015e-05
2.47697e-05
-3.54978e-05
-2.4896e-05
-2.04542e-05
3.99114e-05
4.00352e-05
5.33274e-06
-4.58148e-05
2.99065e-05
-5.82829e-06
-6.0911e-05
-4.62849e-05
2.76758e-05
2.5909e-05
2.62884e-05
1.36827e-05
-4.51591e-05
-1.99648e-05
3.03921e-05
3.06827e-05
-2.7013e-05
2.70534e-05
5.55007e-05
4.12065e-05
-1.12118e-05
-1.49016e-05
2.80489e-05
-8.68102e-07
4.26824e-05
9.33857e-06
-2.23408e-06
-3.32525e-05
-1.36752e-05
-3.39176e-05
-3.44863e-05
-0.000106724
-0.000210767
-0.000349849
-0.000490812
-0.000759507
-0.00125312
-0.00192312
-0.00308872
-0.00483439
-0.00777109
-0.0120168
-0.0193707
-0.0302759
-0.0489324
-0.0759261
-0.122861
-0.19219
-0.312399
-0.48943
-0.800222
-1.27043
-2.09677
-3.33544
-5.53752
-9.00583
-14.5933
-23.0846
-36.7303
-55.1132
-76.0779
-106.366
-120.067
-124.451
-53.8797
-32.3928
506.582
-37.4177
169.509
1.53789e-05
1.02019e-06
3.17517e-05
2.41495e-05
-3.72391e-05
-1.8367e-05
1.92548e-05
-9.60969e-06
-1.80185e-05
1.2146e-05
1.68005e-05
-2.15109e-05
-1.17721e-05
-5.63554e-05
-2.68844e-05
-1.099e-05
-2.6756e-06
-3.32897e-05
-2.00397e-05
3.78202e-05
2.18479e-05
-3.02303e-06
-2.17952e-05
-7.88186e-06
9.10979e-06
2.07703e-05
-8.94184e-06
-5.96839e-06
-1.79574e-05
3.19768e-06
5.89746e-05
-2.77295e-05
-1.11396e-05
5.24129e-06
3.50334e-05
-3.8996e-05
1.89545e-05
-1.26873e-05
-4.60245e-05
-1.88194e-05
2.1397e-05
1.23575e-05
-2.61346e-05
-7.41131e-06
-1.82845e-05
-3.24882e-05
8.9122e-06
-2.19271e-05
-1.92486e-05
-3.3673e-05
3.93197e-06
-2.17543e-05
3.59117e-05
-7.14197e-07
-6.52245e-05
5.08159e-05
7.84952e-05
-1.4286e-05
-2.86407e-06
4.09903e-06
1.69046e-05
1.94468e-05
-2.66778e-05
-1.96988e-05
-1.53812e-05
2.94601e-05
3.73134e-05
3.01321e-06
6.52093e-06
9.19667e-06
-1.34714e-05
-4.95321e-06
1.87117e-05
-1.09076e-05
7.99413e-05
1.21114e-05
-1.09215e-06
5.09066e-05
-4.22295e-05
2.8631e-05
6.24377e-05
5.08981e-05
2.74715e-05
2.73622e-05
1.33627e-05
-4.54892e-06
3.96706e-05
4.28784e-05
-9.03493e-07
-8.111e-06
-2.92575e-06
7.96297e-05
3.26076e-05
-4.89584e-07
-8.41339e-06
-1.28773e-05
-6.1559e-05
-5.70835e-05
4.44093e-06
-5.93571e-06
-6.55703e-06
-6.93495e-05
1.45441e-05
-7.07619e-06
-4.32697e-07
5.39178e-05
4.10536e-05
2.19702e-05
4.50733e-05
-2.48375e-05
-2.52036e-06
3.07271e-05
3.75758e-05
1.44982e-05
5.31594e-05
2.83493e-05
-2.57537e-05
-4.00693e-05
1.65502e-05
-3.20145e-06
1.32644e-05
3.82815e-05
1.8834e-05
4.44e-06
2.73152e-05
3.18375e-05
-1.8612e-05
-4.36569e-05
-4.17485e-05
-1.36402e-05
1.8339e-05
1.82419e-05
-2.59284e-05
-2.03335e-05
4.4332e-05
-4.70295e-06
1.46253e-05
3.20179e-05
-4.10881e-06
-9.4883e-06
-4.71696e-05
9.61313e-06
-3.00385e-06
3.05579e-05
-5.90119e-06
-1.10564e-05
-1.47161e-05
-1.8769e-05
-2.05948e-05
-2.73698e-05
-1.64113e-06
3.34746e-06
-1.68786e-05
1.27853e-05
-3.63089e-06
-1.05312e-05
-2.31315e-05
-2.03787e-06
8.68574e-06
3.31339e-05
2.66272e-05
-3.42025e-05
-2.38744e-05
-3.53954e-05
4.20202e-05
-1.597e-05
-3.69237e-05
1.86986e-05
2.56221e-05
1.43907e-05
2.69242e-05
-4.95937e-06
2.63553e-05
4.64198e-05
2.55806e-05
3.38659e-05
5.17513e-05
-2.00197e-06
-6.21586e-06
3.86507e-05
-8.39279e-06
4.4026e-05
-1.80711e-05
1.61257e-05
6.18367e-05
2.97471e-05
-4.19246e-05
-3.06107e-05
-5.08978e-06
-6.63622e-06
-7.63161e-06
-4.21728e-05
1.37045e-05
2.90985e-05
1.55532e-05
9.8597e-06
2.28718e-05
1.90706e-05
-4.12487e-05
5.65875e-06
4.80521e-05
3.66175e-05
-1.1527e-05
-3.67336e-05
4.17664e-05
4.02566e-05
-1.80505e-05
5.52896e-05
1.32177e-05
-1.69911e-06
-1.43452e-05
-2.98843e-05
-4.74462e-05
-2.39012e-05
-2.8577e-05
-9.75725e-07
-4.33518e-05
-8.29012e-06
2.62162e-06
-4.6011e-06
-2.4432e-05
-2.75194e-05
-1.33542e-05
-1.44961e-05
-4.32739e-06
3.56995e-05
4.07127e-05
5.51905e-05
4.62963e-05
2.8311e-05
-4.92834e-06
3.21017e-05
2.94871e-05
3.05322e-05
-1.71583e-05
4.52416e-06
2.10467e-05
-2.51381e-06
1.63912e-05
-7.16018e-06
-3.75675e-05
5.39223e-06
-7.38656e-06
3.77794e-05
1.40711e-05
3.0409e-05
5.98506e-05
7.87617e-05
3.38382e-05
5.49395e-05
5.42862e-05
3.66095e-05
2.65597e-05
-3.25687e-05
-4.97162e-05
4.66508e-06
-2.90411e-05
-2.98369e-05
-7.25377e-05
-3.52177e-05
-1.67085e-05
-9.96525e-05
-0.000122517
-0.000191262
-0.000276887
-0.000419823
-0.000676653
-0.00111004
-0.00162168
-0.00259907
-0.00409487
-0.0066193
-0.0102492
-0.0164171
-0.0254171
-0.0408155
-0.0630307
-0.101119
-0.15698
-0.25374
-0.394033
-0.635772
-0.999858
-1.64446
-2.58009
-4.22371
-6.88894
-11.2211
-17.6048
-28.7024
-44.5527
-62.9643
-91.5608
-110.02
-104.857
-24.1236
72.8581
831.861
758.383
1715.27
4.62264e-06
1.16638e-05
9.69589e-06
1.12689e-05
3.06126e-06
2.12463e-05
4.03101e-05
-2.87846e-05
2.00524e-05
3.38972e-05
3.53921e-05
2.60874e-05
9.17332e-06
2.74986e-05
-1.13204e-06
-1.55192e-05
5.74757e-06
1.70161e-05
6.56959e-05
-1.34136e-05
-3.58038e-05
-1.58835e-05
-4.46777e-05
-2.44625e-05
-1.27804e-05
2.0375e-05
-1.52846e-05
-5.63916e-06
-3.02662e-05
-3.03015e-06
3.83193e-05
4.05815e-05
-1.84529e-05
1.67342e-05
1.26618e-05
5.25564e-06
5.96032e-06
-2.96383e-05
-3.00435e-05
1.11924e-05
6.12708e-05
5.48757e-05
-5.37584e-05
6.07587e-06
1.89457e-05
-2.41739e-05
3.32293e-05
-2.72628e-05
-3.33793e-05
2.21914e-05
1.19534e-05
-4.17985e-05
3.5478e-05
3.27609e-05
-1.24434e-05
1.38223e-05
8.57022e-06
3.76761e-05
2.17681e-05
-3.13378e-05
-3.53539e-05
7.50077e-06
-7.75791e-06
1.0216e-07
5.21089e-06
3.27418e-05
6.49816e-05
2.88132e-05
3.73205e-05
-5.90138e-05
-2.71387e-06
3.06778e-05
2.96083e-05
-4.45094e-05
1.83831e-05
-5.07503e-05
-3.44827e-05
1.09181e-05
4.36272e-05
-1.1069e-05
-5.10618e-06
9.41784e-07
3.26142e-05
1.61478e-05
-1.95048e-05
7.83592e-05
4.42932e-05
-3.14306e-05
4.68309e-06
-2.25194e-05
5.95435e-06
1.28311e-05
-2.84142e-05
2.04128e-05
1.24574e-05
9.72747e-06
-5.61952e-06
1.14246e-05
2.4511e-05
6.23328e-05
-1.52175e-06
-8.02974e-06
1.08796e-05
4.13993e-09
8.35257e-06
9.25847e-06
4.33477e-05
3.34854e-05
2.00634e-05
1.04134e-05
1.58252e-05
-1.88626e-05
-2.50707e-05
-1.81384e-06
-2.04384e-07
1.34622e-05
-1.25146e-05
-1.19983e-05
2.97282e-05
2.77604e-06
-8.64412e-07
-9.99412e-06
4.72757e-06
3.72385e-05
-5.26863e-07
8.27231e-05
3.43205e-05
-2.42758e-05
1.34445e-05
3.71684e-05
-1.78847e-05
1.17096e-05
-2.26744e-05
3.61102e-05
2.39412e-05
9.14599e-06
6.72092e-06
9.56838e-06
4.84353e-06
-3.39066e-06
-1.32821e-06
2.11807e-05
-1.05299e-05
-4.07331e-05
-1.96544e-06
-4.58967e-05
-3.05504e-05
-6.32897e-07
-4.53461e-05
-1.549e-05
1.9856e-06
1.22899e-06
-3.45952e-05
-1.11952e-07
3.7623e-05
-3.6298e-05
-1.18266e-05
5.08494e-07
-4.93787e-05
-4.16784e-05
2.74259e-05
-2.12166e-05
-2.59406e-05
-3.63957e-05
-2.80474e-06
-1.37485e-05
9.54218e-06
5.20748e-05
3.58783e-06
-1.02335e-05
1.4217e-05
2.98273e-05
2.38699e-06
2.99366e-05
5.87069e-05
-1.52337e-05
2.06637e-05
3.83281e-05
6.25404e-06
-1.60146e-05
3.0545e-05
1.18717e-05
1.54121e-05
1.13337e-05
1.42655e-05
-4.21703e-06
-3.73907e-05
7.51863e-06
-1.49544e-05
-1.52696e-05
5.18512e-05
1.11325e-05
-2.85374e-05
1.13815e-05
3.14058e-05
-1.00154e-05
-1.45213e-05
-3.91219e-06
1.08032e-05
-1.16965e-05
-3.10913e-06
-1.83608e-05
-5.87937e-05
-4.35186e-06
3.18177e-05
-2.71166e-05
-2.31626e-05
2.20299e-05
2.96457e-05
-1.23221e-05
1.71475e-05
3.37352e-05
2.86413e-05
6.67934e-05
-2.60775e-05
-9.43142e-06
3.62222e-05
-1.97951e-05
1.44538e-05
-8.17821e-06
-3.48011e-05
-2.68349e-05
1.51689e-05
3.48593e-05
-1.07846e-05
-4.22199e-05
-3.06804e-05
-4.85003e-05
1.22955e-05
1.66005e-05
-4.51369e-05
-4.04837e-05
2.16938e-05
2.14832e-05
-1.82571e-05
5.9717e-05
1.51772e-05
-8.22912e-06
3.03503e-05
3.14087e-05
3.66141e-05
-7.00149e-06
7.47485e-05
1.44075e-05
2.53022e-05
6.70282e-06
6.2513e-06
2.88172e-05
4.35232e-05
-5.55943e-06
5.89874e-06
-3.10376e-06
5.75621e-05
1.17355e-05
9.62048e-07
-5.53665e-05
-7.67946e-05
-3.91325e-05
-6.70197e-05
-2.72193e-06
-4.17567e-05
-6.99379e-05
-0.00013484
-0.000152072
-0.000231985
-0.000407204
-0.000584041
-0.00083994
-0.00137486
-0.00217603
-0.00336475
-0.00531711
-0.0082565
-0.0131659
-0.0201623
-0.0322733
-0.0497642
-0.0789882
-0.121437
-0.195241
-0.300888
-0.479692
-0.745009
-1.22219
-1.8985
-3.0579
-4.9849
-8.21555
-12.809
-21.2579
-34.3252
-50.0319
-75.4351
-98.1184
-96.083
-24.735
83.7803
878.739
1153.71
2385.76
-1.75916e-05
-8.2223e-06
3.50918e-05
-5.26098e-06
2.06732e-05
-2.71798e-05
-7.04041e-06
4.64774e-05
1.69503e-05
8.50148e-06
3.73715e-06
4.27798e-05
3.53116e-06
-3.03749e-05
-2.68478e-05
-2.79161e-05
-6.04819e-06
1.76781e-05
1.7868e-05
5.58033e-06
1.79778e-05
1.31179e-05
4.15614e-05
1.90447e-05
-1.38207e-05
-3.78905e-05
-1.76252e-06
5.97792e-05
3.78821e-05
-1.06904e-05
1.70531e-06
2.18768e-06
1.86132e-05
4.02084e-05
4.2912e-05
-1.44516e-05
-3.49322e-06
7.01189e-05
8.87507e-06
1.23269e-05
2.28029e-05
-2.09097e-05
3.7506e-06
5.02701e-06
-2.34557e-05
-4.31903e-06
-2.67731e-05
-4.96413e-05
-1.90564e-05
-1.91438e-05
4.02106e-05
2.02794e-06
1.05814e-05
-1.99438e-05
-2.82035e-05
-2.06919e-05
-4.60311e-05
-2.73932e-05
-4.26024e-05
2.52007e-05
5.24348e-05
1.2589e-05
-1.32827e-05
2.54335e-05
1.53816e-06
-4.54087e-06
-3.26041e-05
3.205e-05
1.13717e-05
-2.14741e-05
-1.50237e-05
-4.97979e-05
-1.38828e-05
5.76369e-06
7.68785e-06
-7.802e-06
2.0808e-05
-1.75114e-06
3.36338e-05
-7.74593e-06
3.93791e-05
-1.13611e-06
-1.41678e-06
3.53351e-05
1.78463e-05
1.3264e-05
-2.34868e-05
9.30465e-06
3.19759e-05
5.66781e-06
-8.76922e-07
-5.94815e-06
2.17641e-06
1.33285e-05
3.21441e-05
2.97368e-05
1.8087e-05
-4.96891e-06
4.26807e-05
2.19167e-05
-1.01326e-05
-1.03403e-05
-4.785e-05
-1.8882e-05
2.51398e-06
-1.62531e-05
-2.65557e-05
2.3872e-05
-8.23067e-06
-2.8154e-05
-2.58714e-05
-7.57345e-05
-4.8394e-05
-5.77671e-05
2.10659e-05
-2.20618e-05
-2.54667e-07
-7.06353e-05
-1.34128e-05
-9.49478e-06
-4.8893e-05
-5.95771e-05
-6.89225e-05
2.10474e-05
-1.02574e-05
-8.24354e-06
-3.80468e-05
-2.21363e-05
-2.77321e-05
-1.99741e-05
-6.22096e-06
-1.92644e-05
-1.48117e-06
4.00908e-05
1.21908e-06
-5.25494e-06
1.18318e-05
1.11186e-05
1.0969e-05
7.61882e-06
3.21801e-05
-8.07042e-06
1.46281e-05
5.25536e-05
2.72169e-05
5.80036e-06
-1.10182e-05
-2.49597e-05
4.2889e-05
3.16313e-06
-7.79123e-05
-1.20985e-05
2.39834e-05
1.87092e-05
4.25316e-05
2.18331e-05
5.0303e-05
2.50321e-05
-5.13668e-06
5.66485e-05
-3.60014e-05
1.15964e-05
6.55264e-06
1.21081e-05
4.92146e-05
-2.59593e-05
-4.55742e-07
-3.45984e-06
2.07583e-05
-8.09158e-06
-5.86485e-06
-1.77576e-05
2.44222e-05
-3.35141e-05
2.22293e-05
1.44075e-05
-2.41114e-05
-1.5696e-05
-4.30065e-05
3.59604e-05
2.47761e-05
-5.37958e-05
1.70363e-05
1.74811e-05
3.24752e-06
-3.35101e-05
1.10604e-05
2.21343e-05
7.35224e-05
-7.42468e-06
9.51716e-06
8.20587e-05
5.30657e-06
2.69963e-06
2.35402e-05
5.05123e-05
6.28316e-06
-4.91491e-06
-3.98361e-06
6.25965e-06
-2.4619e-06
2.12576e-06
-2.01487e-05
2.09386e-05
5.70005e-05
5.8857e-06
-4.64322e-05
-6.17e-05
-3.06231e-05
1.5024e-06
-1.33511e-05
3.45692e-06
3.04499e-06
1.93223e-05
-5.80801e-06
8.58957e-06
-1.32421e-05
-9.52004e-07
-2.45257e-05
-1.1949e-06
-1.6871e-05
1.07692e-05
-4.89245e-05
2.11923e-05
1.6614e-05
-3.40709e-05
2.24035e-05
4.55049e-05
4.14088e-05
3.88679e-05
2.88865e-05
3.01828e-05
-5.30687e-06
5.37133e-06
1.48684e-05
5.86758e-05
-3.01982e-06
7.23239e-06
3.21047e-05
-5.35692e-05
2.42687e-05
-1.26773e-05
-2.31832e-05
1.56743e-05
1.82527e-05
2.46382e-05
-4.40492e-06
-2.69638e-05
-4.24582e-06
1.54177e-06
-3.95442e-05
-4.77591e-05
-3.47713e-05
-3.05261e-05
-4.34492e-05
-2.64183e-05
1.69276e-05
-7.43949e-05
5.34748e-06
-3.74828e-05
-5.64116e-05
-5.8584e-05
-6.90367e-05
-0.000109271
-0.000173639
-0.00025254
-0.000492145
-0.000708142
-0.00106203
-0.00168718
-0.00258642
-0.00412745
-0.00635272
-0.010098
-0.0152982
-0.0243293
-0.0373803
-0.0589024
-0.0897129
-0.143302
-0.219504
-0.345925
-0.530358
-0.869022
-1.33977
-2.12364
-3.45664
-5.78823
-8.97516
-15.1301
-25.3678
-38.1897
-59.2618
-82.7319
-84.8579
-30.0887
55.2171
762.015
1158.59
2339
-9.017e-07
-1.2528e-05
3.58043e-05
1.32891e-05
-4.89929e-05
-1.86886e-05
9.96021e-06
-6.11711e-05
3.35418e-06
2.41298e-05
-9.96326e-06
7.81325e-08
-1.5546e-05
-1.55387e-05
-1.97328e-05
-3.72044e-05
4.3744e-05
3.81194e-05
1.02428e-05
-1.34745e-05
-2.3999e-05
1.24226e-05
1.16735e-05
3.29612e-05
-2.93667e-05
4.2497e-05
-7.95247e-06
-3.64249e-05
-6.60721e-06
-1.04598e-05
-1.17333e-05
-1.74326e-05
3.43283e-05
-9.76142e-06
-1.98623e-05
1.95409e-06
-2.77741e-05
-4.0361e-06
-1.63723e-05
-6.1771e-06
3.37935e-05
7.2395e-06
-1.41868e-05
-1.71571e-06
-2.0456e-05
3.41888e-05
3.51582e-05
1.58382e-05
1.59184e-05
-2.0139e-05
5.36383e-06
-8.57011e-06
-5.77397e-05
-3.5181e-05
4.33514e-06
2.0192e-05
8.37551e-06
9.3708e-05
6.27552e-05
2.01012e-05
-1.0991e-05
1.22756e-05
1.10152e-05
1.6632e-05
-4.40688e-05
-1.6058e-05
8.97089e-06
3.07767e-05
-1.42417e-05
-1.24001e-05
1.89739e-05
-2.41535e-06
1.18741e-05
6.1065e-06
1.01014e-06
-3.41658e-08
1.69473e-05
-6.17057e-06
-5.32308e-05
-3.13459e-05
4.68883e-06
-4.56349e-05
-6.05135e-05
-1.33962e-06
-2.68468e-05
-4.48766e-05
-2.57776e-05
-1.93473e-05
1.04717e-05
-1.9292e-06
-3.51833e-06
8.12489e-06
-6.51783e-05
-9.42075e-06
5.39993e-06
1.32778e-05
5.37682e-05
1.33348e-05
3.02683e-06
1.02898e-05
-1.5994e-05
1.50711e-05
-4.72205e-06
-1.62978e-05
5.42183e-05
3.57786e-05
-9.94649e-06
-1.44481e-05
-4.92131e-05
3.279e-05
1.26459e-05
-3.46943e-05
-1.92215e-05
-2.40792e-05
-1.73548e-05
-1.79573e-05
-6.27052e-05
-3.36467e-05
3.11599e-05
4.32247e-05
1.22581e-06
2.00036e-05
-4.2177e-05
-3.02752e-05
-8.58611e-06
1.41521e-05
1.30371e-05
1.8956e-05
-2.44173e-06
-5.92571e-06
4.54313e-05
-4.83113e-06
-9.75497e-06
1.87999e-05
2.22149e-05
-1.22697e-05
3.64716e-05
-4.90498e-06
1.03711e-06
1.58245e-05
4.82857e-05
3.17942e-05
-1.52856e-05
-1.93125e-06
4.08701e-05
4.20996e-05
3.03642e-05
7.82665e-06
1.01704e-05
-2.10928e-05
-3.78772e-06
3.03269e-06
2.64534e-06
-1.75739e-05
-7.02646e-07
4.45461e-05
-9.24463e-06
-1.38418e-05
-5.32249e-05
-2.7241e-05
3.22473e-05
2.62165e-05
2.75312e-05
1.19105e-05
-5.77377e-05
-2.74579e-05
1.452e-05
3.20217e-06
-6.76221e-06
-5.25106e-05
3.9002e-06
4.50295e-05
-1.81655e-05
-6.30996e-05
4.11834e-05
4.3943e-06
3.06483e-05
1.86505e-05
-8.63776e-06
4.95758e-06
2.09036e-05
-6.73959e-06
3.31413e-05
-5.95812e-05
-8.87445e-06
5.77599e-06
-1.60226e-06
-4.47907e-06
-4.22786e-06
2.91512e-05
-2.11086e-05
-2.48275e-05
-9.71073e-06
2.90291e-05
-3.03451e-05
-1.65164e-05
2.99279e-05
4.02364e-05
-3.05612e-05
-5.50319e-05
2.17424e-05
4.98127e-05
6.81019e-06
1.38362e-07
3.0634e-05
-1.9351e-05
1.01003e-05
3.09661e-05
-2.90276e-05
-2.92786e-05
-1.96367e-05
2.33547e-05
2.57661e-05
-1.59616e-06
-1.92453e-05
-3.67484e-05
-2.76701e-05
-3.1185e-05
8.14634e-07
2.01017e-05
-3.27652e-06
1.93575e-07
-1.90768e-05
-4.70985e-05
-9.96837e-06
6.44498e-06
-1.5153e-05
4.74619e-07
-8.93936e-06
-3.35465e-05
-1.31451e-05
-8.30649e-06
-1.69318e-05
3.59262e-05
4.55222e-05
-7.09083e-06
3.05448e-05
-2.15633e-05
-4.22062e-05
3.51146e-05
2.02249e-05
-1.59708e-06
-3.55271e-05
4.86568e-06
2.39276e-05
1.33249e-05
1.59731e-05
1.81816e-05
5.81828e-05
3.15999e-05
-1.05858e-05
8.48153e-06
4.41034e-05
-4.66513e-06
8.36229e-06
-5.43287e-05
-2.22566e-05
4.02295e-05
1.22315e-05
-7.53543e-05
-2.34527e-05
-2.98638e-05
-5.08303e-05
-5.06004e-05
-0.00011087
-0.000193514
-0.000294921
-0.000519531
-0.000792832
-0.00128695
-0.00193492
-0.0031064
-0.00474296
-0.00753764
-0.0114222
-0.0181082
-0.0275143
-0.0431925
-0.0652562
-0.103993
-0.158437
-0.247516
-0.374898
-0.614492
-0.941629
-1.47139
-2.38865
-4.06723
-6.2807
-10.7272
-18.6253
-28.8865
-46.0201
-67.9423
-73.5925
-34.435
24.6126
607.835
1000.2
1970.24
-2.6061e-06
2.03904e-05
-3.88596e-05
1.31756e-05
-4.65276e-05
1.06486e-05
-1.39973e-05
-7.63303e-06
2.96066e-05
-7.76415e-05
-7.37397e-06
2.30342e-05
-3.27924e-05
-3.55051e-05
-2.23454e-06
-3.63588e-06
1.33485e-05
2.15648e-05
4.85462e-05
3.3346e-05
4.49586e-05
7.17424e-05
-6.89661e-06
1.06139e-05
-1.84229e-05
9.67949e-06
2.04505e-05
2.4294e-05
-1.81557e-05
1.00373e-05
-1.68195e-05
8.03997e-06
3.28011e-05
-1.80082e-06
-7.25476e-05
-6.60083e-06
-4.63782e-05
1.53898e-06
1.70598e-05
-3.37026e-05
-9.43802e-05
-4.40352e-05
2.12905e-05
-2.11632e-06
-7.55298e-05
-1.40862e-05
-3.59157e-05
-1.26474e-05
3.07932e-05
-6.78774e-06
1.07124e-05
-1.16528e-05
-3.59572e-05
4.41195e-05
-3.21867e-06
1.21334e-05
2.06376e-05
-1.41345e-05
1.67944e-05
1.64394e-05
4.76433e-05
-1.31519e-06
-2.71159e-05
6.35022e-06
2.03741e-05
-1.70675e-05
-1.46235e-05
2.12449e-05
5.89315e-06
2.12223e-05
3.09216e-05
-1.36381e-05
7.31905e-06
2.3824e-05
2.40044e-05
-2.32154e-05
3.99114e-05
4.15391e-05
-7.88369e-06
-2.667e-05
6.24019e-06
-3.47501e-05
-1.99045e-05
-1.07642e-05
2.21732e-05
-3.27875e-05
-4.33138e-07
5.95503e-07
-6.48287e-05
-1.02671e-05
6.57076e-05
2.40811e-05
2.02488e-05
2.10823e-05
2.336e-05
-1.82804e-05
-5.50284e-07
3.37097e-05
-1.13676e-05
-1.14075e-05
2.086e-05
2.63966e-05
3.19935e-05
-1.2988e-05
-4.80679e-06
-3.73119e-06
-4.66859e-05
3.24445e-05
6.61707e-05
3.29917e-05
-1.82449e-05
-3.74442e-05
3.15981e-05
-3.67603e-06
-7.41301e-06
1.50558e-05
7.35774e-06
1.87664e-05
-2.88339e-05
1.38928e-05
3.39867e-05
-1.02734e-05
-2.6306e-05
1.37318e-05
-6.57098e-05
-8.70964e-06
3.30084e-05
1.82138e-05
-1.92912e-05
1.62927e-05
1.25676e-05
3.58738e-05
2.0889e-05
4.47561e-05
1.78801e-05
1.02213e-05
4.23349e-05
2.33946e-05
-7.41513e-06
-2.78516e-05
1.38321e-05
1.92757e-05
4.59287e-05
8.79762e-06
-1.65021e-05
9.51146e-06
1.48791e-06
-2.63358e-06
-1.48595e-05
8.30718e-06
4.7163e-05
-1.10433e-05
-5.08368e-05
-5.10151e-06
3.21358e-05
-7.34237e-06
-1.5799e-05
-1.38946e-05
-3.29233e-05
-2.86219e-05
7.22545e-06
1.80618e-05
-3.40287e-05
-3.48234e-06
6.88767e-06
-2.79046e-05
8.26503e-06
-4.30784e-06
7.3384e-06
-2.41488e-05
6.55564e-05
4.02338e-05
-2.40503e-07
7.84659e-06
2.73789e-05
1.00981e-05
-4.14003e-05
4.66435e-07
-7.37014e-07
-3.76517e-05
-6.9743e-05
1.03995e-05
3.96491e-05
3.51081e-05
-4.56807e-06
-1.23161e-05
-2.26541e-05
2.04432e-05
2.97915e-05
-1.63752e-05
-1.20317e-05
4.38374e-05
3.42643e-05
-1.07022e-05
-1.63497e-05
-2.32765e-05
7.76966e-06
1.97355e-05
4.27245e-06
1.34575e-06
4.43884e-05
5.44241e-05
6.17271e-06
-2.44227e-05
1.92464e-05
2.05956e-05
-4.72063e-06
4.47459e-05
-5.22112e-06
1.33996e-05
-1.28404e-05
-1.39433e-05
2.01237e-06
7.09359e-05
1.97814e-05
2.35299e-05
-2.03235e-06
1.14987e-05
1.71504e-05
-7.25917e-06
2.39797e-06
2.02031e-06
1.94937e-05
2.00881e-05
-3.46761e-05
-4.7849e-05
-3.61461e-05
-3.73656e-05
3.907e-06
-2.52166e-05
-1.04766e-06
1.16395e-05
3.17259e-05
4.60438e-06
-4.81898e-05
-4.55404e-05
-1.53295e-05
-2.38134e-05
-1.09751e-06
4.13349e-05
-1.36696e-05
4.07415e-05
-2.01921e-05
5.07787e-06
-4.88973e-07
-6.89438e-07
-8.81167e-06
5.18349e-05
3.17571e-05
-7.65698e-06
4.19941e-05
-1.95787e-05
3.16688e-05
-6.76916e-06
-6.99211e-05
2.39465e-05
-2.61012e-05
-3.88574e-05
1.94035e-05
-6.09099e-05
-7.18323e-05
-1.44799e-05
-4.58323e-05
-0.000129111
-0.000124351
-0.000184639
-0.000269729
-0.000325975
-0.000552742
-0.000970146
-0.00140758
-0.00225233
-0.00347935
-0.0054613
-0.00815052
-0.0129832
-0.0197187
-0.0308183
-0.046235
-0.0733809
-0.111362
-0.17267
-0.258752
-0.42489
-0.648459
-0.999272
-1.61992
-2.81047
-4.32335
-7.48123
-13.4102
-21.3608
-34.6796
-53.4345
-59.5036
-30.5381
9.20104
475.39
816.934
1563.09
-1.73141e-06
1.60796e-05
-7.61653e-06
3.24871e-05
5.8619e-05
-1.22153e-05
-5.27406e-05
-1.31772e-06
-2.33578e-05
-4.97197e-06
2.80888e-05
5.03592e-06
1.05081e-05
-1.04626e-05
-2.62464e-05
2.15035e-05
-1.50629e-05
-1.82572e-05
-1.75456e-05
-3.25688e-06
5.8004e-06
-1.11188e-05
-3.6069e-05
4.80546e-05
1.05599e-05
-2.09736e-05
-9.91746e-06
4.24279e-05
-1.28135e-05
-3.32156e-05
5.45698e-05
-6.45185e-06
-2.0955e-05
-6.31756e-07
-2.23469e-05
4.56976e-05
3.05863e-05
-2.17124e-05
4.04372e-05
-9.26612e-06
4.20098e-06
-2.99193e-05
-5.79898e-05
1.0108e-05
1.5829e-05
1.51031e-05
1.35241e-05
5.67353e-05
6.30538e-06
-2.63375e-05
-9.69812e-06
1.03863e-05
-7.31361e-06
9.65508e-07
-7.92395e-06
-1.75213e-06
-4.96451e-05
-1.1624e-05
-2.44865e-05
-3.89721e-05
2.4101e-06
-1.59445e-05
-1.10636e-05
4.36024e-05
-2.23928e-05
-1.15081e-05
6.0328e-06
3.21574e-06
-2.04513e-05
-1.31e-05
-7.41707e-05
2.80016e-05
-4.1737e-05
-2.27396e-05
-5.44113e-05
7.2189e-06
1.41889e-05
1.55149e-05
8.44615e-06
8.20998e-06
-2.6595e-05
2.16122e-06
-7.00751e-06
3.40367e-05
-3.30104e-05
-4.12931e-05
-1.62553e-06
2.14945e-05
5.70566e-06
2.38341e-05
-1.34401e-06
-2.86764e-05
-1.44946e-05
-9.54198e-06
-8.74706e-06
-3.53354e-06
3.60267e-05
5.64712e-05
4.1842e-05
4.92289e-05
4.23391e-05
5.87929e-06
-7.0494e-06
2.72207e-05
6.12804e-05
4.09996e-05
2.70732e-05
3.67938e-05
-6.07468e-05
1.57804e-05
3.46339e-05
-1.28985e-05
-4.16427e-05
1.84326e-05
1.14584e-05
-5.73442e-06
1.96767e-07
9.59475e-06
-2.46644e-05
-1.53393e-05
-2.04939e-05
-5.18586e-05
-3.36451e-05
3.04481e-05
2.05624e-05
-2.03931e-06
-6.74341e-07
-1.3622e-05
-4.95475e-07
-1.33319e-05
-3.17319e-06
6.65101e-07
-3.00252e-05
-2.43399e-05
5.14679e-06
4.88784e-06
-8.97252e-06
4.04977e-05
-6.39026e-06
-2.03686e-07
7.32782e-06
-4.314e-05
-3.87987e-05
-1.70951e-05
-6.64642e-05
-3.83651e-05
-5.0106e-06
-3.30364e-05
-2.85554e-05
-4.00034e-05
-2.61223e-05
-2.23576e-05
-2.77084e-05
-1.12476e-05
2.00151e-05
5.12494e-05
9.13796e-06
-3.97085e-06
-1.03761e-05
-3.58172e-05
4.98063e-06
-1.8671e-05
9.51262e-06
2.15191e-05
-8.78978e-06
-1.27755e-05
-4.11408e-05
2.48907e-05
1.96115e-05
-2.34838e-05
1.97458e-05
2.6066e-05
1.59004e-05
1.30831e-05
-1.46451e-05
-2.87507e-05
-2.58169e-05
-3.14217e-05
-2.82967e-05
-7.5377e-06
-2.67559e-05
2.67597e-05
2.25518e-05
-4.934e-05
-1.85507e-05
9.11999e-07
6.0451e-06
8.81978e-07
4.79259e-05
1.85866e-05
1.24481e-05
-1.1181e-05
-7.95939e-06
-4.65866e-06
2.45872e-05
3.58451e-05
1.06633e-05
4.00341e-05
2.75633e-05
-2.89777e-05
3.70169e-05
3.24661e-05
-1.42981e-05
-3.30404e-06
1.18959e-07
3.90858e-05
5.07498e-05
9.59683e-06
1.38573e-05
-2.26227e-05
1.17642e-05
3.40545e-05
-2.53108e-05
-2.91749e-06
5.04712e-06
-3.1443e-06
-2.77291e-05
1.13803e-05
-1.5598e-05
-2.69651e-05
2.36758e-05
-1.02738e-05
-8.93315e-06
7.98135e-05
-1.23791e-05
-2.73526e-05
-1.7975e-06
-3.21253e-06
3.57605e-06
-1.47522e-05
-4.54114e-05
9.09979e-06
3.14502e-05
1.6799e-05
3.63513e-05
-2.38336e-05
-4.47019e-05
9.27183e-07
3.88188e-06
-4.58279e-05
4.81533e-06
4.5867e-05
1.4153e-05
-4.19409e-05
2.03545e-05
2.00106e-05
1.45639e-05
-2.82144e-05
-2.16201e-05
-6.74075e-06
4.98024e-06
-1.5445e-06
3.89555e-05
6.75782e-06
-7.23713e-05
-7.72252e-06
2.45408e-05
-2.3409e-05
-5.21187e-05
-7.54756e-06
-2.20086e-05
-4.66216e-05
-5.76297e-05
-0.000107359
-9.25519e-05
-0.000123544
-0.000240051
-0.000284985
-0.000446481
-0.000663999
-0.0010906
-0.0016503
-0.00250367
-0.00392836
-0.0058747
-0.00932273
-0.0142694
-0.022119
-0.0329769
-0.0523943
-0.0793359
-0.122467
-0.181825
-0.29967
-0.456023
-0.695271
-1.12493
-1.98434
-3.04114
-5.31328
-9.77427
-15.8846
-26.195
-41.5698
-47.4685
-26.0279
1.28517