/*--------------------------------*- C++ -*----------------------------------*\
| =========                 |                                                 |
| \\      /  F ield         | OpenFOAM: The Open Source CFD Toolbox           |
|  \\    /   O peration     | Version:  2412                                  |
|   \\  /    A nd           | Website:  www.openfoam.com                      |
|    \\/     M anipulation  |                                                 |
\*---------------------------------------------------------------------------*/
FoamFile
{
    version     2.0;
    format      ascii;
    arch        "LSB;label=32;scalar=64";
    class       volScalarField;
    location    "0.0045";
    object      ddt0(rho,e);
}
// * * * * * * * * * * * * * * * * * * * * * * * * * * * * * * * * * * * * * //

dimensions      [1 -1 -3 0 0 0 0];

internalField   nonuniform List<scalar> 
180000
(
1.06516e-05
-2.71711e-06
-6.06904e-05
-1.8361e-05
1.87982e-05
3.1591e-05
-2.12854e-05
5.0411e-05
4.62934e-05
-8.32557e-06
-1.55208e-05
-9.33327e-06
-9.64782e-05
-9.83386e-05
2.12075e-05
-1.84489e-05
1.9967e-05
6.99209e-05
4.66134e-05
-2.15995e-06
9.51112e-05
5.90069e-05
-8.47008e-05
-5.45977e-05
-3.43782e-05
-7.48123e-06
-1.25822e-05
4.59419e-05
4.54175e-05
-2.49435e-06
-2.86458e-05
-4.78628e-05
1.75901e-05
1.18846e-05
-2.14764e-05
-1.60279e-05
1.41527e-05
-4.48419e-05
6.4657e-06
2.36284e-05
5.23526e-05
7.70678e-05
1.3833e-05
-8.47737e-05
-7.65917e-07
5.10931e-05
4.08455e-05
-4.88046e-06
-9.49329e-05
-2.82319e-05
-4.33609e-05
3.61335e-05
0.000128591
-2.67791e-05
-5.00932e-05
-0.000111669
-3.95549e-05
6.40813e-06
-1.85166e-05
-3.47923e-05
4.88138e-05
4.94521e-05
-0.000120333
-7.24161e-05
5.05459e-05
6.74917e-05
1.04169e-05
7.09568e-05
-9.79761e-06
0.000123946
1.24392e-05
-3.0967e-05
-3.55589e-05
2.16058e-05
-3.05869e-06
8.54974e-05
7.60866e-05
-5.7593e-06
6.66606e-05
4.43273e-05
6.03266e-05
6.70515e-05
-3.02775e-05
-4.88922e-05
8.9855e-06
8.39805e-06
-2.02602e-05
-3.72107e-06
3.8679e-05
-2.77117e-05
-2.07401e-05
-1.99332e-05
1.63268e-05
1.40367e-05
-1.14776e-05
-3.15308e-05
-5.43769e-05
-4.49784e-05
-1.21689e-05
2.14119e-05
3.30817e-05
-3.31693e-05
-8.64758e-05
-2.74994e-05
-2.88691e-05
5.41431e-05
-4.00608e-05
-0.000119264
-0.000114229
-4.73231e-05
3.14035e-05
2.46026e-06
-6.32387e-06
-4.60808e-05
8.24818e-05
9.68698e-05
4.37495e-05
9.72101e-06
-5.32605e-05
3.69826e-05
0.000120527
4.57297e-05
7.65682e-07
-1.52581e-05
5.23129e-05
-1.18867e-05
-1.76243e-05
-1.03595e-05
-1.02665e-05
1.43223e-06
2.25521e-05
-1.14269e-05
-3.14347e-05
-2.92703e-05
4.29414e-05
3.48838e-05
2.95266e-05
-4.37809e-05
3.51578e-06
5.29171e-05
4.04365e-05
1.44731e-06
-1.33022e-05
-4.58886e-05
-5.34371e-06
6.59314e-05
6.92888e-05
-2.93059e-05
-0.000121231
-3.54356e-05
-4.64144e-05
2.09762e-05
1.28305e-05
1.67372e-05
-3.93633e-05
2.7162e-05
6.8101e-05
-3.66251e-06
-2.80942e-05
-8.66084e-05
1.9984e-05
-4.67562e-05
-7.26686e-05
1.95554e-06
-2.61027e-05
-8.81896e-05
3.9718e-05
6.57115e-05
-1.42347e-05
-4.72056e-05
-5.72637e-05
8.59758e-07
-4.63563e-05
-2.10225e-05
-2.81262e-05
5.09949e-05
4.53851e-05
5.88088e-06
5.79997e-06
9.49458e-06
-1.6487e-05
-6.474e-05
-2.31782e-05
5.39913e-05
-8.6428e-05
-0.000148894
-4.41486e-05
-4.38726e-06
-2.69798e-05
7.02808e-05
6.83348e-05
-4.4857e-05
4.65856e-05
-4.96077e-06
5.15754e-06
0.000127451
6.504e-05
5.34785e-05
7.69271e-05
5.92911e-05
6.123e-05
6.0975e-05
5.64946e-05
-4.38215e-05
4.17756e-05
8.32019e-05
9.77847e-06
-3.18784e-05
-5.01954e-05
-2.92429e-05
7.98377e-05
6.99635e-05
2.57492e-05
-1.36857e-05
3.93578e-05
2.72436e-05
-6.18359e-05
-0.000148042
-1.54536e-05
8.33638e-05
5.61781e-05
-1.5176e-05
-7.30042e-05
-3.82601e-05
1.28043e-05
0.000144503
3.41481e-05
-8.44872e-05
-7.81832e-05
-4.74454e-05
-1.65339e-05
-7.48162e-05
4.66227e-05
8.98961e-05
3.6438e-06
-3.91641e-05
-3.90127e-05
-9.94612e-06
4.2414e-05
-5.97267e-06
-4.01804e-06
-3.77892e-05
-4.8627e-05
-1.90107e-05
-2.28417e-05
-4.21864e-05
-1.52139e-05
9.7638e-05
2.54323e-05
-2.00897e-05
-2.88604e-05
-3.08195e-05
1.17643e-05
1.38436e-06
-8.67839e-05
-4.88706e-05
4.64498e-05
6.10938e-05
-4.01053e-06
2.70724e-05
-3.7719e-05
-6.85329e-05
-0.000109576
-0.000157412
-0.000163348
-0.000215328
-0.00036166
-0.000703555
-0.000974798
-0.00177615
-0.0023134
-0.00431335
-0.00569885
-0.0105686
-0.0136506
-0.0254586
-0.0333065
-0.0606026
-0.0766801
-0.143547
-0.179637
-0.33341
-0.404123
-0.815898
-1.04047
-2.07505
-2.83372
-6.55632
-8.76143
-17.7198
-26.723
-50.3019
-63.2493
-147.014
-260.772
-602.206
-992.968
-2007.48
-2154.74
-9015.85
1.00303e-05
1.71962e-05
-3.08429e-05
-3.7694e-05
2.01639e-05
-4.28446e-06
2.59216e-06
2.58374e-05
6.22766e-05
5.04196e-05
3.87994e-05
-3.71823e-05
-8.02779e-05
-4.20777e-06
-2.91657e-05
4.79332e-05
-1.04377e-05
-2.56466e-05
-3.58854e-05
-1.18993e-05
-2.65638e-06
1.94043e-05
6.92665e-05
-1.25612e-05
-2.41071e-05
-2.5494e-06
-4.17574e-05
7.70201e-06
4.44306e-05
-7.72532e-05
1.54695e-05
3.15771e-05
2.48183e-05
2.1324e-05
4.82101e-05
-2.99706e-05
7.48871e-06
4.00999e-05
7.39994e-05
3.50713e-05
-2.16623e-05
-3.9554e-05
-3.76067e-05
-3.44828e-05
-3.51026e-05
-2.06299e-05
-4.9655e-05
-2.98188e-05
1.17522e-05
-2.63578e-05
6.2444e-05
9.00018e-05
-1.4971e-05
-4.9829e-06
-2.56817e-05
6.97321e-05
9.71846e-06
-4.36649e-05
-1.23986e-05
-2.16001e-05
-3.99594e-05
-0.00010008
3.60229e-05
1.68527e-05
-3.04452e-05
-6.15516e-06
6.42494e-05
4.97335e-05
-1.7561e-05
-7.58986e-05
2.94794e-05
-2.37783e-06
9.40967e-06
7.63884e-05
2.48134e-05
-5.82986e-05
-2.20926e-05
-4.35653e-06
4.18221e-05
1.25869e-05
-0.000128556
-7.52915e-05
9.93152e-06
7.26553e-06
-2.59678e-05
3.72892e-05
2.93025e-05
5.80576e-05
-2.79173e-06
-2.52132e-05
-2.89996e-05
8.24533e-05
-1.55307e-05
1.623e-05
-6.94299e-05
-7.09588e-05
-3.25617e-05
2.63334e-05
3.08005e-05
6.12175e-05
-1.25822e-05
-7.1156e-05
-6.72969e-05
3.13639e-05
-4.88856e-05
-4.23077e-05
8.46075e-05
4.52919e-05
1.27322e-05
4.49934e-05
3.23914e-05
-2.79768e-05
-4.57213e-05
2.14672e-05
-2.47051e-05
-2.26115e-05
-1.22931e-05
-2.87537e-06
5.91342e-05
-2.03654e-05
-4.15338e-05
-7.16768e-05
-3.06022e-05
-1.42731e-06
-6.66021e-05
-7.877e-06
2.14994e-05
-1.05613e-05
4.79444e-05
3.76705e-05
4.54543e-06
4.57129e-05
5.41651e-05
-2.80718e-05
4.19132e-05
1.93224e-05
1.85614e-05
-2.35492e-06
-9.38408e-06
7.92341e-05
1.86318e-05
3.42113e-05
4.7955e-05
0.000108818
6.77433e-05
4.36194e-05
-3.91201e-06
3.6134e-05
-1.97905e-05
-3.85094e-05
3.17616e-05
3.29801e-05
6.3077e-06
-9.68882e-06
-3.06652e-05
1.60616e-05
-4.24112e-05
-4.18241e-05
-1.83901e-05
-9.211e-05
-6.87002e-05
-3.97404e-05
-2.85411e-05
1.43831e-06
2.06788e-05
2.71418e-06
-0.000127865
-1.03624e-05
4.88072e-05
2.78184e-05
-4.67546e-05
-5.75498e-05
-0.000133926
-7.36517e-05
-5.03546e-05
7.61628e-06
-7.04484e-05
7.86405e-06
2.19718e-05
-6.07296e-05
-1.3818e-05
2.7559e-05
4.11102e-05
-2.56752e-05
-4.39748e-06
4.37362e-07
4.37093e-05
4.13863e-05
-4.65263e-05
2.34232e-05
-9.06226e-05
-1.48598e-05
2.21973e-05
-1.39248e-05
6.3361e-05
4.41625e-05
7.7829e-05
-1.70494e-05
-1.75595e-05
6.58309e-05
9.84674e-05
2.1518e-07
-5.68016e-05
-3.50463e-05
-3.25396e-06
6.60243e-05
8.57221e-06
-2.593e-05
-0.000123268
-8.04926e-05
4.07016e-05
7.59908e-05
7.28084e-05
2.43751e-05
0.000105072
9.70907e-05
4.00659e-05
6.25026e-05
-2.35154e-05
-5.47319e-05
4.95339e-06
-8.53868e-05
-1.90622e-05
9.5635e-05
2.5877e-06
6.2128e-06
5.04176e-05
-8.27034e-05
-6.63437e-05
4.2689e-05
3.36389e-05
-4.60823e-05
-5.46486e-05
-2.26396e-05
-2.27341e-05
-5.07624e-05
2.72774e-05
3.96921e-05
4.77802e-06
-6.06491e-05
-1.41356e-05
-4.85701e-05
-1.85326e-05
5.16319e-05
5.86708e-05
-4.79402e-06
-4.56121e-05
9.03972e-05
3.43324e-05
-6.77657e-05
2.87457e-06
8.16504e-06
2.97565e-05
-2.01344e-05
-9.15316e-05
-8.82198e-05
-2.03203e-05
1.61469e-05
6.30697e-05
2.46486e-05
-1.07305e-05
-2.8902e-05
-2.5597e-05
-2.67321e-05
-0.000130065
-0.000281967
-0.000297751
-0.000663072
-0.00086721
-0.00172154
-0.00240849
-0.00443956
-0.00614259
-0.0111273
-0.0147822
-0.0268868
-0.036358
-0.0663324
-0.0864891
-0.158337
-0.209017
-0.384935
-0.490076
-0.92999
-1.26807
-2.44063
-3.25376
-7.04851
-10.4279
-19.9561
-30.4627
-61.8878
-85.6109
-171.988
-290.612
-572.391
-913.633
-1956.09
-2079.05
-6013.2
6.26452e-06
-2.59127e-05
2.20368e-07
-3.70945e-05
6.39312e-05
2.76782e-05
-1.36842e-05
1.00404e-05
-3.31373e-05
-9.90973e-05
-2.03979e-05
6.96288e-05
2.1151e-06
-4.35382e-05
3.64593e-05
-7.35977e-06
2.54487e-05
4.42952e-05
5.13907e-05
2.27453e-05
-4.53157e-05
-6.01491e-07
5.92206e-06
-4.80758e-05
-0.000107205
-2.48451e-05
7.28028e-05
3.9459e-05
7.41651e-05
9.70163e-06
4.4797e-05
-1.87608e-05
-6.66199e-05
-9.51317e-06
-5.62349e-05
1.12925e-06
-1.08488e-05
-2.22233e-05
-5.19469e-07
-2.4342e-06
3.93531e-05
3.02746e-05
3.33869e-05
-2.68287e-06
-1.97553e-05
4.07529e-05
-5.98744e-05
-6.54564e-05
5.21922e-05
-2.96659e-06
2.74279e-05
-1.41805e-05
1.38807e-05
-2.11664e-05
0.000122266
-3.24755e-05
-8.97915e-05
8.35579e-06
1.32176e-05
-4.12321e-06
-7.59943e-05
4.49847e-06
-8.02868e-05
-1.10721e-05
2.97636e-05
-1.92861e-05
8.98369e-06
2.50054e-05
-2.64194e-05
2.02233e-05
1.49016e-05
-5.69077e-05
3.03314e-06
-4.45497e-05
-4.21898e-05
4.96589e-05
6.46288e-06
-3.28331e-05
4.65917e-05
-1.93462e-05
-4.49484e-05
-6.926e-05
-4.50074e-05
-3.56006e-05
-3.94682e-05
-6.26177e-06
4.07469e-05
1.61498e-05
6.77426e-05
8.98895e-05
1.29329e-05
-5.61558e-05
-5.96941e-05
-2.6156e-05
-3.26607e-06
4.82705e-05
5.88708e-05
-2.40432e-05
-8.92065e-05
-4.28352e-05
8.60562e-05
7.50072e-05
-1.1654e-06
3.41648e-05
3.44323e-05
-3.65733e-05
-4.39834e-05
-3.36136e-05
1.59285e-05
6.0568e-05
5.26002e-05
-1.74413e-05
1.85945e-06
3.88458e-06
-5.34162e-05
1.75228e-05
9.20707e-05
1.89998e-05
2.12284e-05
1.35014e-05
-5.36005e-05
-3.43049e-05
2.37533e-05
-1.80426e-05
-2.35067e-05
-3.72358e-05
1.93813e-05
4.42623e-05
0.000135486
1.13773e-05
-8.94786e-06
7.00665e-06
0.000124522
3.61664e-06
1.92669e-05
1.36048e-05
-6.13091e-05
-2.80111e-05
-4.25167e-05
-2.10808e-05
1.12047e-05
2.64444e-05
-1.54076e-05
-2.254e-05
-3.50618e-05
4.73706e-05
9.903e-06
-3.50252e-05
4.08616e-05
-1.3782e-05
-1.04388e-05
-3.54293e-05
3.44192e-05
-1.0208e-05
-6.93363e-05
-5.94826e-05
-1.25015e-06
-1.08215e-05
-1.92442e-05
-1.61314e-05
-0.000107869
-1.12893e-05
8.40267e-05
-7.93288e-06
-6.82762e-05
-3.11985e-05
2.29941e-05
-6.25539e-05
-6.5978e-05
-6.04275e-05
-1.2268e-05
-2.3694e-05
-4.89924e-05
-5.91363e-06
-5.8293e-05
-7.87178e-06
1.20373e-05
8.47973e-06
-8.30768e-06
-6.56854e-05
-2.59784e-05
-2.76673e-05
5.77281e-06
3.09717e-05
-2.97211e-05
2.49234e-05
6.11172e-05
1.28321e-05
-3.46874e-05
2.79356e-05
0.000104526
6.43836e-05
-1.09615e-05
-7.36627e-05
2.10761e-05
-1.98153e-05
-3.27647e-05
1.69283e-05
8.4505e-05
4.16677e-05
-6.10357e-05
-5.49844e-05
4.44892e-05
1.0665e-05
-4.11893e-05
-4.51715e-05
1.20106e-05
-3.93387e-05
-1.09122e-05
6.37291e-05
9.43717e-06
6.65054e-05
6.66793e-05
9.29082e-05
5.74031e-05
3.22397e-05
7.06639e-05
4.03138e-05
-4.53301e-05
-3.89143e-06
5.41593e-06
2.7704e-05
7.5324e-05
9.28459e-05
-3.17695e-05
-4.6793e-05
-7.48679e-05
-9.69534e-05
-6.07556e-05
-5.36607e-05
9.68545e-06
1.99124e-07
-6.50915e-05
-3.16421e-05
1.53709e-05
-1.23452e-05
-2.33121e-05
1.91503e-05
-2.28029e-05
2.94013e-05
7.1677e-06
7.58617e-06
-2.4476e-05
-1.85725e-05
-9.71448e-05
-4.97208e-05
-4.78759e-05
-6.67038e-05
-1.85806e-05
-7.56196e-05
-5.61091e-05
-4.75784e-05
-1.38563e-05
0.000102433
5.14913e-05
4.08349e-05
-5.34376e-06
7.27758e-05
2.8906e-05
2.17711e-05
-3.00254e-05
-3.72349e-05
-7.29891e-05
-0.000115998
-0.000183452
-0.000265034
-0.000351469
-0.000696875
-0.00100453
-0.00188092
-0.00257822
-0.00460064
-0.00625049
-0.0114756
-0.0160058
-0.0286765
-0.0398075
-0.0717395
-0.0976952
-0.173489
-0.238998
-0.434269
-0.579543
-1.03394
-1.474
-2.74082
-3.64215
-7.25758
-11.2946
-20.7586
-31.5776
-64.9605
-94.2794
-180.331
-302.267
-516.565
-739.691
-1680.27
-1666.76
-5075.55
-7.68194e-07
-2.83511e-06
2.23911e-05
5.42587e-06
-7.11087e-05
2.15339e-05
1.69253e-05
6.8056e-05
1.42056e-05
-1.74974e-05
1.16829e-05
-8.12439e-05
-8.30424e-05
8.89598e-07
4.01636e-05
2.13866e-05
5.08692e-05
-1.14444e-05
-0.000104209
-2.95469e-05
5.56541e-05
3.55418e-05
-2.57182e-05
1.38514e-05
-1.86618e-05
-8.38098e-06
5.11136e-05
2.13941e-06
1.59825e-05
2.77e-06
-9.6924e-05
5.10279e-05
-2.90337e-05
-5.94787e-05
-6.99862e-05
9.935e-06
9.17265e-05
0.000132825
0.000110773
1.31199e-05
-7.97911e-05
-9.56362e-05
-5.77695e-06
3.60446e-05
1.71858e-05
1.66234e-05
-2.61407e-05
-3.16407e-05
5.04263e-06
-2.21101e-05
-2.33349e-05
-5.71683e-05
-0.000115799
-4.4883e-05
-5.65329e-07
-9.56393e-07
-1.63828e-05
-5.79682e-05
4.83267e-05
9.15736e-05
8.69999e-05
6.44231e-05
7.29334e-05
6.24555e-05
2.83751e-05
-9.66503e-05
-0.000113642
-3.6106e-05
2.14712e-05
4.19228e-05
-2.09549e-05
-8.37977e-05
-4.99115e-05
-2.03941e-06
5.47319e-05
2.82935e-05
6.79731e-05
-1.66141e-05
-1.45145e-05
-5.82093e-05
2.26527e-05
3.66589e-05
-3.66621e-05
2.19143e-05
-8.58843e-05
-4.3208e-05
6.10534e-06
4.43062e-05
7.96613e-05
0.000105711
3.40416e-05
3.40061e-05
9.96889e-05
-2.61443e-05
-3.92936e-05
2.70028e-05
2.79373e-05
-4.58316e-06
-2.34097e-05
-8.52506e-05
-6.79936e-05
-3.25482e-05
-7.49427e-05
2.10482e-05
2.35657e-05
-2.63311e-06
-5.89703e-05
5.30503e-06
-4.09435e-05
1.76117e-05
-1.49697e-05
-1.08836e-05
4.17219e-06
-2.98287e-05
1.91768e-06
3.42452e-05
3.42121e-05
3.12943e-05
-3.20967e-05
-2.49237e-05
9.99991e-07
3.69017e-05
2.36916e-05
-2.47389e-05
-7.7249e-05
-0.000117009
-2.2798e-05
4.34279e-05
9.24921e-06
-1.21043e-05
5.62977e-06
-9.42574e-06
4.95362e-05
-4.09222e-05
-5.35132e-05
2.86781e-05
1.54249e-06
1.51113e-05
-2.04971e-05
-6.90344e-05
-3.37723e-05
-7.94331e-05
7.22036e-05
0.000134949
4.7052e-05
7.89872e-05
-1.77893e-05
-6.08157e-06
3.51869e-05
-2.66022e-05
6.79576e-06
-8.84782e-06
5.99401e-06
4.89995e-06
2.17945e-05
2.45348e-05
1.81281e-05
3.50757e-05
3.70046e-05
2.45476e-05
-1.18707e-05
-1.19776e-05
7.65326e-05
2.18264e-05
4.96551e-07
1.30549e-06
-5.86833e-05
-7.62421e-05
1.02113e-06
-1.15548e-05
-1.40529e-05
-3.45603e-05
2.67326e-05
-0.00011362
-5.3056e-05
4.79969e-05
2.40332e-05
1.87641e-05
-1.91527e-06
-3.18441e-07
-3.35054e-05
-8.86995e-06
-9.53651e-06
-2.84734e-05
-3.25165e-05
4.23588e-05
6.00751e-05
1.19091e-05
1.10096e-05
-7.03301e-06
-6.09055e-05
-1.44134e-05
4.70809e-05
-3.12481e-05
-5.66758e-05
-5.51306e-05
1.91342e-05
2.74257e-06
2.3851e-06
2.20113e-05
-6.57489e-06
2.35418e-05
6.5715e-05
3.18697e-06
-5.90264e-05
2.14349e-05
2.76258e-06
-5.15487e-05
-5.25048e-06
-5.35022e-06
-3.48408e-05
3.86483e-06
-8.20513e-05
-8.8489e-06
2.87337e-05
-5.58526e-06
-4.32159e-05
5.44642e-05
2.848e-06
3.47287e-05
5.92599e-05
2.19142e-05
-8.91046e-05
-2.50134e-05
3.28869e-05
5.76298e-05
7.3739e-05
7.21432e-05
1.00123e-05
-4.88327e-05
-1.22978e-06
2.85877e-05
8.59357e-07
-4.82859e-05
-7.865e-05
-8.14723e-05
-8.25746e-06
4.06892e-05
1.55161e-05
-4.93645e-05
-1.63792e-05
-6.3168e-05
-3.97205e-05
-5.2744e-05
-5.96767e-05
1.01164e-05
7.9242e-05
-2.72288e-05
-3.6673e-05
7.01437e-05
5.45006e-05
1.09566e-05
-2.36575e-05
-4.4788e-05
0.000114454
0.000115843
9.23649e-05
4.03125e-05
4.67469e-06
-5.04913e-05
-6.57693e-05
-4.98958e-05
-1.81228e-05
-0.000187341
-8.67359e-05
-0.000216395
-0.000443659
-0.00068866
-0.00105715
-0.00169758
-0.00255575
-0.00466903
-0.00645528
-0.0115795
-0.016471
-0.0287777
-0.0403402
-0.0723832
-0.101344
-0.176368
-0.247533
-0.444837
-0.61316
-1.05408
-1.52064
-2.78924
-3.74101
-6.94359
-11.0252
-20.0242
-29.9828
-61.217
-91.957
-171.033
-287.664
-464.47
-603.068
-1378.44
-1305.96
-3751.73
1.18646e-05
-2.23805e-05
3.24774e-05
-2.50107e-06
-2.21705e-05
1.29356e-06
1.03314e-06
-5.13373e-05
-3.57534e-05
3.06888e-05
3.14278e-06
-6.51933e-05
-4.5891e-05
4.6445e-05
1.52251e-05
-1.22012e-05
9.10404e-06
6.39907e-05
4.45187e-05
-1.73503e-06
2.94322e-05
-4.58714e-05
-5.93608e-05
-2.53422e-05
7.38468e-05
0.000112468
-2.35695e-05
-5.97373e-05
-1.2826e-05
-1.61822e-05
-2.32151e-05
6.81715e-05
-6.90779e-05
-0.000184911
-0.000126382
2.42816e-05
-7.19364e-05
-4.51943e-05
-5.10934e-06
2.69898e-05
2.73644e-05
3.94534e-05
1.50165e-05
-3.13135e-05
9.62686e-05
6.70079e-06
7.7444e-05
8.1335e-05
0.000110432
6.20826e-05
-9.38833e-05
-1.09843e-05
-4.13427e-05
-4.46239e-05
-8.52894e-06
-8.19479e-06
9.00512e-05
-1.42106e-05
5.18319e-05
-3.37837e-05
-0.000119094
2.68995e-05
-9.87862e-06
5.69318e-05
6.39679e-05
3.55702e-05
-9.43649e-07
-6.18739e-06
-7.3728e-07
3.96263e-05
2.07814e-05
2.24485e-05
1.44806e-05
-1.43448e-05
-2.2125e-05
1.28998e-05
3.08025e-05
2.37252e-05
-1.97874e-05
-6.38577e-05
-6.99805e-05
-1.97869e-05
-2.31202e-05
-2.07035e-05
-4.82226e-05
3.77122e-05
4.01983e-05
-1.79425e-05
5.56263e-06
-1.11083e-05
-8.92559e-05
-4.78461e-05
-4.25148e-05
-5.531e-05
3.33996e-05
9.71747e-05
0.000114504
9.01922e-06
-8.21848e-05
-7.38982e-05
9.01839e-07
6.35236e-05
7.55256e-05
2.91716e-05
-3.01598e-05
6.73443e-05
2.7648e-05
-7.66843e-05
-2.35042e-05
-0.000105849
-5.84793e-05
5.08692e-05
4.15849e-05
6.32462e-05
-7.57179e-06
-3.98493e-05
6.01778e-05
5.02834e-05
4.15286e-05
-1.22832e-05
-4.06538e-05
2.63765e-05
6.12153e-05
-2.54504e-05
7.41984e-06
1.34315e-05
7.60135e-05
5.39703e-05
0.000123257
2.04316e-05
2.57503e-06
-8.39461e-06
-5.27445e-05
-5.91602e-05
-2.34249e-05
3.10097e-06
1.6381e-05
-4.47719e-08
-4.53468e-06
-3.93943e-05
-7.13069e-05
-2.30687e-05
7.99153e-06
-7.14079e-05
9.88789e-07
1.20031e-06
5.22892e-05
-9.5483e-06
-6.89981e-05
-3.15138e-05
4.20482e-05
8.84707e-05
8.56021e-05
2.0152e-05
3.5578e-05
6.99538e-05
-1.5798e-05
-4.0375e-05
-6.94926e-05
1.07487e-05
-2.03757e-05
1.51663e-05
4.56218e-05
-3.27694e-05
-4.305e-05
-7.30071e-05
3.4872e-06
3.32879e-05
2.43558e-05
-3.79803e-05
-1.27078e-05
4.9715e-05
8.01211e-06
4.51559e-05
-3.60157e-06
4.5491e-05
7.02974e-05
7.57237e-05
3.6528e-05
-0.000125602
-3.14117e-05
-6.74061e-06
-4.34237e-05
-5.8118e-05
-9.18622e-05
-6.55649e-05
-4.61983e-05
-3.86645e-05
-6.42328e-05
-4.16185e-05
-2.44406e-06
-7.18072e-05
5.34796e-06
2.49237e-05
-4.78662e-05
-5.09777e-06
5.08622e-05
5.08708e-05
4.24363e-05
9.11203e-07
7.74285e-05
7.05171e-06
1.89834e-05
-4.20219e-05
-0.000123789
-2.18665e-05
6.00893e-05
7.77824e-05
6.485e-05
-2.47373e-05
-6.07611e-05
-2.56041e-05
-1.26033e-05
-3.95844e-05
-1.12714e-05
-1.57407e-05
2.49042e-05
3.59168e-05
-4.60455e-05
6.07065e-05
2.75336e-05
2.39271e-05
-5.5042e-05
-0.000126667
4.40482e-05
0.000105164
0.000101993
-2.28197e-05
-7.75767e-05
-5.11046e-05
-7.88136e-05
-1.9587e-05
5.06821e-05
-1.74574e-05
1.87562e-05
-3.34784e-05
-5.86988e-06
-5.06097e-05
3.01888e-06
8.54774e-05
7.15323e-06
-4.33522e-05
4.05882e-05
2.77237e-05
9.65002e-07
-2.435e-05
-7.82551e-06
2.76673e-06
-4.12169e-05
-3.85618e-05
4.39634e-05
1.40554e-05
5.40534e-05
6.34418e-05
7.67495e-05
-2.92646e-05
3.34659e-05
-1.7215e-05
1.28634e-05
3.34819e-05
-2.94086e-05
-8.02133e-05
-8.07663e-05
-0.000107653
-0.000257296
-0.000363642
-0.000349444
-0.000631692
-0.00101934
-0.0017747
-0.00257101
-0.00454697
-0.00633268
-0.011176
-0.0162907
-0.0280896
-0.040045
-0.0705209
-0.101124
-0.173051
-0.246419
-0.436238
-0.6171
-1.03239
-1.49958
-2.70436
-3.68205
-6.44416
-10.2725
-18.417
-27.1655
-54.2386
-83.1523
-151.323
-254.57
-398.163
-475.121
-1101.82
-1046.04
-2797.09
2.72251e-06
2.51773e-05
-5.60421e-05
-2.87818e-06
2.59245e-05
6.27881e-05
5.06252e-05
-3.86275e-05
-5.65957e-05
-1.32473e-05
3.79809e-06
-3.65258e-05
-1.9046e-05
-6.96848e-06
7.95454e-05
2.35761e-05
-5.67974e-05
-6.04993e-05
1.64299e-05
2.47615e-05
2.68354e-05
5.1038e-05
-1.78255e-05
2.73181e-05
2.82873e-06
1.31945e-05
3.27541e-05
-1.446e-05
-4.56636e-05
-1.23763e-05
1.47018e-05
6.34031e-05
4.82592e-05
-5.71174e-06
6.88514e-05
5.87749e-05
-3.16758e-05
-6.77364e-05
8.90559e-06
-0.00013238
-5.50122e-05
1.54164e-05
3.51595e-05
6.6877e-05
9.74942e-05
-2.79467e-06
-9.7803e-07
-5.1627e-05
-8.10384e-05
-3.03929e-05
-9.96535e-05
-6.9146e-05
4.17514e-05
3.14115e-05
1.59234e-05
2.25005e-05
-3.34681e-06
-9.93487e-05
-8.06596e-05
-7.44427e-06
-1.19613e-05
-6.80912e-05
-1.1126e-05
7.87766e-05
4.47332e-05
5.86497e-05
-3.58145e-05
5.09336e-07
3.67518e-05
-2.78218e-05
-2.77508e-05
2.04431e-05
1.71698e-05
5.48214e-05
2.98936e-05
-4.21208e-06
-8.85061e-07
1.36315e-05
6.01927e-05
1.05432e-05
-9.8494e-07
0.000108683
5.7378e-05
-0.000109135
9.96137e-06
4.39912e-06
4.59721e-05
6.16233e-06
-6.68725e-05
-2.75672e-05
-2.97606e-05
4.70746e-06
3.85998e-05
5.6212e-05
3.85193e-05
-4.02499e-05
-6.66542e-05
-6.91525e-05
-7.4199e-05
-3.94178e-05
2.41351e-06
-1.31421e-05
0.000104801
5.35538e-06
-6.98214e-05
-3.08657e-05
-3.43339e-05
4.90713e-05
4.1932e-06
-9.5214e-05
-3.5625e-05
4.00387e-05
1.745e-05
1.42743e-05
8.7897e-06
0.000101072
0.000148694
9.74905e-05
5.29589e-06
-7.42923e-05
-2.08775e-05
-5.78314e-05
2.61643e-05
5.0639e-05
-4.20418e-05
-1.21308e-06
-1.74306e-05
-5.00765e-05
8.55964e-05
2.38416e-05
3.22053e-06
4.30421e-05
3.00305e-05
-8.31253e-05
1.56999e-06
3.40418e-06
1.71051e-05
0.00010758
0.000118763
-1.58277e-05
4.2796e-06
0.000125814
0.00010351
2.02161e-05
-8.78366e-05
-0.000117755
-6.05674e-05
-5.46796e-05
1.48491e-05
-6.49663e-07
-3.79972e-05
-2.07708e-05
5.13883e-05
4.18876e-05
3.7085e-06
-6.55296e-05
-2.77176e-05
3.95798e-05
0.000113419
0.000132635
-5.41951e-05
-5.94657e-06
-8.30869e-05
-3.50391e-06
7.69407e-05
2.60586e-06
-1.06048e-05
-4.14616e-05
4.41248e-05
2.65937e-06
-6.17846e-05
-9.4689e-06
6.92454e-05
-1.08083e-07
-6.06995e-05
-7.61892e-05
-6.40967e-05
1.1628e-05
-4.04616e-05
-1.54634e-05
-7.56472e-05
-5.26735e-05
1.32166e-05
4.91439e-05
3.20494e-05
5.65068e-05
-1.03992e-05
-5.24862e-05
2.866e-05
-3.43864e-05
-3.77196e-05
6.57172e-05
-3.1719e-05
-3.5962e-05
5.84538e-05
-2.97876e-05
-7.47388e-05
-4.19534e-05
3.93191e-05
9.34761e-05
4.69892e-06
-5.74249e-05
1.65824e-05
-1.23881e-05
-2.53119e-05
4.93821e-05
1.92302e-05
6.36667e-06
5.82812e-05
8.08102e-05
-1.31355e-05
-6.67903e-05
-4.95415e-05
-3.94524e-05
6.36247e-05
1.72872e-05
3.97342e-05
7.47939e-05
5.37382e-05
-1.49744e-05
-4.1458e-05
-3.81875e-05
-1.70543e-05
-2.45862e-05
-2.97476e-05
6.86629e-05
-5.8228e-06
-2.979e-05
4.53582e-05
-2.56866e-06
-3.76947e-05
2.09277e-05
6.1052e-05
-5.19334e-05
7.59627e-06
1.61405e-05
-1.03921e-05
2.3943e-05
-7.73865e-06
-8.25361e-05
-4.18058e-05
-1.05642e-05
1.53371e-05
-1.31587e-05
-4.35243e-05
2.27372e-05
6.42987e-05
9.28513e-05
-2.74012e-06
-2.64557e-05
-2.14219e-05
-9.99006e-05
-9.22443e-05
-9.24723e-05
2.26843e-05
3.48112e-05
5.94217e-05
-6.49863e-05
-1.08273e-05
0.000114556
-2.36747e-05
-2.59926e-05
-6.8441e-05
-8.39591e-05
-0.000146255
-0.000319661
-0.000468356
-0.000629281
-0.000925536
-0.00166434
-0.00237868
-0.00416259
-0.00590023
-0.0102677
-0.0148456
-0.0255724
-0.0366653
-0.064059
-0.0926276
-0.156986
-0.224683
-0.394167
-0.564405
-0.930957
-1.35095
-2.4155
-3.3105
-5.59866
-8.89352
-15.8636
-23.0949
-45.4158
-70.3939
-126.733
-212.771
-326.936
-364.957
-859.559
-822.394
-2088.2
-4.22131e-07
4.37906e-05
-1.94583e-05
-2.1477e-05
5.89512e-06
-4.70735e-06
5.45226e-05
-5.44213e-05
-4.75511e-05
0.000145691
3.34826e-06
-5.32603e-05
-4.46707e-05
-3.26711e-05
3.29936e-05
-2.8146e-05
-4.25588e-05
2.82327e-05
-1.98837e-05
-8.14867e-05
-7.518e-05
-1.56375e-05
6.15485e-05
7.14419e-05
4.16788e-05
-1.23087e-05
2.01714e-05
-2.5062e-05
3.88474e-05
6.53171e-05
2.37101e-05
-4.27928e-05
-4.53362e-05
4.59435e-05
6.13629e-05
3.84106e-05
-3.70962e-05
-3.61959e-05
-7.19968e-05
5.88254e-05
0.000117912
-2.08431e-05
-4.92598e-05
2.87179e-05
4.43135e-05
4.87051e-05
4.21919e-05
-4.76391e-05
-8.24195e-05
-3.13158e-05
3.78745e-06
-1.7456e-05
-3.49945e-05
-6.86552e-05
2.09826e-05
-5.62952e-05
7.67239e-05
7.45832e-05
1.39724e-05
-1.18974e-05
-0.000125163
-6.24387e-05
5.41829e-06
-4.24135e-05
1.86549e-05
-5.65474e-05
3.27402e-05
3.81383e-05
9.06055e-05
-3.06085e-05
-4.31895e-05
5.69606e-06
7.22357e-06
-2.33374e-06
2.222e-05
6.53647e-05
-1.57403e-05
1.91621e-05
3.09319e-05
7.13169e-06
3.49659e-05
-5.81314e-05
-6.5673e-05
-2.4617e-05
6.10719e-06
-1.33216e-05
-0.000102128
2.03596e-06
0.000108199
-3.8784e-05
-0.000117136
-9.87482e-05
-9.11099e-05
-0.00016367
-4.99954e-05
2.97568e-05
4.86899e-06
2.59709e-05
2.27952e-05
2.95087e-05
1.76241e-05
9.77668e-06
6.53531e-05
6.11464e-05
5.69813e-05
7.14036e-05
2.2658e-05
-7.36065e-05
-0.000106088
-2.04812e-05
7.85822e-05
-5.11461e-06
-2.92432e-05
-6.22074e-06
6.07095e-05
-1.86354e-05
2.33521e-05
7.44032e-05
5.60576e-05
3.44683e-06
-1.78321e-05
-2.11612e-05
2.2331e-05
9.10609e-05
9.45431e-05
2.40647e-05
-0.000101931
-3.07858e-05
1.08221e-06
-6.977e-05
-3.701e-05
7.26923e-06
-2.59355e-06
-7.48968e-05
-5.32891e-05
2.83971e-05
3.7834e-05
6.13119e-06
0.000140208
0.000159084
5.10572e-05
-5.36611e-05
-2.48856e-05
-6.73782e-05
-1.64756e-05
1.92199e-05
3.90005e-06
1.80542e-05
1.54758e-05
-3.28767e-05
-9.85186e-06
-4.36462e-05
4.59885e-05
5.7556e-05
9.41787e-06
-3.59958e-05
4.38456e-05
-3.30666e-05
-9.58334e-05
-4.64985e-05
1.57106e-05
2.25443e-05
1.90288e-05
-6.35406e-05
-2.62557e-05
4.19981e-05
2.45213e-05
-5.89977e-05
2.15873e-05
1.52128e-06
-3.63851e-05
-5.18685e-06
1.02197e-05
-1.77948e-05
-2.43147e-05
-1.46541e-05
3.96157e-05
-1.95698e-05
-1.04326e-06
8.47734e-05
0.000122296
0.000168002
-8.34542e-05
-3.14801e-05
3.44512e-06
3.57972e-05
4.93906e-06
-8.23772e-05
-1.22043e-05
3.32004e-05
-6.0836e-06
-5.8638e-05
-4.08722e-05
-1.98214e-05
3.41344e-05
2.57328e-05
3.56344e-05
-5.01817e-06
-4.74896e-07
-3.8672e-05
-5.50017e-05
-5.35337e-05
3.07945e-05
2.39508e-05
1.62556e-05
-7.92162e-05
-2.6326e-05
-8.28899e-05
-9.44316e-05
5.91376e-05
7.55583e-05
4.96481e-05
-8.51948e-06
-1.92536e-05
-3.10723e-05
1.90021e-05
4.26523e-05
-7.05528e-06
2.65646e-06
-1.41429e-05
3.65891e-05
6.21562e-05
-3.11569e-05
-1.49509e-05
7.65578e-05
4.15712e-05
1.64581e-05
5.48775e-05
-2.06318e-05
5.61021e-06
5.12705e-05
-7.6806e-05
-0.000112004
-0.000122675
0.000104566
9.70823e-05
2.40082e-05
7.21831e-05
-7.64925e-07
-5.1529e-05
-4.83833e-05
-9.57433e-05
3.30144e-05
-9.84912e-06
7.60601e-05
4.64967e-05
3.35172e-05
3.76529e-05
-1.0078e-05
-3.87223e-05
-4.23785e-05
-2.22519e-05
4.33697e-05
8.0305e-05
2.09052e-05
6.2294e-06
3.34143e-05
2.40781e-06
-2.79896e-05
6.90371e-05
1.93238e-05
-3.2279e-05
-0.00010621
-5.47792e-05
-0.000147551
-0.000254652
-0.000423017
-0.00068693
-0.000956023
-0.00153475
-0.00217613
-0.00367752
-0.00533772
-0.00919585
-0.0135541
-0.0229588
-0.0330932
-0.0571248
-0.0834412
-0.140057
-0.201703
-0.349905
-0.506431
-0.825563
-1.20072
-2.12203
-2.93743
-4.83497
-7.64852
-13.5105
-19.5159
-37.5679
-58.5676
-104.183
-174.285
-263.469
-275.717
-657.65
-629.22
-1549.97
2.21519e-06
1.62492e-06
6.54057e-06
-1.41386e-05
-5.45136e-05
-5.14522e-06
4.97476e-05
6.36908e-05
0.000105027
-2.93034e-05
5.41241e-06
-4.79157e-05
-6.52597e-05
1.99767e-05
5.78958e-06
-5.85982e-05
-1.19795e-05
-1.09468e-05
-5.46083e-05
-4.94186e-05
-1.32569e-05
8.66719e-05
3.48148e-06
-1.85031e-05
7.67823e-06
6.83145e-06
5.90841e-05
-3.73476e-05
-1.76597e-06
-1.90622e-05
-2.71875e-05
3.85842e-05
4.78747e-05
-5.90155e-06
-2.62305e-05
-4.32326e-05
-2.43735e-05
-5.98698e-05
7.78968e-06
-1.21815e-05
-5.08424e-05
0.000120955
1.47899e-05
-1.5512e-05
-2.31478e-06
1.33168e-05
-1.92259e-05
-0.000126033
-2.26958e-05
5.63016e-05
2.77096e-05
2.31819e-06
7.22815e-05
-9.55849e-05
2.92206e-06
4.6354e-05
2.11659e-05
3.41233e-05
2.21167e-05
2.29686e-05
-6.82819e-06
-2.699e-06
2.75891e-05
1.35257e-05
-1.91151e-06
-1.85218e-05
-2.50635e-05
1.39603e-05
-2.0119e-05
7.68128e-05
7.83616e-05
-5.14425e-06
7.41375e-06
0.000105294
1.059e-05
1.5478e-05
-4.84449e-05
5.70246e-05
4.72393e-05
-1.02137e-05
-1.76077e-05
-4.08379e-05
-9.5566e-05
-6.73901e-05
1.44186e-05
-1.4149e-05
2.24226e-05
-9.74047e-07
-2.224e-05
-8.70469e-05
-1.88221e-05
1.26809e-05
1.64295e-05
-1.22028e-05
2.50499e-05
1.57632e-05
-3.25361e-05
-6.28097e-05
-2.89078e-05
-1.04165e-07
2.34353e-07
1.04361e-05
2.26286e-06
-3.79618e-06
-9.54496e-05
-4.76649e-05
-5.47879e-05
-2.72974e-05
-2.52242e-06
1.73107e-05
2.78809e-05
2.93035e-05
2.64337e-05
-1.06688e-05
5.67002e-05
5.95448e-06
-5.14531e-05
8.72804e-06
3.08881e-05
-9.37599e-06
-2.00632e-05
6.20075e-05
3.23646e-05
-4.11396e-05
1.305e-06
3.31716e-05
-3.58768e-05
-1.22582e-05
-4.88619e-05
-3.23659e-05
-6.39496e-06
-7.37127e-06
-3.43285e-05
4.96526e-05
1.26187e-05
3.01493e-05
5.17675e-05
-4.27435e-05
-1.89356e-05
-7.8617e-06
-1.46167e-05
6.31793e-05
0.000141725
2.71408e-05
4.17638e-05
5.43808e-06
-2.44699e-05
1.68595e-05
9.52555e-06
-1.56717e-05
-4.7961e-05
-7.16956e-06
-5.0029e-07
7.6944e-05
-6.00144e-06
-7.39689e-05
-3.11077e-05
3.1872e-06
-7.64106e-06
4.3618e-05
3.41687e-05
-1.07152e-05
-7.91176e-06
-5.20405e-05
-3.20479e-05
3.69194e-05
4.6787e-05
4.8992e-05
-4.51638e-05
3.63412e-06
-3.05958e-05
-2.11433e-05
-3.36215e-05
-3.96121e-05
8.40685e-05
5.461e-05
4.93556e-05
9.86468e-06
3.12921e-06
2.5256e-05
2.56571e-05
-2.65689e-05
3.0679e-05
5.52309e-05
3.3122e-05
2.782e-05
-6.49956e-05
-9.08678e-05
-6.73241e-05
-3.49068e-05
-1.71971e-06
5.29427e-05
8.51987e-05
1.06158e-05
7.97488e-06
-6.01768e-05
-2.28908e-05
-5.19795e-05
3.953e-05
2.03676e-05
-3.35857e-05
-3.30849e-05
4.13181e-05
4.39755e-05
3.81053e-05
-3.98862e-05
-2.17851e-05
-5.32867e-05
3.17573e-05
6.9387e-05
-5.81138e-05
-3.20876e-05
7.25771e-05
-7.39977e-06
-4.84614e-05
1.77895e-05
4.60455e-06
3.86021e-05
-1.81919e-05
-2.41931e-05
-4.69294e-05
-1.17459e-06
-9.94103e-06
-1.08429e-05
2.16651e-05
5.5175e-05
7.31532e-05
3.1959e-05
3.23028e-06
6.47264e-05
1.48791e-05
2.7486e-05
-4.02122e-05
-9.67839e-05
-2.88407e-05
-2.05601e-05
-2.19477e-05
-4.80919e-07
2.09658e-05
3.37611e-05
-7.21036e-05
-9.17351e-05
4.17756e-05
-2.57229e-05
-4.64116e-05
-7.84907e-06
6.31685e-05
0.000152488
0.000141364
7.08846e-05
7.95708e-05
1.3046e-05
-5.96304e-05
3.38613e-05
6.58643e-05
5.26471e-05
-8.49968e-06
-4.07536e-05
-1.36272e-05
-9.68892e-05
-6.68182e-05
-4.65443e-05
-8.6674e-05
-9.61233e-05
-0.000218873
-0.000186458
-0.000274853
-0.000485093
-0.000730349
-0.00127662
-0.00186742
-0.00318363
-0.00458269
-0.00785292
-0.0116157
-0.0195248
-0.0281306
-0.0482553
-0.0707673
-0.118119
-0.170079
-0.293548
-0.426376
-0.690993
-1.00301
-1.76382
-2.44852
-3.97312
-6.2543
-11.0136
-15.7996
-30.094
-47.0609
-83.3233
-138.915
-208.165