/*--------------------------------*- C++ -*----------------------------------*\
| =========                 |                                                 |
| \\      /  F ield         | OpenFOAM: The Open Source CFD Toolbox           |
|  \\    /   O peration     | Version:  2412                                  |
|   \\  /    A nd           | Website:  www.openfoam.com                      |
|    \\/     M anipulation  |                                                 |
\*---------------------------------------------------------------------------*/
FoamFile
{
    version     2.0;
    format      ascii;
    arch        "LSB;label=32;scalar=64";
    class       volScalarField;
    location    "0.0045";
    object      ddt0(thermo:psi,p);
}
// * * * * * * * * * * * * * * * * * * * * * * * * * * * * * * * * * * * * * //

dimensions      [1 -3 -1 0 0 0 0];

internalField   nonuniform List<scalar> 
180000
(
1.70473e-12
1.09793e-11
1.86131e-10
-3.22754e-12
-7.90553e-11
-3.26961e-11
1.10133e-10
-8.99149e-12
1.85409e-11
5.46006e-11
3.58228e-11
4.23624e-11
1.79749e-10
1.26036e-10
-1.0111e-10
-9.46427e-12
-6.36095e-11
-2.14319e-10
-9.51221e-11
6.35732e-11
-1.84269e-10
-1.93269e-10
1.42825e-10
-4.24985e-11
6.76169e-12
-8.08564e-11
1.88357e-12
-1.42045e-10
-1.81585e-10
-1.05338e-10
-1.67637e-11
1.30411e-10
-4.31966e-11
-1.07444e-10
5.09747e-12
2.50034e-11
-4.96301e-11
1.59951e-10
2.92502e-11
-1.39669e-11
3.41972e-11
-5.25723e-11
5.1479e-11
2.27203e-10
5.81537e-12
-9.26177e-11
-7.19605e-11
3.70031e-11
1.30253e-10
-2.14173e-11
2.77909e-11
-7.18891e-11
-3.06909e-10
2.21908e-11
-3.27347e-11
1.27913e-10
-9.38361e-11
-1.27095e-10
-6.5002e-11
6.05631e-11
-4.85756e-11
-8.50097e-11
3.22268e-10
1.75274e-10
-1.03004e-10
-9.59159e-11
7.07e-11
-1.19857e-10
1.53622e-10
-2.31028e-10
1.04594e-10
3.56351e-11
9.04721e-11
-6.66032e-11
-1.52242e-11
-9.6833e-11
-8.36609e-11
5.57798e-11
-2.10679e-10
-5.54371e-11
-5.59132e-11
-1.98562e-10
-6.37265e-12
-6.24616e-11
-1.60331e-10
-9.21931e-11
-1.3423e-10
-1.39317e-10
-1.76094e-10
5.42624e-11
-8.66238e-11
-3.00196e-11
-1.45211e-10
-7.89136e-11
5.71596e-11
7.3833e-11
1.91429e-10
9.86199e-11
-3.86039e-11
-9.58025e-12
-1.91004e-11
7.0893e-11
1.10024e-10
2.43312e-11
1.0704e-10
-1.73096e-10
7.61043e-11
1.61941e-10
1.94985e-10
-1.18546e-11
-7.87999e-11
-3.31739e-11
-5.29824e-11
1.33176e-10
-1.32443e-11
-1.11012e-10
-5.76287e-11
-1.08824e-10
1.05611e-10
-6.95817e-13
-2.39326e-10
2.2072e-11
7.00553e-12
9.23484e-11
-1.33062e-10
-6.21761e-11
-5.45952e-11
-6.63952e-11
-8.05448e-11
-1.4044e-10
-2.22575e-10
-1.07528e-10
-5.18924e-11
3.66569e-12
-8.64482e-11
-1.58287e-10
-1.07331e-10
7.77796e-11
-5.27865e-11
-1.81133e-10
-1.32896e-10
-7.55772e-11
-8.11499e-11
-2.46527e-11
3.4186e-11
-7.41968e-11
-4.65463e-11
1.36225e-10
2.68961e-10
1.43231e-10
5.16296e-11
-5.74003e-11
-1.59961e-11
-5.35659e-11
1.8075e-10
-2.33464e-11
-1.078e-10
2.16114e-11
3.14094e-11
2.47204e-10
-1.82158e-10
1.00663e-10
1.76947e-10
-1.17381e-10
-7.74899e-12
1.23554e-10
-7.42094e-11
-7.81863e-11
5.964e-11
1.6635e-10
1.32347e-10
3.56746e-12
5.66344e-11
-4.39196e-11
-4.83443e-11
-1.69679e-10
-1.29546e-10
2.62429e-11
3.49862e-11
-5.23911e-12
2.22612e-11
2.08859e-10
1.2786e-10
-7.75008e-11
2.78027e-10
3.76233e-10
3.67422e-11
-7.79805e-12
1.89206e-10
-1.48745e-10
-2.12994e-11
3.05265e-10
-6.44911e-12
8.54729e-11
1.03196e-10
-2.14905e-10
-1.20606e-11
-1.87016e-11
-1.24492e-10
-6.2047e-11
-2.82337e-11
-6.36355e-11
-2.30558e-10
7.15447e-11
-1.05644e-10
-1.59972e-10
-8.52508e-11
7.94027e-12
3.09336e-11
3.39222e-11
-1.37402e-10
-7.93701e-11
1.58897e-11
5.63276e-11
1.94527e-11
4.52385e-12
-6.34388e-12
2.31854e-10
2.88085e-11
-1.34649e-10
-5.3927e-11
5.8378e-11
1.35239e-10
7.94601e-11
1.49888e-10
-1.73096e-10
5.77945e-11
2.41363e-10
2.82011e-10
1.64383e-10
1.06777e-10
2.3462e-10
-7.06513e-11
-1.35227e-10
1.30044e-10
2.24211e-10
1.8774e-10
5.24054e-11
-5.83899e-11
7.51973e-11
-1.33417e-11
8.24504e-11
6.36564e-11
4.14422e-11
-8.8613e-12
1.20391e-10
6.52488e-11
-9.45396e-11
2.13586e-11
1.37411e-10
4.50412e-11
7.12786e-11
-5.36445e-11
-2.97227e-11
2.67413e-10
2.80779e-10
3.41752e-10
5.51738e-10
1.11259e-09
1.57315e-09
2.57052e-09
4.00416e-09
6.23484e-09
9.84983e-09
1.55064e-08
2.45021e-08
3.88282e-08
6.1397e-08
9.72495e-08
1.53915e-07
2.43413e-07
3.85846e-07
6.10908e-07
9.68766e-07
1.53381e-06
2.43303e-06
3.85636e-06
6.11514e-06
9.68993e-06
1.53669e-05
2.43385e-05
3.85394e-05
6.09065e-05
9.62824e-05
0.000151825
0.000239123
0.000376469
0.000596326
0.000944069
0.00151216
0.00244853
0.00401832
0.00659927
0.0110306
0.0183127
0.0308914
0.0514477
0.0879922
0.13861
0.225612
-1.86072e-11
-8.89288e-11
1.06563e-10
5.51268e-11
-4.22957e-11
2.562e-11
2.40406e-11
-2.53997e-11
-9.95469e-11
-8.74779e-11
-1.29368e-10
9.15123e-11
1.93407e-10
-6.52592e-11
6.70479e-11
-8.44637e-11
4.5923e-11
3.14807e-11
1.60656e-10
5.43784e-11
1.34101e-10
6.61597e-11
-1.04863e-10
1.10678e-10
2.3549e-11
3.39509e-11
9.00495e-11
-3.03792e-11
-1.4865e-10
1.89194e-10
-9.94957e-11
-7.29452e-11
4.00146e-11
-3.53112e-11
-1.34773e-10
-4.84733e-11
-1.48152e-10
-1.99591e-10
-1.37473e-10
-5.03744e-11
-1.72121e-11
3.08626e-11
3.09132e-11
9.12036e-11
7.8265e-11
-4.89489e-11
1.23764e-10
3.38458e-11
-3.82192e-11
1.00271e-10
-2.0317e-10
-1.38252e-10
6.71008e-11
1.77913e-11
1.22823e-10
-2.51852e-10
-6.62294e-11
-4.22979e-12
-1.13771e-10
7.64564e-13
5.50326e-11
2.41766e-10
-9.03019e-11
-5.71971e-11
1.47305e-12
-4.41197e-12
-1.00591e-10
-3.03661e-11
1.55038e-10
1.7943e-10
-1.00274e-10
2.31065e-11
-5.44877e-11
-1.96109e-10
-1.53794e-11
1.39808e-10
-2.53894e-11
7.67758e-11
-1.30153e-10
-6.72921e-11
2.53788e-10
9.70211e-11
-1.08068e-10
-8.61663e-11
-4.0067e-11
-1.55981e-10
-4.39841e-11
-1.401e-10
2.54433e-11
6.04162e-11
8.86382e-11
-1.56112e-10
1.69148e-11
-7.19644e-11
1.06373e-10
1.20855e-10
1.06113e-10
-4.30205e-11
-4.01188e-11
-1.18825e-10
4.74651e-11
1.17798e-10
1.33184e-10
-1.54794e-10
9.33311e-11
3.20746e-11
-2.08516e-10
-1.04019e-10
-5.75691e-11
-8.47471e-12
6.50525e-11
1.59949e-10
9.86544e-11
-1.28959e-10
9.89528e-11
5.405e-11
1.0373e-10
2.076e-11
-6.08226e-11
1.12463e-10
7.22895e-11
1.83886e-10
-2.60621e-11
2.00004e-14
1.24189e-10
-3.66701e-12
-5.83196e-11
2.71385e-11
-8.5898e-11
-3.56301e-11
-1.74927e-11
-1.25204e-10
-8.62094e-11
9.39793e-11
-1.20771e-10
6.52951e-11
-5.12079e-11
-4.96003e-11
4.59349e-11
-2.21273e-10
-6.58749e-11
-4.14368e-11
-1.19327e-10
-2.82166e-10
-2.17147e-10
-1.90531e-10
-1.07064e-10
-1.75154e-10
-2.41268e-11
2.69013e-11
-1.49552e-10
-9.8052e-11
1.01438e-11
-1.72394e-11
-1.34647e-11
-1.37129e-10
5.1518e-11
7.71366e-11
9.84994e-12
1.29622e-10
1.22782e-10
3.13255e-11
6.27918e-11
-1.70422e-11
-5.52507e-11
-2.45096e-11
3.38883e-10
1.32866e-10
-2.95927e-11
-7.56435e-11
8.53417e-11
1.07496e-10
3.30264e-10
2.08514e-10
3.049e-10
2.48975e-12
2.20178e-10
7.40237e-11
6.7346e-11
2.29381e-10
6.65215e-11
6.53168e-12
-4.76452e-11
7.97905e-11
7.24221e-11
1.12842e-10
-1.08348e-11
3.97998e-12
2.12412e-10
-1.40103e-11
3.50017e-10
2.38717e-11
7.75032e-11
1.88701e-10
-1.25817e-11
-3.57218e-12
-1.80474e-10
1.09824e-10
6.56266e-11
-4.27136e-11
-1.2643e-10
1.29438e-10
1.08279e-10
6.38119e-11
7.36156e-11
-2.27881e-10
-4.50582e-11
-8.4125e-11
1.33405e-10
5.95286e-11
-1.20173e-10
-1.05981e-10
-1.57513e-10
1.38358e-10
-2.40277e-10
-1.2932e-10
-9.51099e-11
-1.36597e-10
8.86444e-11
1.49659e-10
-6.8028e-11
2.24008e-10
2.45659e-11
-1.90092e-10
3.22422e-11
-2.84983e-11
-2.20992e-10
1.1671e-10
2.59202e-11
-2.18432e-10
-1.20691e-10
6.89888e-11
6.43984e-11
5.17613e-11
-7.0361e-11
7.78249e-11
-5.63587e-11
-1.104e-10
-5.41998e-11
9.36072e-11
2.5014e-11
1.37305e-10
7.10233e-11
7.91861e-12
-4.10644e-11
1.54528e-10
2.88252e-10
-1.25096e-10
2.60379e-11
2.34167e-10
-1.04868e-11
2.26499e-11
3.33756e-11
1.95951e-10
2.65226e-10
3.59711e-10
3.68816e-10
6.43114e-10
8.7384e-10
1.55245e-09
2.48384e-09
3.94678e-09
6.03457e-09
9.33573e-09
1.48977e-08
2.35404e-08
3.71531e-08
5.90208e-08
9.31345e-08
1.47504e-07
2.33394e-07
3.69593e-07
5.84991e-07
9.26508e-07
1.46576e-06
2.32183e-06
3.67641e-06
5.82593e-06
9.21933e-06
1.46049e-05
2.31113e-05
3.65836e-05
5.77735e-05
9.12647e-05
0.000143932
0.000226788
0.000356138
0.000562147
0.000886434
0.0014051
0.00224251
0.00363542
0.00588675
0.00972124
0.0160806
0.026969
0.0448912
0.0771423
0.122896
0.199367
-2.00988e-11
3.16105e-11
3.09026e-11
1.21501e-10
-2.15594e-10
-2.233e-11
8.97111e-11
1.5302e-11
-9.93007e-11
1.51111e-10
4.39427e-11
-1.53669e-10
3.4449e-11
3.5353e-11
-2.17456e-10
3.21448e-11
-5.01608e-11
-1.17419e-10
-9.45123e-11
-3.26852e-11
7.54115e-11
-1.07245e-11
-5.50025e-11
-4.14514e-12
1.16495e-10
3.93197e-11
-6.37693e-11
4.67762e-11
-8.14892e-11
9.92708e-11
-4.50132e-11
4.74119e-11
9.93898e-11
-8.70637e-11
9.01102e-11
-1.09765e-10
1.18502e-11
-2.76787e-11
-5.89935e-11
-3.14253e-12
-8.90561e-11
-8.29702e-11
-9.64857e-11
1.70103e-12
-2.91035e-11
-2.16869e-10
1.00757e-10
5.63219e-11
-1.5773e-10
3.42589e-11
-3.11178e-11
5.50345e-11
2.01254e-11
1.2477e-10
-3.22527e-10
1.9958e-10
3.19592e-10
-7.92742e-11
-4.39078e-11
6.19248e-11
1.89311e-10
-9.93085e-11
1.34805e-10
-4.48453e-11
-1.10926e-10
7.89022e-11
1.39419e-11
-2.75215e-11
9.72889e-11
-9.98913e-11
-6.31676e-11
7.37201e-11
-1.0031e-11
8.13832e-11
1.67339e-10
1.59381e-11
1.53748e-10
1.60823e-10
-1.73803e-10
1.1606e-10
1.50805e-10
2.04637e-10
1.59307e-10
1.76176e-10
8.25503e-11
1.15453e-10
1.1509e-10
1.94655e-10
-5.2147e-12
-1.16531e-10
8.76837e-11
2.04244e-10
1.15068e-10
3.94748e-11
9.60865e-12
-1.03126e-10
-2.43598e-10
-3.67132e-11
1.09943e-10
8.49211e-12
-2.34428e-10
-1.10316e-10
-1.75984e-11
-4.3522e-11
1.56321e-11
1.63667e-10
1.1445e-10
1.27805e-10
9.60465e-11
-5.365e-11
-1.77446e-11
1.68965e-10
9.92366e-11
2.35352e-11
1.42823e-10
2.74318e-11
-1.36125e-10
1.0172e-11
1.54956e-11
-3.7354e-11
1.08211e-10
1.02248e-10
-2.13482e-12
8.6944e-11
7.49367e-11
9.87687e-11
-7.52312e-11
-9.75177e-11
-2.72808e-10
1.15619e-10
4.24667e-11
3.16907e-11
-2.63077e-10
7.28731e-11
1.8394e-11
3.07462e-11
1.26628e-10
4.91944e-11
1.22551e-11
-3.97705e-11
-1.03213e-10
-1.83977e-11
7.4439e-11
1.26421e-10
6.54971e-11
-1.32073e-10
-2.93377e-11
2.90772e-11
-1.60376e-10
-7.28242e-11
-5.85228e-11
1.83513e-11
-6.58772e-11
-1.99573e-12
1.39293e-11
8.36807e-11
-8.22572e-11
4.81346e-11
3.80029e-11
5.71096e-11
1.83107e-10
-6.13009e-11
-1.93462e-10
-3.35256e-11
1.75243e-10
1.90074e-11
-9.47452e-11
1.25666e-10
9.1014e-11
1.33807e-10
5.63534e-11
6.00151e-11
1.28092e-10
7.65022e-11
2.41116e-10
1.34386e-10
9.51768e-11
1.47213e-11
4.47219e-11
1.94076e-10
5.11843e-11
1.04356e-10
-1.1921e-12
-6.87705e-11
1.20179e-10
1.90197e-11
-3.20409e-11
-3.10602e-11
9.11301e-11
-9.27731e-11
-1.49503e-10
-1.18877e-10
3.51461e-11
2.1366e-10
-1.22903e-12
4.2805e-11
6.04223e-11
5.87241e-11
-1.73858e-10
-5.99966e-11
2.54247e-10
1.83114e-10
-1.55405e-10
-6.22755e-11
1.25109e-10
1.84644e-11
-8.28954e-11
1.04553e-10
1.89539e-11
-7.33422e-11
-3.35177e-11
-1.26359e-10
-8.05161e-11
-1.39875e-10
-7.93365e-11
-4.99252e-11
-1.56376e-10
-9.00574e-11
9.8533e-11
-1.15686e-10
-1.22061e-10
-8.46218e-11
-1.56317e-10
-1.77141e-10
1.4174e-10
1.42415e-10
1.06548e-10
1.79421e-10
1.5183e-10
7.71926e-11
-7.16402e-11
-6.01331e-11
1.1613e-10
1.656e-10
-6.99499e-13
6.84923e-11
7.48391e-11
2.17851e-12
1.77315e-10
-4.02071e-11
-1.024e-11
-3.7993e-11
2.98633e-11
1.40782e-11
1.8741e-10
9.04885e-11
2.25216e-10
3.18755e-10
1.35083e-10
2.90637e-10
1.93469e-10
1.77748e-10
1.61884e-10
-4.5358e-11
1.27108e-10
1.37064e-10
3.61687e-10
4.07379e-10
8.63286e-10
1.30805e-09
2.27426e-09
3.50633e-09
5.6387e-09
8.72021e-09
1.38673e-08
2.18848e-08
3.45664e-08
5.46957e-08
8.63283e-08
1.36642e-07
2.15536e-07
3.40807e-07
5.3788e-07
8.51021e-07
1.34449e-06
2.12642e-06
3.36033e-06
5.31701e-06
8.39933e-06
1.32811e-05
2.09788e-05
3.31754e-05
5.23147e-05
8.25003e-05
0.000129999
0.00020476
0.000320697
0.000504235
0.000791992
0.00124413
0.00196012
0.00313703
0.00500862
0.00817012
0.0134865
0.0225688
0.037607
0.065152
0.103365
0.168395
7.20412e-11
4.92543e-11
-7.53276e-11
-2.80554e-11
1.10573e-10
3.45068e-11
6.58636e-11
-1.04489e-10
4.35744e-11
1.34946e-10
-1.62892e-12
2.34069e-10
9.64227e-11
3.70154e-11
-1.12373e-11
6.81201e-11
-5.53051e-12
-7.83497e-12
2.66561e-10
-1.44274e-11
-8.34113e-11
-8.33021e-11
-4.03218e-12
-1.09546e-10
1.42493e-11
-8.03761e-12
-1.31226e-10
2.23459e-11
-1.1002e-10
-6.18018e-11
2.71782e-10
-9.88614e-11
4.07424e-11
6.99402e-11
1.09739e-10
4.21689e-11
-3.03802e-11
-1.44686e-10
-5.49998e-11
9.42598e-11
2.58478e-10
1.74744e-10
-9.62347e-11
-3.37238e-11
4.73592e-11
-5.72139e-11
8.89007e-11
-8.20617e-11
-1.15364e-10
3.20171e-11
-6.75369e-11
-5.85042e-11
1.02058e-10
5.24384e-11
-2.81201e-11
-2.26392e-11
5.86389e-11
2.69979e-10
-7.37145e-11
-5.18402e-11
-4.0867e-11
3.87372e-11
-3.39192e-11
-3.3121e-11
1.12901e-11
2.82256e-10
2.83224e-10
2.94691e-11
1.1806e-11
-1.59216e-10
-2.73723e-11
1.39018e-10
1.20667e-10
-1.84398e-11
-1.06164e-10
-5.05294e-11
-1.14282e-10
9.3427e-11
1.11829e-10
9.46565e-11
-5.56817e-12
-7.72253e-11
6.06838e-11
-9.83418e-11
2.03722e-10
6.63354e-11
1.06981e-10
-8.39436e-12
-6.83461e-11
-1.3351e-10
4.61975e-11
2.42543e-11
-1.57954e-10
1.56196e-10
5.09031e-11
6.26677e-12
-5.84605e-11
5.03649e-12
9.15416e-11
2.3929e-10
4.30793e-11
-3.98913e-11
1.38609e-10
-5.16287e-11
4.25198e-11
9.3649e-11
2.09735e-10
6.38334e-11
1.78965e-10
-3.39337e-11
8.76992e-11
-7.64336e-11
-9.06286e-11
2.70086e-12
1.85795e-11
-2.93622e-11
-1.3257e-11
-3.28869e-11
5.23219e-11
1.33955e-11
2.48946e-11
-6.52193e-11
-7.06014e-11
2.69287e-11
4.11529e-11
2.74479e-10
6.82179e-11
-1.20224e-10
1.70242e-12
5.74129e-11
-4.61103e-12
4.66229e-11
-1.76436e-10
1.02804e-10
5.69887e-11
-5.60293e-11
4.0016e-12
-7.00462e-11
5.99275e-11
5.06955e-11
-2.08902e-11
1.23547e-10
-1.29547e-10
-1.94689e-10
-8.44388e-11
-2.42554e-10
1.85719e-11
-1.03883e-10
-2.31262e-10
1.01459e-11
-3.43248e-11
2.37086e-11
-6.06059e-11
-7.27229e-12
7.70307e-11
-7.7906e-11
-1.02789e-10
-8.3503e-11
-1.50494e-10
-1.5876e-10
-2.12575e-11
-1.49725e-13
-2.12192e-10
-5.0399e-11
-4.79234e-12
-3.83992e-11
1.04873e-10
1.69319e-10
-3.55229e-11
3.7746e-11
3.10263e-11
1.37714e-10
-5.11861e-11
3.08778e-10
1.84089e-10
-1.00432e-10
1.59883e-11
8.34237e-11
8.89741e-11
3.10576e-11
7.03406e-11
-4.80094e-12
2.87892e-11
4.51952e-11
1.02893e-10
-7.41876e-11
-1.25941e-10
4.0898e-11
-3.41658e-11
2.87441e-11
1.26588e-10
6.13506e-11
-1.20221e-10
9.89764e-11
7.68547e-11
3.27168e-11
-7.89843e-11
-5.28803e-11
2.07297e-11
-2.97451e-11
7.81159e-11
-8.14634e-11
-1.48932e-10
2.42092e-11
1.36011e-10
-1.29454e-10
-7.25928e-11
1.02636e-10
-1.54899e-11
2.79329e-11
7.42877e-11
-1.57066e-11
2.35528e-10
1.39539e-10
-1.40678e-11
1.13872e-11
1.37838e-10
-1.57694e-10
5.23648e-11
-6.31216e-11
-1.8551e-10
-1.11923e-10
9.52783e-11
4.27495e-11
-2.29705e-11
-1.34441e-11
-8.61478e-11
-1.53481e-10
-4.70832e-11
1.21975e-10
-5.35186e-11
-8.04389e-11
5.29921e-11
1.04019e-10
7.08489e-11
1.24824e-10
4.47604e-11
-4.02725e-11
3.51892e-11
9.61336e-11
7.4423e-11
1.37552e-10
1.48665e-10
1.22123e-10
2.34502e-10
5.38072e-11
-7.31984e-11
2.81041e-10
1.93929e-10
-4.31393e-13
2.84594e-11
6.44716e-11
1.76195e-10
2.71947e-10
6.4285e-12
1.50545e-10
2.07301e-10
3.7641e-10
7.60389e-10
1.29507e-09
2.07615e-09
3.18919e-09
4.81512e-09
8.02409e-09
1.2265e-08
1.95676e-08
3.11103e-08
4.89758e-08
7.73895e-08
1.21656e-07
1.92186e-07
3.03445e-07
4.7785e-07
7.54569e-07
1.18987e-06
1.87766e-06
2.95963e-06
4.67484e-06
7.36926e-06
1.16266e-05
1.8322e-05
2.89264e-05
4.55365e-05
7.16616e-05
0.000112713
0.0001774
0.000277244
0.00043419
0.000679512
0.00106062
0.00165268
0.00261387
0.00412066
0.00662993
0.010882
0.018172
0.0303094
0.0530396
0.0847285
0.138053
-1.73244e-11
3.80959e-11
-9.10354e-11
-6.42487e-12
6.22024e-11
-1.42162e-11
2.80379e-11
1.21697e-10
7.18759e-11
-1.25072e-10
1.03412e-10
1.52518e-10
6.18516e-11
-1.68246e-10
3.84632e-11
1.20533e-11
-4.18514e-11
-5.24786e-11
7.42975e-11
1.70798e-10
-5.07223e-11
1.60359e-10
1.4539e-10
9.14091e-11
-1.00482e-10
-1.94139e-10
8.25111e-11
1.47993e-10
1.36646e-11
5.53765e-11
9.98024e-11
-1.98473e-10
9.18469e-11
2.60288e-10
2.2276e-10
-1.46638e-10
1.56561e-10
1.83983e-10
6.82182e-12
5.70948e-12
4.48892e-11
-3.34827e-11
-5.68596e-11
1.31645e-10
-2.18334e-10
4.62517e-11
-1.47959e-10
-8.82519e-11
-2.136e-10
-1.38473e-10
1.66245e-10
-6.38416e-11
2.62774e-11
-7.21153e-11
-1.03326e-10
2.10465e-11
-3.11354e-10
2.8241e-11
-2.06612e-10
5.0137e-11
2.33037e-10
-1.17644e-10
4.31151e-13
-4.15926e-11
-6.85473e-11
-2.3081e-11
3.05745e-11
1.72109e-10
5.47759e-11
-1.27951e-10
-6.79737e-11
-8.6075e-11
-4.72581e-11
4.04329e-11
5.40835e-12
-1.92793e-11
3.35784e-11
5.22562e-11
1.72212e-10
2.13121e-10
1.9475e-10
1.00196e-11
3.45988e-11
9.28721e-11
1.02959e-10
-7.74025e-11
-6.92031e-12
7.67665e-11
-1.78404e-11
6.31961e-11
1.41454e-10
-4.2836e-12
7.78214e-12
1.44392e-10
5.33973e-11
2.6106e-11
-1.3245e-10
4.32649e-11
1.78196e-10
1.18624e-10
-2.7581e-11
-1.24167e-10
-2.82601e-10
-1.37578e-10
1.09721e-10
-2.17962e-10
-1.39986e-10
5.73239e-11
-1.26438e-10
4.37654e-11
-9.41429e-11
-2.50462e-10
-7.83559e-11
-2.10131e-10
-4.72625e-11
1.53694e-11
-1.15142e-10
-1.73382e-10
-7.7984e-11
-1.34311e-10
-1.31262e-10
-2.46069e-10
-2.70869e-10
1.81389e-11
3.04456e-11
1.58023e-12
-2.33813e-10
-1.04683e-11
-2.35167e-10
7.08903e-11
-5.03318e-11
-4.64117e-11
2.84982e-11
9.42564e-11
3.85339e-11
-8.72568e-13
-6.30965e-11
3.75302e-11
1.51726e-11
2.60454e-11
1.75369e-10
4.53604e-11
9.67376e-12
2.15704e-10
1.01828e-12
4.44937e-11
-9.07252e-11
2.39512e-11
1.28572e-10
1.91218e-11
-1.521e-10
-1.32075e-10
-6.72893e-11
1.09525e-10
1.40023e-10
2.55488e-11
1.24574e-10
1.6222e-10
1.55823e-10
3.74688e-11
-1.09467e-11
-5.84578e-11
-5.49903e-11
2.62455e-11
8.52175e-11
7.71155e-11
-7.86087e-11
-1.29379e-10
-2.16206e-11
1.00009e-10
8.71813e-12
-1.28274e-10
1.12764e-10
1.80889e-11
6.17748e-11
-7.12137e-11
-1.19594e-10
-5.95009e-11
-1.56489e-10
2.79395e-10
2.45147e-11
-4.93956e-11
-5.81705e-11
-6.04821e-11
1.07641e-10
8.88017e-12
-5.10162e-11
4.78446e-12
2.29042e-10
1.94376e-10
7.03249e-11
2.69757e-10
8.35985e-11
4.21435e-12
2.73278e-10
1.69697e-10
5.46324e-12
-6.77352e-13
-2.31236e-11
1.13788e-10
-1.21183e-10
1.01213e-11
-7.93725e-11
7.98379e-11
2.86574e-10
-1.75523e-11
-1.62146e-10
-1.34688e-10
-2.43267e-10
-2.03586e-11
3.83724e-11
2.64977e-12
1.44769e-11
1.07928e-10
-2.95063e-11
5.19564e-11
-7.46201e-11
-8.08619e-11
9.13915e-11
-7.51412e-11
-2.10865e-11
-9.69655e-11
2.87835e-11
1.98609e-10
-7.10145e-11
-9.85866e-11
-6.11495e-11
1.75907e-10
2.23618e-10
1.30042e-10
1.66658e-10
6.34392e-11
-8.89311e-11
7.46889e-11
-1.52146e-12
1.66188e-10
5.29434e-11
2.17594e-10
5.01036e-11
-1.99871e-10
9.58618e-11
1.10418e-10
-7.6082e-11
1.86434e-11
1.28374e-10
1.69466e-10
4.42544e-11
6.59035e-11
1.25483e-10
6.24458e-11
-6.68086e-11
-1.15722e-10
-9.00589e-11
-7.61622e-11
-5.06817e-11
2.83209e-10
1.97255e-10
4.05424e-10
6.14953e-10
9.12917e-10
1.76435e-09
2.78044e-09
4.41151e-09
6.98448e-09
1.11416e-08
1.74251e-08
2.69368e-08
4.26324e-08
6.7182e-08
1.05856e-07
1.66622e-07
2.62534e-07
4.12541e-07
6.49978e-07
1.02322e-06
1.61138e-06
2.534e-06
3.99374e-06
6.28253e-06
9.89079e-06
1.55485e-05
2.45029e-05
3.85044e-05
6.04696e-05
9.49178e-05
0.000149242
0.000232852
0.000363481
0.00056728
0.000881662
0.00136304
0.00213558
0.00333403
0.00529929
0.00864058
0.0143732
0.0239026
0.0420645
0.0675612
0.109923
1.54174e-11
-3.47487e-11
1.08745e-10
-1.08954e-10
-4.19627e-11
-1.04968e-10
-5.75681e-11
-4.75639e-11
3.16156e-11
3.35645e-13
-1.27015e-10
3.33435e-11
-4.95301e-11
-3.94837e-11
-2.23171e-10
-4.66763e-11
1.63567e-10
1.59156e-10
1.06012e-11
2.42551e-11
-1.4175e-11
-6.18704e-11
6.39256e-11
-1.06316e-11
9.64329e-11
7.84877e-11
-7.26986e-11
-3.4592e-11
2.05242e-11
-7.8427e-11
-2.53331e-11
-1.33352e-10
-3.53987e-11
3.78013e-11
-1.21082e-10
-1.9475e-10
-2.39409e-11
8.51959e-11
-1.85338e-10
2.18447e-10
1.71646e-11
4.08049e-12
-2.79633e-11
-8.72754e-11
-9.88448e-11
1.54185e-10
-1.83567e-11
6.35097e-11
3.9585e-11
-1.33704e-10
9.43734e-11
7.954e-11
-2.2816e-10
-1.46402e-10
-3.32866e-11
5.21804e-11
5.39546e-11
3.51555e-10
2.35725e-10
1.37878e-10
5.86691e-11
1.29644e-10
1.63925e-11
-1.16834e-10
-7.97814e-11
-9.87268e-11
5.43692e-11
-7.66487e-12
-1.32558e-10
4.55785e-11
1.18304e-10
2.886e-11
3.74982e-11
-1.43815e-11
1.32787e-11
2.78735e-11
6.4261e-11
-3.71689e-11
-1.67095e-10
-3.58475e-11
3.85196e-11
-2.36187e-10
-2.27703e-10
6.29403e-11
-2.04174e-10
-6.71819e-11
-1.95873e-10
-1.52958e-10
9.8996e-11
-2.05912e-11
4.33171e-11
-2.88113e-11
-1.76599e-10
-3.40802e-11
-1.04367e-10
1.40861e-10
1.17406e-10
1.19163e-10
1.45273e-10
1.10453e-10
-1.25495e-11
8.84033e-11
-1.41305e-10
4.28448e-11
2.57623e-10
8.84732e-11
7.26538e-11
-1.04836e-10
-4.09382e-11
1.55348e-10
3.62332e-11
-1.12697e-10
-8.3487e-11
-6.02841e-11
6.57824e-11
-5.72656e-11
-2.56051e-10
-8.6979e-11
5.27451e-11
1.85739e-10
-3.25803e-11
9.39893e-11
-1.40687e-10
-1.67622e-10
4.49639e-11
-1.45082e-10
1.27331e-12
5.16309e-11
-1.50814e-10
4.25758e-11
1.45075e-10
-4.06476e-12
-1.39521e-11
2.01223e-10
-4.34292e-11
3.15536e-11
2.2346e-11
-7.33016e-11
-1.47003e-10
1.32389e-10
1.93703e-10
-5.93431e-11
3.76407e-11
4.69291e-11
8.3539e-11
1.98298e-10
8.82755e-11
9.79282e-11
1.34843e-11
-1.26512e-11
9.91699e-11
8.63504e-11
-2.23722e-11
-6.95142e-11
1.35895e-11
1.98288e-10
-1.63257e-11
-5.3189e-11
-1.04709e-10
-1.99238e-10
2.01782e-10
-1.20119e-10
1.96501e-10
-6.68911e-11
-1.96178e-10
8.60042e-12
-4.13694e-11
1.10926e-10
-2.06812e-10
-1.24347e-10
1.23472e-10
1.54957e-11
-1.71521e-10
-6.98536e-11
3.80654e-11
1.24891e-10
1.42575e-10
-8.93918e-11
8.98172e-11
-6.86742e-11
1.21298e-10
3.96895e-11
3.03603e-12
-1.33162e-10
1.23324e-11
-6.04411e-11
3.7113e-11
6.7665e-11
-6.64643e-11
9.59107e-11
1.29693e-11
-2.51676e-10
8.54162e-11
1.17041e-10
-2.15e-10
-4.08663e-11
1.804e-10
8.4318e-11
-8.63482e-11
-2.29544e-10
7.61217e-11
2.04158e-10
2.22976e-11
5.87467e-11
1.18402e-10
-5.52775e-11
5.53572e-11
5.55138e-12
-1.11205e-10
-1.04761e-10
1.70732e-11
9.18549e-11
2.1168e-11
7.46831e-11
-1.52787e-10
3.75203e-12
-6.79893e-11
-1.43516e-10
-2.6274e-11
6.37614e-11
-3.25718e-11
-2.22828e-11
-6.872e-11
-7.89503e-11
-2.39351e-11
-2.0016e-10
5.51611e-11
7.99742e-11
-2.12155e-10
-4.57412e-11
6.09778e-11
-8.38312e-11
-1.90513e-10
2.16033e-10
5.1072e-11
7.36739e-11
1.06712e-10
-8.70022e-11
-4.87135e-11
9.31351e-11
3.73746e-11
-9.90922e-12
-1.1296e-11
1.25287e-10
2.09788e-10
1.38906e-10
2.80679e-11
-7.95574e-11
1.66523e-10
2.37489e-10
2.58363e-11
1.55411e-10
9.50939e-11
1.5029e-10
-3.1796e-13
9.09384e-11
1.42855e-10
6.30802e-10
7.41305e-10
7.64777e-10
1.64208e-09
2.39169e-09
3.83864e-09
5.92751e-09
9.3189e-09
1.48005e-08
2.33452e-08
3.62814e-08
5.70848e-08
8.97948e-08
1.40849e-07
2.21647e-07
3.47632e-07
5.46661e-07
8.58096e-07
1.34891e-06
2.11649e-06
3.32903e-06
5.22565e-06
8.20963e-06
1.28766e-05
2.02543e-05
3.17727e-05
4.98027e-05
7.80235e-05
0.000122546
0.000190941
0.000297331
0.000463059
0.000717696
0.00110353
0.00171728
0.00266188
0.00419215
0.00679457
0.0112638
0.018669
0.0329441
0.0530396
0.0859037
-1.5563e-12
-1.02353e-10
-1.15822e-11
-4.00596e-11
-1.58944e-10
-2.39938e-11
-2.3634e-10
8.71253e-11
7.15391e-11
-3.90841e-10
2.35431e-11
2.5871e-11
1.85031e-11
-1.89628e-11
-1.31146e-10
-1.56085e-11
9.79883e-11
-4.28111e-12
1.20071e-10
2.28309e-10
2.0618e-10
1.01398e-10
1.53481e-11
1.82751e-11
-4.05307e-11
1.216e-10
-4.64087e-11
1.2243e-10
-1.38376e-10
-1.66862e-10
-9.15183e-11
-1.50491e-12
1.04135e-10
-6.22017e-11
-1.84922e-10
-1.13616e-10
-2.92598e-11
-5.34714e-11
8.96814e-11
-2.46579e-10
-3.67794e-10
-7.11921e-11
5.87327e-11
-1.49655e-10
-1.63676e-10
-8.68166e-11
-1.36614e-10
5.68464e-11
7.23823e-11
-5.23542e-11
-4.91905e-11
-1.75708e-11
-2.15602e-11
1.56541e-10
-9.60765e-11
2.5237e-10
-1.55895e-10
-4.6466e-11
9.2115e-11
5.30684e-11
2.34868e-10
1.66915e-11
-6.53415e-11
7.23911e-11
-1.08391e-10
1.22057e-10
-3.69248e-11
9.84591e-11
-8.72111e-11
1.373e-10
8.59282e-11
-4.69213e-11
6.60766e-12
1.2616e-10
5.92026e-11
-1.32684e-10
1.44373e-10
4.60214e-11
-6.29932e-11
-1.49342e-12
-4.96598e-11
3.44605e-11
-7.96e-11
-9.40444e-11
-1.4221e-10
-9.11226e-11
1.43197e-10
-9.74091e-11
-3.01614e-10
5.13273e-11
2.30084e-10
1.09902e-10
9.8102e-12
2.19813e-10
1.18262e-11
-9.93466e-11
4.33081e-11
1.28222e-11
9.7699e-11
7.01491e-11
1.87158e-11
1.32564e-10
-6.82388e-12
-3.09501e-12
-6.87041e-11
-8.67251e-11
-7.55539e-11
1.37348e-10
2.35154e-10
1.33195e-10
-1.53817e-10
3.41656e-11
4.47614e-11
1.62474e-11
-1.0033e-10
1.67571e-10
9.16492e-11
-3.35119e-11
-3.70208e-11
1.08722e-11
7.78429e-11
4.39763e-11
-7.42653e-11
-1.17793e-10
-1.4459e-10
4.0472e-11
1.78131e-10
-3.22618e-11
-1.28458e-10
1.18289e-10
7.61911e-11
1.14388e-10
1.08595e-10
2.34968e-10
1.76543e-10
-1.23036e-11
5.13203e-11
1.49754e-10
-1.16971e-10
-1.86697e-10
-4.49012e-12
1.56222e-10
3.80038e-11
1.32484e-10
-1.21511e-11
-2.21369e-12
-4.40009e-11
-2.22254e-11
-3.73704e-11
1.02646e-10
6.49907e-11
1.10771e-10
-2.89344e-11
-1.15382e-10
-1.55624e-11
6.90163e-11
-1.22367e-10
1.02957e-11
8.42743e-11
-1.89413e-11
-1.02339e-10
-1.50942e-11
-3.00269e-11
1.80123e-10
1.14258e-10
-9.50375e-11
6.26786e-11
1.12614e-10
-7.4236e-11
4.83617e-11
1.28635e-10
6.99921e-11
2.94104e-11
1.35025e-10
1.60399e-10
1.19846e-10
-1.07146e-10
-2.06059e-11
-3.42549e-12
-1.99606e-10
-1.31232e-10
-2.49827e-10
2.1778e-10
2.63517e-11
5.13607e-11
-1.12523e-10
-5.60424e-11
2.16923e-10
7.32075e-11
7.54175e-12
3.52916e-11
1.09005e-10
7.21008e-11
7.66922e-11
-1.22965e-10
-8.81797e-11
-6.67325e-11
7.55041e-11
4.79763e-11
1.71504e-10
1.40124e-10
1.61824e-10
-1.13292e-11
1.01352e-10
1.93753e-11
2.1605e-10
-3.86903e-11
1.66453e-10
1.79091e-10
-3.81046e-11
-1.73101e-11
2.34092e-11
6.42757e-11
1.79951e-10
1.34035e-10
1.00755e-10
-2.95631e-11
1.49084e-10
9.49447e-11
9.55783e-11
-7.73078e-11
-1.10908e-10
6.6244e-11
4.23152e-11
-2.51593e-10
-1.45557e-10
-9.82547e-11
-2.899e-10
2.48517e-11
-5.94114e-11
-6.469e-11
1.1416e-10
1.2732e-10
2.60617e-10
-2.587e-10
-1.54333e-10
7.52592e-12
-9.89974e-11
4.069e-12
1.72841e-10
7.73706e-11
1.81879e-10
-1.60516e-10
1.23011e-10
-1.13633e-10
-1.32353e-11
-2.09691e-12
9.72688e-11
1.60693e-10
1.50157e-10
1.49669e-10
2.98765e-11
4.14242e-11
-4.7454e-11
5.86167e-11
1.57255e-10
1.19192e-10
3.05906e-10
5.51895e-10
6.24157e-10
1.21098e-09
1.98496e-09
3.17708e-09
4.8557e-09
7.82618e-09
1.2256e-08
1.93777e-08
3.04013e-08
4.76321e-08
7.4601e-08
1.16931e-07
1.83492e-07
2.87449e-07
4.51101e-07
7.07078e-07
1.10933e-06
1.73692e-06
2.72684e-06
4.27244e-06
6.69999e-06
1.04876e-05
1.64686e-05
2.57927e-05
4.03619e-05
6.31252e-05
9.90408e-05
0.000154149
0.000239586
0.000372547
0.00057635
0.000883045
0.00136753
0.00210961
0.00330014
0.00532542
0.00880335
0.0145374
0.0256741
0.0413542
0.0665952
1.12333e-11
1.98305e-12
2.60831e-11
9.33132e-11
1.88142e-10
3.00023e-11
-3.04149e-11
3.10856e-11
-1.99465e-10
1.06377e-10
-1.0553e-10
-1.17454e-11
1.36299e-10
1.8783e-11
-2.48223e-11
8.50841e-11
-1.63287e-12
1.94448e-11
-4.39622e-11
1.05858e-10
7.95477e-11
-1.40136e-10
2.57784e-11
9.53222e-11
-3.68794e-11
7.61364e-11
-8.47761e-11
7.12043e-11
-9.5558e-11
5.42313e-11
8.13e-11
-9.84779e-12
-3.92017e-11
1.75395e-11
3.48997e-11
9.57284e-11
2.50052e-11
9.88207e-11
-2.90369e-11
8.59384e-12
1.84817e-10
-2.68381e-10
1.46475e-11
1.06916e-11
6.25894e-11
2.73107e-11
3.35721e-11
3.21313e-10
5.87517e-11
-6.13453e-11
-7.73027e-11
3.41307e-11
-1.38511e-10
2.73369e-10
-7.99102e-11
-1.10086e-10
-1.54559e-10
-1.36939e-10
-5.96018e-11
-1.00768e-10
-3.01071e-11
1.07896e-11
-6.09871e-11
4.92327e-11
-4.70644e-11
-7.21205e-11
9.80546e-13
-7.51728e-11
6.3146e-11
-2.44971e-10
-2.04394e-10
-4.74344e-12
4.8868e-12
-2.63648e-10
-8.1342e-11
-4.33558e-11
1.60586e-10
-1.39526e-10
-4.96497e-11
1.85328e-11
-7.9359e-11
-7.54385e-11
1.53591e-10
1.42475e-11
-6.96434e-11
1.63028e-11
-5.98358e-11
8.93398e-11
6.97339e-12
2.04239e-10
-2.66476e-11
-3.24059e-11
-3.6486e-11
2.99078e-11
-4.44245e-11
4.06599e-12
1.0459e-10
1.8763e-10
1.20301e-10
1.49604e-10
6.54325e-11
1.64683e-10
1.08144e-10
1.50393e-10
2.62138e-10
6.39063e-11
1.26684e-10
1.94267e-11
-1.23871e-10
-1.56669e-12
9.56879e-11
4.1634e-11
-1.96051e-11
8.51108e-11
-7.716e-11
2.77366e-11
1.11334e-10
-1.04376e-10
-1.16825e-10
-2.05388e-11
1.30213e-12
-1.98447e-10
-3.74985e-11
9.29948e-11
-3.86885e-11
-2.84883e-12
1.61658e-10
3.40624e-11
-1.22921e-11
-3.6813e-11
-2.06848e-11
-3.20251e-11
5.37949e-12
-1.88532e-10
7.65524e-11
-3.08204e-11
-5.11614e-11
1.3049e-10
-2.50108e-11
1.45717e-11
-2.34783e-11
-1.36722e-10
-2.86333e-10
7.67089e-12
-2.21547e-10
-1.02101e-10
-6.83326e-11
-1.54121e-10
-1.25252e-10
-4.69674e-11
8.03283e-12
-9.18041e-11
-8.89971e-12
-1.4401e-10
6.24024e-11
2.01716e-10
7.26962e-11
3.86903e-11
-9.25406e-13
-1.28941e-10
-4.77241e-11
-2.18534e-11
2.08816e-11
1.55001e-10
9.63515e-12
-8.75675e-11
-7.42477e-11
-9.38742e-11
1.18153e-10
-1.08058e-10
6.15056e-11
1.65836e-11
6.46985e-11
2.17225e-10
-2.02096e-10
-7.1659e-11
-1.06709e-10
-6.86775e-11
-1.28293e-11
-6.26928e-11
-3.54651e-11
9.99037e-11
3.48556e-12
-5.77622e-11
-8.14546e-11
-5.17006e-11
8.32295e-11
9.73356e-11
2.03254e-10
1.11761e-10
5.60783e-11
-5.54094e-12
-9.42006e-11
1.32824e-10
1.11346e-10
1.64594e-10
3.90428e-11
2.50731e-10
-1.48403e-12
9.74476e-11
1.91194e-10
1.07559e-10
-2.09293e-11
5.79789e-13
-1.88008e-11
1.1885e-10
1.53122e-10
1.80563e-10
-1.06717e-10
-1.96214e-10
1.32098e-10
1.12687e-10
-1.64322e-10
1.16562e-10
1.98232e-10
3.76963e-11
4.30598e-11
-1.43592e-10
-2.30155e-11
-2.56483e-11
3.32381e-11
-3.20976e-11
-1.75336e-11
5.57015e-11
-2.93453e-11
-4.82635e-11
-7.73765e-11
-2.11748e-11
3.36603e-11
-1.63419e-10
-5.85762e-12
-8.11386e-11
8.2573e-11
2.28238e-10
1.15528e-10
8.29692e-12
-3.9465e-11
-5.1427e-11
-3.90935e-11
-1.74378e-11
1.36926e-10
1.14874e-10
-1.28476e-10
4.55538e-11
6.2668e-11
1.44248e-10
6.0938e-11
-1.5831e-10
-4.03936e-12
1.41339e-11
-1.13872e-11
4.82599e-11
2.41079e-10
-2.04958e-11
-3.95046e-11
-2.52213e-12
1.92374e-10
3.20441e-10
3.20747e-10
7.81275e-10
1.01776e-09
1.53599e-09
2.56986e-09
3.91767e-09
6.56768e-09
9.99987e-09
1.57608e-08
2.47871e-08
3.88442e-08
6.10468e-08
9.53272e-08
1.49452e-07
2.33654e-07
3.66188e-07
5.72994e-07