/*--------------------------------*- C++ -*----------------------------------*\
| =========                 |                                                 |
| \\      /  F ield         | OpenFOAM: The Open Source CFD Toolbox           |
|  \\    /   O peration     | Version:  2412                                  |
|   \\  /    A nd           | Website:  www.openfoam.com                      |
|    \\/     M anipulation  |                                                 |
\*---------------------------------------------------------------------------*/
FoamFile
{
    version     2.0;
    format      ascii;
    arch        "LSB;label=32;scalar=64";
    class       surfaceScalarField;
    location    "0.0045";
    object      ddtCorrDdt0(phi);
}
// * * * * * * * * * * * * * * * * * * * * * * * * * * * * * * * * * * * * * //

dimensions      [1 0 -2 0 0 0 0];

oriented        oriented;

internalField   nonuniform List<scalar> 
359100
(
-1.72621e-11
-1.82041e-12
3.7529e-10
-5.90534e-13
1.58456e-10
4.55659e-12
-3.61352e-10
2.27664e-12
-2.63239e-10
1.37725e-12
2.2084e-10
2.45209e-12
-3.37477e-11
-1.44474e-12
8.93944e-12
1.55037e-12
1.65499e-10
-4.06313e-12
2.05914e-10
-1.07188e-11
1.69886e-10
-3.87248e-12
4.99081e-10
1.01078e-11
2.81825e-10
-3.99293e-12
-3.7791e-10
-2.71048e-12
-1.94595e-10
1.13011e-11
-4.16516e-10
-9.89424e-12
-3.27914e-10
3.18549e-12
-4.1621e-10
6.53449e-12
-7.72157e-11
-4.7127e-12
-3.3699e-10
-6.62755e-12
-1.97977e-10
-7.83571e-12
3.9777e-11
-3.48538e-11
-2.33068e-12
-3.65258e-11
1.88315e-10
-1.54227e-11
-2.21065e-10
5.77674e-12
-1.83331e-10
8.50409e-12
-3.05218e-10
1.52516e-11
-4.66363e-10
1.03812e-11
-4.60442e-10
-5.5669e-12
-9.35327e-12
7.34999e-12
1.26622e-10
-1.02018e-11
8.26059e-11
-9.11207e-12
-1.43308e-11
6.36435e-13
-2.93717e-10
3.90969e-12
-1.03753e-10
8.71295e-12
-1.16035e-10
2.75556e-11
3.19222e-10
1.81277e-11
1.50462e-10
1.75076e-11
3.27459e-11
1.58192e-11
-1.24842e-10
1.33767e-11
9.06147e-12
1.94983e-11
5.43037e-10
2.05859e-11
8.33018e-10
6.64058e-12
6.05353e-11
-7.51935e-12
-2.98087e-10
1.42279e-12
-2.43684e-10
3.46258e-12
5.0953e-11
-1.18517e-11
4.42977e-10
-1.71462e-11
-1.27635e-10
-3.05821e-11
-1.61316e-10
-1.57852e-11
-2.20764e-10
-7.61099e-12
-5.71173e-10
-8.2021e-12
3.55811e-10
-4.67948e-12
1.17623e-10
-2.47754e-11
1.72651e-10
-2.02365e-11
-1.8483e-12
-1.87872e-11
-3.31688e-10
-1.3497e-12
-1.51185e-10
1.30915e-11
-1.15274e-10
1.94521e-11
6.27259e-11
3.07763e-11
2.99122e-11
3.48827e-11
4.86628e-10
1.84569e-11
3.63927e-10
2.68557e-12
-2.88923e-10
2.58231e-11
-6.63466e-11
5.35593e-11
2.84054e-10
3.45687e-11
-2.19508e-10
1.04462e-11
1.19366e-11
1.1979e-12
-4.22641e-11
-3.24378e-12
1.07294e-10
5.91295e-12
2.34568e-10
-1.6741e-11
1.16659e-10
-2.94023e-11
7.87943e-11
-1.52677e-11
-8.00404e-11
-1.4871e-11
-3.16118e-10
1.57413e-13
-1.34116e-10
3.2339e-11
1.18283e-10
2.86722e-11
-2.09511e-10
-8.19366e-12
-4.0085e-10
-9.33945e-12
-1.07514e-10
5.54997e-12
-2.56106e-10
1.20638e-11
-1.15304e-11
-1.66833e-11
1.50235e-11
-2.64948e-11
-6.08503e-10
-4.48942e-11
-4.35763e-10
-3.51898e-11
-2.83594e-10
-3.88797e-11
-4.54687e-10
-3.29265e-11
-5.46865e-10
-3.7739e-11
7.19821e-11
-2.80381e-11
3.35131e-11
-3.11914e-11
-1.8987e-10
-3.33509e-11
-4.51978e-11
-2.70475e-11
-2.66384e-10
-1.18273e-11
7.22655e-11
-5.51968e-12
4.95037e-10
1.00031e-11
4.03356e-10
1.18152e-11
2.1568e-10
9.57568e-12
8.46823e-11
1.23892e-11
-1.63808e-10
1.44395e-11
-1.83851e-10
7.43148e-12
3.32455e-10
5.64888e-12
4.46218e-10
1.22898e-11
2.46623e-10
1.00953e-11
3.65856e-11
8.43308e-12
-5.44175e-11
9.71736e-12
1.50143e-10
-6.62603e-12
5.17921e-10
-4.46933e-11
2.11555e-10
-4.21774e-11
2.20637e-10
-1.74191e-11
-4.9232e-10
4.65867e-13
-1.4694e-10
5.71098e-12
-1.64855e-11
-5.66279e-12
-4.47487e-11
-3.59168e-12
-2.88552e-10
6.9585e-12
-2.46892e-10
3.1749e-11
-9.41707e-12
2.6323e-11
-1.12913e-10
2.43951e-12
2.37289e-10
-1.03696e-12
-4.42385e-10
-2.18608e-12
-3.64133e-10
1.34251e-11
3.37472e-11
8.73398e-12
2.16441e-10
-9.05021e-12
1.16535e-10
-2.99392e-12
-1.317e-10
-2.09299e-12
-9.2918e-11
3.00209e-12
1.06799e-10
-3.1626e-11
-2.05484e-10
-3.61919e-11
-2.46811e-10
-1.27481e-11
-3.19461e-10
-1.07298e-11
-3.7086e-10
-1.22245e-11
-3.30212e-10
-2.44221e-11
-2.23273e-10
-2.37673e-11
-4.03779e-10
-2.41826e-11
-4.10975e-10
1.15636e-13
-3.68207e-10
9.13729e-13
-3.82204e-10
-8.04465e-12
-3.63685e-11
-2.30969e-12
5.7682e-11
1.40808e-11
-4.00102e-10
2.02935e-11
-3.63833e-10
1.06254e-11
-2.3176e-10
1.97573e-12
-2.91387e-10
-5.25223e-12
-3.49347e-10
-1.37239e-11
-1.87238e-10
-1.64174e-11
-4.15756e-10
1.18202e-11
-2.40513e-11
2.79931e-11
4.95691e-10
2.14327e-11
7.26168e-10
4.52648e-12
1.74411e-10
-8.7152e-13
2.63157e-10
1.0679e-11
-5.82351e-12
-2.24361e-12
6.01394e-11
1.15901e-11
-3.05276e-10
1.43575e-11
-2.20289e-10
7.03372e-12
1.21504e-11
1.24426e-11
-3.55444e-10
2.51461e-11
2.61306e-10
2.0683e-11
2.59348e-10
-1.63269e-11
2.6506e-10
-1.30792e-11
6.24794e-11
2.93564e-12
1.062e-10
1.35008e-13
2.38749e-10
-1.87774e-11
-4.62994e-12
-1.07795e-11
-4.89181e-12
2.76382e-12
3.51925e-10
-6.22458e-12
-2.72626e-10
-5.74868e-12
-3.03097e-10
1.26848e-11
2.64906e-10
-6.9632e-12
5.09037e-10
-2.06842e-11
6.76457e-10
1.37994e-11
3.6683e-11
2.5893e-11
5.28437e-11
2.10149e-11
-1.32326e-10
1.29328e-11
-5.30227e-11
7.62196e-12
-5.11041e-10
-2.36983e-12
-3.85305e-10
-6.40215e-12
-3.01178e-10
-3.92588e-12
1.09913e-10
-1.48529e-11
1.05784e-10
-3.10601e-11
2.48753e-10
-3.35786e-11
4.03516e-10
-3.58039e-11
3.51954e-10
-3.62666e-11
1.43909e-10
-6.78721e-12
6.24204e-10
5.84934e-12
9.35736e-10
-9.68438e-12
4.49638e-10
-5.18642e-12
-4.04193e-11
1.27487e-11
2.87932e-11
6.03314e-12
-8.12748e-11
-2.56236e-12
-1.46299e-10
-2.85659e-12
4.20114e-10
1.78943e-11
2.6076e-10
2.09004e-11
4.51514e-11
3.42936e-11
1.04473e-10
3.03054e-11
-2.00466e-10
1.41217e-11
-1.07645e-10
1.50907e-11
4.16201e-11
7.14868e-13
-1.68899e-10
1.76227e-12
9.05868e-12
4.26803e-12
-7.87281e-12
-9.5868e-12
-8.28369e-11
-8.4277e-12
-2.27733e-10
-2.5721e-12
6.2914e-11
-1.3708e-11
-3.94295e-10
-2.8784e-11
-5.18483e-10
-3.17502e-11
2.89333e-11
-3.28269e-11
-1.0264e-10
-3.99975e-11
-1.92055e-10
-1.26589e-11
-2.03398e-10
-2.11599e-12
-4.05018e-10
9.19033e-12
-2.15798e-10
9.34356e-12
-6.01727e-13
-5.22018e-12
4.12827e-10
-5.59914e-12
-1.97981e-11
-1.60772e-12
2.15235e-10
7.65067e-12
4.05629e-10
-1.10682e-11
5.13908e-10
-1.80926e-11
-2.01705e-10
-4.754e-12
-5.53761e-10
3.29828e-11
-1.21481e-10
3.06759e-11
2.16417e-10
1.35468e-11
4.01992e-10
9.714e-12
8.09155e-12
3.59084e-12
5.72839e-11
1.88136e-11
-1.66479e-10
5.09323e-11
3.25504e-10
3.97068e-11
7.95579e-10
5.49171e-12
5.81829e-10
-2.48502e-13
5.26062e-10
7.25756e-12
2.79846e-10
7.62101e-12
5.11062e-10
1.95286e-11
6.68189e-11
8.07353e-12
-4.10283e-10
-2.76481e-12
1.1614e-10
-2.81246e-11
5.50586e-10
-2.72797e-11
2.81213e-10
-2.60922e-11
4.23772e-10
-1.41797e-11
-4.00144e-12
4.84958e-12
9.18649e-11
2.45561e-11
1.50925e-10
2.177e-11
1.37215e-10
1.08891e-11
7.91096e-11
-1.21593e-11
-5.32537e-11
-2.50959e-11
-1.06417e-10
-3.77421e-11
1.23273e-10
-2.95243e-11
-3.66328e-11
-2.88801e-11
-3.16649e-10
-2.01095e-11
2.90689e-10
-6.26518e-12
2.47302e-10
-2.53768e-12
6.92992e-10
7.34254e-12
5.84297e-11
1.09065e-12
-4.38138e-10
5.11284e-12
-2.23824e-10
-1.15485e-11
2.38296e-11
-1.43517e-11
1.58877e-10
3.44225e-12
-1.32294e-10
1.17032e-11
9.20468e-11
1.41427e-11
4.04601e-10
-2.04608e-11
5.71069e-10
-2.9041e-11
1.0803e-09
-8.93276e-12
1.51018e-09
1.10235e-11
2.45854e-09
4.45698e-11
3.26265e-09
8.63801e-11
4.90516e-09
1.59252e-10
8.15218e-09
2.8815e-10
1.271e-08
4.87923e-10
2.09037e-08
7.55565e-10
3.15246e-08
1.203e-09
5.16529e-08
1.94913e-09
7.78317e-08
3.12691e-09
1.28176e-07
5.05051e-09
1.93706e-07
8.11988e-09
3.19537e-07
1.31428e-08
4.8267e-07
2.11613e-08
7.96015e-07
3.42796e-08
1.20437e-06
5.53664e-08
1.98343e-06
8.99918e-08
2.99215e-06
1.45649e-07
4.94429e-06
2.36883e-07
7.46299e-06
3.83634e-07
1.23223e-05
6.24774e-07
1.85946e-05
1.01135e-06
3.09149e-05
1.6433e-06
4.68101e-05
2.65392e-06
7.78106e-05
4.30508e-06
0.000117756
6.92544e-06
0.000197613
1.12163e-05
0.000295299
1.81737e-05
0.000483029
2.98666e-05
0.000723763
4.94884e-05
0.00116529
8.39103e-05
0.00174488
0.000144635
0.00290575
0.000251622
0.00486811
0.000439937
0.00830201
0.000767294
0.0142131
0.00135199
0.0223765
0.00241526
0.0389402
0.00452167
0.0698781
0.00847853
0.0167521
0.137266
8.525e-11
3.11712e-12
5.93144e-11
4.93437e-12
2.69681e-11
-5.79875e-13
-5.44806e-11
-2.60042e-12
8.16028e-11
1.2321e-12
-9.09212e-11
-7.41302e-13
-4.78551e-11
5.9675e-12
-6.91574e-11
1.08955e-11
-1.21005e-10
2.66195e-11
-1.712e-11
1.02938e-11
-7.37732e-12
-1.74104e-11
4.88816e-10
-2.88261e-11
8.18855e-11
-1.3845e-11
-9.19653e-11
6.25427e-12
-9.37509e-11
1.20907e-11
1.07052e-10
1.11014e-11
1.79175e-10
-6.51372e-12
2.67015e-10
-1.31059e-11
1.99204e-10
7.20978e-13
1.11707e-10
3.54919e-12
5.47823e-11
9.89084e-12
-1.49129e-10
7.46226e-13
-3.34549e-11
4.76999e-12
6.1468e-11
7.89898e-12
6.93145e-11
1.10095e-11
1.78291e-10
-2.21664e-12
4.12858e-11
-1.42052e-11
-1.64217e-10
-6.49063e-12
2.22389e-10
-6.44852e-12
-2.3573e-10
-1.51279e-11
-1.66938e-10
-6.76331e-12
-1.32099e-10
2.91652e-12
5.7069e-11
1.13581e-11
-7.51899e-11
1.10824e-12
-9.97527e-12
-7.1595e-13
-4.74378e-10
-1.41179e-11
-6.27685e-10
-4.02186e-12
-6.56301e-10
1.10202e-11
-4.0084e-10
1.87335e-11
8.40534e-11
8.29493e-12
2.20535e-10
-1.11279e-11
6.36628e-11
-1.92888e-11
1.09047e-10
-1.24409e-11
3.11252e-10
4.80953e-12
1.99605e-10
2.04782e-11
8.13673e-11
8.89527e-12
1.65776e-10
-1.13833e-12
1.43422e-11
-5.77686e-12
3.19622e-11
6.51772e-12
-3.77796e-10
1.16658e-11
-3.48692e-10
1.44949e-13
-6.03521e-11
-5.09666e-12
4.68861e-11
-3.12414e-11
1.02799e-10
-3.968e-11
-2.1744e-10
-3.0283e-11
-1.61498e-10
-2.65285e-12
1.6815e-10
6.87333e-12
-2.49209e-10
1.82118e-12
-2.24456e-10
8.41944e-12
1.4518e-10
1.78058e-11
5.67795e-10
2.97887e-11
-2.71031e-10
1.77664e-11
-1.82215e-10
3.01198e-11
4.72847e-11
1.61623e-11
-4.29764e-10
1.0153e-11
-3.20395e-10
5.02408e-12
-1.60749e-10
-1.27296e-12
2.0537e-10
-1.60407e-11
6.73991e-10
-1.85785e-11
-8.04425e-11
-1.68566e-11
-1.03001e-10
-8.0961e-12
-9.22791e-11
-1.65808e-12
-2.35302e-10
-5.41921e-12
-9.66382e-11
1.47863e-12
2.25213e-10
-1.06808e-11
5.24917e-11
-2.67638e-11
-6.09896e-11
-2.07597e-11
-1.85931e-10
-2.7268e-12
-1.01169e-10
-1.57136e-11
4.1042e-10
-1.16868e-11
1.64107e-10
-7.72079e-12
-2.65854e-10
1.18812e-11
-5.05417e-10
2.13853e-12
-2.87288e-10
-7.82354e-12
-4.46856e-10
-2.18659e-11
-4.84558e-10
-3.04874e-11
-3.80477e-10
-4.07749e-11
9.60622e-11
-2.74823e-11
-1.33564e-10
-3.81436e-11
1.44899e-10
-1.31945e-11
-2.91114e-10
-2.24946e-12
8.13355e-11
-3.0372e-12
-6.28669e-11
-1.32178e-11
3.67776e-10
-8.32643e-12
2.07432e-10
-1.37904e-11
-2.13134e-12
-1.40197e-11
-6.40158e-12
1.75839e-11
-1.59633e-10
3.22229e-11
4.55489e-11
2.95824e-11
1.31503e-10
5.297e-12
5.1414e-10
-2.10816e-11
1.8433e-10
-3.04916e-11
-3.24395e-10
-6.24748e-12
-1.30216e-10
4.89484e-12
-9.0457e-12
-3.60524e-12
-4.7128e-10
1.59389e-11
-1.99542e-10
3.02292e-11
-1.44216e-10
8.62595e-12
-2.23645e-10
2.76783e-13
-1.66639e-11
1.91678e-12
3.37867e-10
7.99265e-13
3.02727e-10
-3.71688e-14
8.23457e-11
-7.32456e-12
-8.68083e-11
-5.42899e-12
2.35728e-10
-1.22458e-11
2.37816e-10
-2.39696e-11
1.46684e-10
-1.71334e-11
-8.43071e-11
5.09522e-12
3.43917e-10
1.20336e-11
4.78201e-10
3.14425e-12
2.96819e-10
2.0411e-12
1.68296e-10
1.28907e-12
-9.09785e-11
2.05942e-13
2.81693e-10
1.04116e-11
1.125e-10
-7.18205e-12
-3.132e-10
-1.81633e-11
1.81617e-10
-2.76366e-11
-3.44095e-10
-1.01759e-11
-3.3737e-10
8.8523e-12
-9.30019e-11
8.40164e-12
-2.37254e-10
-8.06379e-12
-3.58056e-10
-1.90686e-11
2.37356e-10
-1.84497e-11
-6.17497e-11
-2.55232e-11
2.56791e-11
-1.17517e-11
1.10974e-10
-5.3007e-12
-9.78379e-11
5.65855e-12
-2.11116e-10
1.27005e-11
-4.78744e-10
2.71927e-11
-1.91036e-10
3.16397e-11
-2.89158e-10
1.93217e-11
-3.15786e-10
2.16696e-11
-6.54672e-10
1.86499e-11
-4.46968e-10
1.83073e-11
-4.01269e-10
1.01528e-11
-3.14191e-10
-1.45333e-11
-5.33126e-10
-1.74397e-11
-2.44824e-10
-1.60902e-11
-3.18459e-10
-1.15741e-11
-3.53582e-10
7.01097e-12
-4.05504e-10
1.22194e-11
-1.04997e-10
1.23542e-11
1.33344e-10
-9.6584e-12
1.64458e-11
-9.17737e-12
-1.41261e-10
-6.17766e-12
1.17911e-10
-4.40812e-12
5.43487e-11
-5.35695e-12
1.70793e-10
-1.03427e-11
1.71517e-10
-1.12101e-11
3.5041e-10
-8.74651e-12
2.14909e-10
2.11256e-11
1.00137e-11
1.89926e-11
1.00925e-10
1.43184e-11
-2.75937e-11
2.99416e-11
-1.21759e-10
1.92193e-11
5.4099e-10
-2.81841e-12
-3.74024e-11
-6.22965e-12
1.45213e-10
1.34519e-11
-8.49931e-12
4.06439e-12
3.4996e-10
-4.74921e-12
5.18448e-10
-7.53664e-12
7.4147e-10
-4.18824e-12
1.56931e-10
-2.14066e-11
3.45905e-10
-7.87081e-12
3.7483e-10
7.50483e-12
6.56259e-10
5.23868e-12
3.74809e-10
2.88845e-12
2.70535e-10
1.27346e-11
2.90312e-10
5.16657e-12
5.07966e-10
-2.74663e-12
-3.36753e-11
-1.41256e-11
-2.31985e-10
-1.24154e-11
2.21384e-10
-5.06458e-12
7.46686e-11
-8.53691e-12
1.82443e-10
2.73354e-13
1.74083e-11
-1.26857e-12
1.31959e-10
6.21963e-12
5.74796e-10
2.50992e-11
2.75461e-10
8.26025e-12
5.95715e-10
3.35456e-12
2.83672e-10
-5.40197e-12
7.42085e-11
2.03624e-11
1.75992e-10
4.55482e-11
1.04646e-10
4.35955e-11
2.87838e-10
3.53179e-11
-9.89261e-11
1.70846e-11
4.66999e-11
-9.91038e-12
7.99438e-11
-3.02657e-11
-2.79329e-10
-2.47379e-11
-3.82159e-10
-1.32216e-11
2.60815e-10
-9.93756e-12
4.57256e-10
-2.87947e-11
4.55895e-10
-2.86628e-11
-9.13161e-11
4.41965e-12
-2.32019e-10
1.6627e-11
-4.9651e-10
5.73504e-12
2.56307e-10
-5.20106e-12
5.74025e-11
-2.51164e-11
-2.26946e-10
-3.49926e-11
-6.23493e-10
-2.90723e-11
-5.57378e-10
8.55608e-12
-3.56752e-10
9.65477e-13
-3.67102e-11
-1.87386e-12
-1.6096e-10
-3.40522e-12
-4.00745e-10
9.05823e-12
5.28894e-11
1.88505e-11
-5.9654e-11
-1.70496e-12
1.04071e-10
-2.10971e-12
4.75401e-10
1.17575e-12
8.83099e-11
-1.01023e-11
3.02883e-10
-9.07206e-12
7.24934e-11
-7.20069e-12
-3.50537e-10
7.3197e-12
2.6448e-11
2.47787e-11
6.91631e-11
3.94308e-11
-4.29873e-10
3.70901e-11
-1.17049e-11
1.97921e-11
-2.26444e-10
-9.00358e-12
-5.73798e-10
-1.68268e-11
-4.00803e-10
-1.31735e-11
9.48343e-11
-1.31498e-11
2.91878e-10
-5.05432e-12
-2.41883e-11
4.54829e-12
8.73918e-12
5.22504e-12
-2.14616e-11
-8.39227e-12
-3.48585e-10
-1.20632e-11
-4.74977e-10
-6.79596e-12
-1.32767e-10
-2.7024e-11
6.17977e-11
-3.22465e-11
4.49085e-11
-3.29353e-11
1.77595e-10
-5.69643e-12
1.04231e-10
4.85354e-12
-2.68036e-10
8.49659e-12
-9.32904e-11
1.70919e-11
1.58211e-10
1.3928e-11
4.91918e-10
1.13957e-11
-5.32242e-12
5.13692e-12
3.34319e-10
6.42335e-12
3.96842e-10
-7.55614e-12
4.57042e-10
2.06247e-12
1.22371e-10
-6.31046e-12
-1.69812e-10
-1.44817e-11
2.23859e-10
-1.72847e-11
4.38987e-10
-2.53434e-11
4.89641e-10
-1.71165e-11
2.86375e-10
1.3383e-11
-1.20163e-10
3.54256e-11
2.66222e-10
4.39828e-11
4.69493e-10
3.90308e-11
1.19802e-09
5.84223e-11
1.58834e-09
8.3829e-11
2.08428e-09
1.40212e-10
3.04941e-09
2.21236e-10
4.72547e-09
3.50078e-10
8.06668e-09
5.36352e-10
1.17723e-08
8.26798e-10
1.98697e-08
1.35536e-09
3.04237e-08
2.20016e-09
5.00688e-08
3.53555e-09
7.60293e-08
5.6444e-09
1.25229e-07
9.09209e-09
1.90291e-07
1.45689e-08
3.13132e-07
2.35196e-08
4.73593e-07
3.78461e-08
7.79487e-07
6.11718e-08
1.18221e-06
9.84022e-08
1.948e-06
1.59191e-07
2.94365e-06
2.56422e-07
4.85223e-06
4.15227e-07
7.35194e-06
6.69183e-07
1.21301e-05
1.0845e-06
1.83393e-05
1.74804e-06
3.03524e-05
2.82994e-06
4.61709e-05
4.55509e-06
7.65735e-05
7.36643e-06
0.000115977
1.18297e-05
0.000193899
1.90839e-05
0.000295025
3.06767e-05
0.000484186
4.97101e-05
0.000732165
8.06214e-05
0.00120483
0.000132469
0.00181934
0.000219555
0.00297603
0.000368047
0.00482655
0.000621473
0.00801866
0.00105307
0.0133613
0.00179143
0.0221609
0.00307809
0.03825
0.00542947
0.0680367
0.00973239
0.018134
0.139341
4.24837e-11
-4.17366e-12
-4.81666e-11
-1.06369e-11
-1.12427e-10
-5.72812e-12
-1.84455e-10
1.41678e-12
-1.96691e-10
1.41245e-11
1.54758e-10
-7.07285e-12
2.07142e-10
-1.14999e-11
3.35931e-10
-1.5423e-11
1.72559e-10
-1.99927e-11
-1.83429e-11
-2.10293e-11
-3.00335e-10
-6.01527e-12
-1.26593e-10
1.29503e-11
-1.80852e-10
9.50516e-12
-4.40006e-10
-5.17613e-12
-2.67632e-10
-1.01575e-11
-1.31399e-10
4.13726e-12
-2.18234e-10
1.54264e-12
-3.54792e-10
2.30996e-12
7.97935e-12
1.07314e-11
2.45588e-10
6.18703e-12
8.43304e-11
-1.27389e-11
-1.41662e-11
5.99827e-12
2.41129e-11
-3.63131e-13
2.04143e-10
-1.64503e-11
-7.4704e-11
-2.8415e-11
-4.01909e-10
-5.23384e-12
-1.07145e-10
1.50215e-11
-6.91696e-11
2.38164e-11
1.83951e-10
2.46869e-11
1.02781e-10
1.40275e-11
3.57626e-10
8.70783e-12
1.45234e-10
-2.62114e-11
-2.34771e-11
-2.70687e-11
1.2825e-10
-3.35177e-11
-1.32862e-10
-3.88724e-11
-1.13912e-10
-3.26392e-11
1.88403e-10
-3.15671e-11
-2.30243e-10
-3.62574e-11
-2.2917e-10
-2.70708e-11
-1.76397e-10
3.6257e-12
-2.01502e-10
2.30715e-11
-4.04545e-11
2.79961e-11
7.16155e-12
1.57919e-11
-6.38551e-11
3.01859e-12
-4.52856e-10
-5.93829e-12
-4.67491e-11
5.16837e-12
4.00272e-11
3.4741e-12
-3.78962e-10
2.23886e-11
-2.44673e-10
3.09514e-11
-2.91917e-10
1.75912e-11
-5.94306e-12
2.41591e-11
-6.50447e-11
1.84577e-11
2.37874e-10
6.65813e-12
-3.68898e-10
-2.31698e-11
1.44701e-10
-2.6577e-11
6.07343e-10
-2.53676e-11
5.91836e-11
-9.86486e-12
-9.95163e-11
1.13107e-11
2.33635e-10
6.51642e-12
4.08025e-10
-1.07885e-11
-8.0944e-11
-2.11315e-11
9.0576e-11
-2.15562e-11
-2.42928e-10
-1.75846e-11
-1.53091e-10
-1.30888e-11
1.18764e-10
-5.1927e-12
3.76487e-10
1.78709e-11
1.37391e-10
9.98745e-12
2.90259e-10
2.19996e-12
3.79393e-11
-2.35584e-11
-1.5416e-10
-6.37312e-12
3.93422e-11
1.17963e-11
-4.99194e-11
6.17222e-12
1.69213e-10
-9.29154e-12
2.30609e-10
-1.22311e-11
1.81075e-10
-8.69174e-12
1.8981e-10
1.06867e-11
5.70732e-10
6.19357e-12
1.0706e-10
7.15771e-12
1.46727e-10
-1.65967e-12
5.01385e-10
-8.50409e-13
5.37666e-10
-7.25757e-12
3.14184e-10
5.54688e-12
3.25921e-10
2.40761e-11
3.35553e-10
2.09344e-11
6.00885e-11
1.80084e-11
-2.4891e-11
3.46032e-12
6.96804e-10
-8.10828e-12
2.7626e-10
-1.28965e-11
8.59935e-11
-1.30047e-11
2.55419e-10
-2.28944e-11
5.62462e-10
-2.63064e-11
5.7745e-10
-1.73558e-11
5.92773e-11
-6.85578e-12
-3.80217e-11
1.62648e-11
-3.36501e-10
1.797e-11
-3.51687e-10
1.56634e-11
-2.64587e-10
2.33075e-12
-1.88718e-10
-1.52862e-11
-2.56789e-10
-1.96154e-11
-6.00023e-10
-7.98483e-12
-5.09121e-10
1.5289e-11
4.49242e-11
1.20811e-11
-6.43188e-11
7.79384e-12
-1.56752e-10
5.3841e-12
3.60938e-10
1.12869e-11
6.03181e-10
1.20137e-11
4.2314e-10
2.91075e-11
1.50953e-10
2.99724e-11
-6.92503e-11
2.5877e-11
1.16346e-10
1.54023e-11
5.8861e-10
2.78331e-12
3.76675e-10
3.97263e-12
3.92258e-10
3.5194e-12
3.948e-10
3.81478e-12
9.62908e-11
-1.67228e-11
-1.15235e-10
-1.68484e-11
-4.45257e-11
-8.72985e-12
-2.20086e-11
-8.32239e-12
6.35844e-11
5.8697e-12
1.92526e-10
6.9494e-12
2.21876e-10
-1.8137e-12
1.00503e-10
1.20867e-11
3.7574e-10
1.31551e-11
1.23429e-10
1.10482e-11
3.61451e-10
1.85111e-11
-5.32048e-11
1.40197e-11
-4.10506e-10
9.46733e-13
-6.48845e-10
-3.47746e-12
-1.253e-10
1.1093e-11
2.76975e-10
1.82917e-11
1.90589e-11
1.28196e-11
-3.42428e-10
5.68566e-12
-9.08161e-11
9.60552e-12
2.94574e-10
1.95632e-12
1.05277e-10
-1.20769e-12
4.83489e-10
-1.54429e-11
2.04545e-10
-2.20281e-11
-6.5155e-11
-2.15626e-11
-2.33403e-10
-2.23074e-11
-3.64234e-10
-1.02602e-11
-1.36464e-10
-1.1502e-11
1.75415e-10
5.87616e-12
3.34868e-10
3.93537e-13
5.155e-10
2.33681e-12
-9.66898e-11
2.46108e-12
-1.05756e-10
-7.52572e-12
-2.35531e-10
-1.20433e-11
-4.20945e-10
-1.81217e-11
-3.24671e-10
-1.81768e-11
-2.32252e-10
-1.66788e-11
1.25876e-10
-1.0769e-11
-2.97771e-10
-1.60932e-11
1.62182e-10
-9.29983e-12
1.20527e-10
-2.04431e-11
1.29971e-10
-1.82629e-11
-2.79908e-10
-3.32774e-12
-1.46521e-10
6.17155e-12
-4.71572e-11
7.92814e-12
-6.69971e-11
1.18008e-11
6.46575e-10
2.36299e-11
-1.63063e-11
1.46658e-11
-4.80604e-10
2.10129e-11
-7.56376e-11
1.20706e-11
2.32606e-10
9.61286e-12
-9.10017e-11
1.04815e-12
-4.54873e-10
6.29741e-12
-6.04396e-11
4.55614e-12
2.50931e-10
-4.99242e-12
2.0044e-10
-1.00503e-11
9.92963e-11
-7.84738e-12
8.60867e-11
-4.84095e-12
3.40667e-10
-1.10026e-11
5.14355e-10
-1.12863e-11
5.5543e-10
1.21393e-11
3.61184e-10
4.6643e-12
4.55081e-10
6.21871e-12
3.48992e-10
1.42699e-11
6.57051e-11
1.17704e-11
3.03369e-10
1.2843e-11
2.25741e-10
1.06066e-11
-4.3233e-12
1.22647e-11
1.12703e-10
5.58993e-12
-1.70626e-10
1.20245e-11
3.24603e-10
7.3602e-12
1.04576e-10
-1.58966e-13
-1.81527e-10
8.20998e-12
-6.09942e-11
2.14095e-11
-1.89179e-10
6.34578e-12
-2.00918e-10
1.40458e-11
-3.46182e-10
1.28018e-11
-2.35962e-10
1.36919e-11
1.38496e-10
-9.55678e-12
3.54824e-10
-2.78174e-11
-7.67218e-11
-6.03964e-12
2.20224e-10
1.27972e-11
4.32101e-10
1.77215e-11
1.06536e-10
5.546e-12
-1.88261e-10
1.10138e-11
-3.58571e-11
-4.95633e-12
4.21182e-10
-1.37707e-11
3.55427e-10
-2.15991e-11
-3.03326e-11
-1.84617e-11
-1.43286e-10
-2.06765e-11
1.20711e-10
-1.5403e-11
1.80299e-10
-6.99755e-12
1.64279e-10
-3.56621e-13
3.03623e-10
2.35415e-11
8.1911e-11
3.20909e-11
-3.27349e-10
3.08853e-11
-9.07935e-11
4.24973e-11
-3.84354e-10
3.52612e-11
-4.51623e-10
3.31444e-11
-2.69555e-10
2.32904e-11
-6.1351e-11
1.96171e-12
4.09136e-11
-9.41426e-12
-2.90491e-10
-9.44941e-14
-1.5446e-10
-7.79937e-12
2.57643e-10
-2.69256e-11
-1.15213e-10
-3.20861e-11
-3.34093e-10
-2.45414e-11
-5.81866e-10
-1.78474e-11
-6.22841e-10
-4.68527e-13
-3.22435e-10
1.7991e-11
2.27862e-10
1.77244e-12
3.73336e-10
-3.02001e-11
5.41094e-10
-3.20836e-11
5.98626e-10
-2.30592e-11
3.47069e-10
-8.95176e-12
4.33592e-10
6.85228e-12
7.00198e-11
9.18429e-12
1.99419e-11
4.95644e-12
3.13772e-10
1.2181e-11
4.80342e-11
2.553e-11
7.04712e-11
5.28748e-11
-1.18123e-10
4.41811e-11
1.00556e-10
2.22205e-11
2.68115e-10
3.54987e-12
3.65558e-10
2.1174e-12
8.4847e-11
-1.54628e-11
6.88539e-11
-9.10048e-12
-3.29083e-10
-2.4167e-11
1.08008e-10
-1.04043e-11
-6.67385e-11
-2.37933e-11
4.70918e-10
-1.44967e-11
2.32474e-10
-2.88514e-11
4.93618e-10
-2.53673e-11
7.79986e-10
-6.33666e-12
5.86361e-10
6.70315e-12
5.20456e-10
8.73009e-13
4.44939e-10
-1.40847e-11
5.56474e-10
-1.02774e-11
2.69881e-10
-6.78705e-12
-4.28709e-10
-3.85142e-12
-3.23551e-10
6.21818e-12
-1.77212e-10
2.47669e-12
-4.71366e-12
1.88127e-11
-2.40026e-10
2.46814e-11
-7.61447e-11
6.26766e-11
3.78867e-10
7.95864e-11
8.38382e-10
9.32813e-11
1.18012e-09
1.13412e-10
1.74411e-09
1.60216e-10
2.92106e-09
2.57672e-10
4.50637e-09
4.28467e-10
7.40932e-09
6.79889e-10
1.1408e-08
1.11628e-09
1.93754e-08
1.80253e-09
2.94118e-08
2.83938e-09
4.82119e-08
4.55168e-09
7.30275e-08
7.28204e-09
1.19142e-07
1.17248e-08
1.81066e-07
1.8795e-08
2.97602e-07
3.0194e-08
4.52821e-07
4.83281e-08
7.43227e-07
7.77039e-08
1.12955e-06
1.24403e-07
1.85677e-06
2.00259e-07
2.81717e-06
3.21022e-07
4.6234e-06
5.16989e-07
7.03058e-06
8.28749e-07
1.15733e-05
1.3351e-06
1.7551e-05
2.14069e-06
2.88406e-05
3.44685e-06
4.40632e-05
5.52004e-06
7.28177e-05
8.87842e-06
0.000110419
1.41964e-05
0.000183262
2.27796e-05
0.00028232
3.63754e-05
0.000463852
5.84173e-05
0.000704883
9.35828e-05
0.00117016
0.000151141
0.00177431
0.000244921
0.00287312
0.000400786
0.00452794
0.000659457
0.00721603
0.00109319
0.0114775
0.00182084
0.01908
0.00305323
0.0331156
0.00520144
0.0596184
0.00891054
0.0156653
0.124824
-1.38004e-10
3.08636e-12
-4.17385e-11
7.94702e-12
1.40194e-10
4.7818e-12
3.90781e-10
-6.73833e-12
-4.96721e-11
-9.21695e-12
9.22791e-11
8.34663e-12
-1.18996e-10
1.21606e-11
1.72029e-10
2.52749e-11
3.04469e-10
1.47503e-12
4.08961e-10
-5.62275e-13
5.42275e-10
-1.44654e-12
4.31623e-10
5.95761e-12
-7.25702e-12
-1.05722e-11
-1.87168e-11
2.80482e-12
1.80551e-10
3.41396e-12
-7.21153e-11
1.96083e-12
4.07947e-10
-4.29115e-12
4.64555e-10
-3.05456e-11
-2.01168e-11
-2.91474e-11
-4.57627e-10
-1.1982e-11
-1.95567e-10
2.37277e-11
-1.32828e-10
1.72375e-11
-3.31927e-10
-3.15005e-12
-2.75219e-10
-2.27848e-11
-7.3093e-11
-2.26358e-11
-3.1163e-10
-1.00343e-11
-1.85099e-10
1.05259e-11
-7.66989e-11
-6.51397e-12
-2.85391e-10
-1.1359e-11
3.83201e-10
-5.74876e-12
7.32089e-11
-2.37116e-12
3.6604e-10
6.67078e-12
1.66907e-10
1.35252e-11
1.67288e-10
1.67753e-11
-2.38372e-10
7.97551e-12
-2.27805e-10
1.78355e-11
-2.27087e-10
3.76092e-11
1.43959e-10
2.28617e-11
5.42442e-10
1.12378e-11
9.61834e-10
-1.68004e-12
7.39683e-10
-8.99755e-12
-1.22168e-11
-1.39779e-11
-3.60717e-10
-7.98013e-12
-9.91264e-11
-8.9738e-12
7.06086e-11
-9.11716e-12
8.98721e-11
-5.23947e-12
1.86194e-10
-1.0852e-11
-5.72812e-10
-2.31017e-11
-1.24835e-10
-1.07816e-11
1.85267e-10
-5.71177e-12
7.82051e-11
-1.30572e-11
1.09494e-10
-2.48613e-11
4.00247e-11
-1.3782e-11
-1.48227e-10
6.94635e-12
2.66717e-11
-2.76163e-12
1.87941e-10
-4.96372e-12
7.79805e-11
1.31758e-11
7.19426e-11
2.33721e-11
-2.09647e-10
2.60045e-11
-2.38005e-10
3.15115e-11
-1.09167e-10
2.49624e-11
2.92141e-11
7.76412e-12
1.35246e-10
-2.55377e-12
-4.2541e-11
-2.24513e-11
6.10253e-10
-1.64369e-11
7.15889e-10
-1.41348e-11
1.23707e-10
4.84347e-12
1.01159e-10
1.51844e-12
-4.57467e-11
1.93862e-11
-1.43545e-11
8.2033e-12
1.96747e-10
-1.21257e-11
4.83231e-11
-1.56978e-11
-1.51721e-10
-3.03579e-13
-3.26669e-10
1.05822e-11
-3.04225e-11
1.79328e-11
-5.53393e-10
4.97899e-12
1.87405e-10
-4.92953e-12
3.37635e-10
-2.53948e-11
2.21751e-10
-1.86967e-11
-5.28834e-11
-1.43228e-11
-1.72223e-10
-1.72202e-13
2.2185e-10
-2.74896e-12
2.12902e-11
7.254e-12
3.44374e-10
2.39564e-11
2.46508e-10
2.20831e-11
1.98271e-10
1.34589e-11
6.62917e-11
1.54051e-11
-1.93221e-10
1.94863e-11
-3.63905e-10
4.21619e-13
-4.99625e-11
-1.44655e-11
2.10453e-10
-3.51768e-12
1.34812e-10
8.38575e-12
3.9403e-10
1.00591e-11
4.17418e-10
-6.45628e-12
5.58814e-11
-1.5086e-11
5.92988e-11
-3.59643e-12
2.08113e-11
-8.54035e-12
2.72558e-10
-6.97194e-12
5.02169e-10
1.26702e-12
2.86022e-10
5.47516e-12
1.18442e-10
-5.37952e-12
8.4023e-11
-1.96163e-11
-2.30697e-10
-4.873e-12
3.57739e-11
2.05611e-11
2.23905e-10
1.85181e-11
8.57378e-10
5.01554e-12
3.7723e-10
5.86108e-12
2.27486e-10
1.40773e-11
1.34471e-10
9.10676e-12
5.02942e-11
1.52885e-11
7.7124e-11
5.00553e-12
-1.0795e-10
-2.31938e-11
-2.69066e-11
-2.03727e-11
-2.56079e-10
-2.25545e-11
-5.83058e-11
1.35937e-12
5.55823e-11
1.36012e-11
9.56468e-11
-1.26374e-12
3.40833e-10
-2.22443e-12
1.37503e-10
-1.26033e-11
-6.29074e-11
2.87517e-12
-1.59561e-10
1.10944e-11
-6.41139e-11
9.21019e-12
1.99043e-10
-2.59536e-12
2.88289e-10
-2.88493e-12
4.73726e-10
-1.54786e-11
1.78235e-10
-1.15756e-13
-1.47433e-10
1.26472e-11
-6.24961e-11
-6.40314e-12
2.13235e-10
-2.32013e-11
2.56049e-11
-9.76014e-12
7.38118e-11
1.01332e-11
-6.7864e-11
2.17352e-11
1.56978e-10
2.13221e-11
2.21601e-10
6.78386e-12
-2.81808e-10
-3.24064e-12
1.75221e-10
1.37957e-12
-8.19186e-11
-1.04212e-11
-9.9659e-11
-1.57873e-11
3.91109e-10
-1.19325e-11
-2.93316e-10
-4.50018e-12
-4.05107e-11
1.41915e-11
-3.65976e-10
1.19526e-11
-7.27476e-10
3.00694e-11
-1.71412e-10
3.19871e-11
-2.3941e-10
-2.75647e-12
-1.35433e-10
-1.58786e-11
-1.44216e-10
-3.77294e-11
-6.72424e-10
-3.02805e-11
-4.09114e-10
-3.09719e-11
-3.16971e-10
-4.38847e-11
3.98192e-11
-3.03986e-11
-1.96777e-10
-3.09531e-11
-2.88789e-11
-1.94133e-11
9.19677e-11
-2.18592e-12
1.29502e-10
1.29724e-11
-9.55263e-11
1.30548e-11
-2.00689e-10
1.1107e-11
-2.17415e-10
1.2841e-11
-1.68344e-10
1.81096e-11
-5.6301e-11
8.10122e-12
-2.41777e-11
6.51027e-12
-5.44312e-10
2.84968e-13
-1.34016e-10
3.08801e-13
-9.09311e-11
-4.71602e-12
1.19463e-10
-7.99406e-12
7.84096e-11
3.5813e-12
4.22693e-10
-4.32142e-13
8.74158e-11
-2.77106e-12
-1.29996e-11
1.85628e-12
9.66171e-11
1.16669e-11
2.00908e-10
1.16327e-11
1.47846e-10
8.63532e-12
5.86363e-10
1.27788e-11
5.36987e-10
1.29982e-11
4.1642e-11
2.68207e-11
2.15271e-10
2.13043e-11
2.08356e-10
3.05317e-12
4.8589e-10
1.79216e-12
3.54236e-10
1.86998e-11
2.64169e-10
2.25679e-11
1.68304e-10
7.36311e-13
-1.52142e-10
-4.50817e-12
1.88891e-10
8.30521e-12
-4.54828e-11
8.41525e-12
-2.05107e-10
2.17039e-11
-2.42232e-10
2.94239e-11
-7.5704e-11
2.50454e-11
9.05269e-11
2.53173e-11
-3.21934e-11
2.42275e-11
2.95396e-10
1.46504e-11
1.16421e-10
-6.62967e-12
-1.79109e-10
-2.04061e-11
2.43169e-10
-3.83676e-11
3.71619e-10
-4.94932e-11
4.35121e-11
-3.96939e-11
-2.74988e-10
-2.2662e-11
-1.21564e-10
-3.89081e-12
-2.64057e-10
1.2281e-11
-2.44606e-11
2.95759e-11
1.00398e-10
2.48426e-11
-3.68954e-11
8.1562e-12
-5.6366e-10
-1.00147e-11
-2.10577e-10
-2.61547e-11
1.64412e-10
-2.45244e-11
-2.09074e-11
-1.81105e-11
-2.84802e-10
-2.20999e-11
-1.33802e-10
-2.12336e-11
-1.44198e-10
-1.10478e-11
1.76864e-10
2.57033e-11
3.73159e-10
4.61281e-11
-6.42474e-11
4.8104e-11
3.75952e-10
3.84998e-11
2.57478e-10
8.63415e-12
1.16896e-10
-4.49694e-12
-1.84853e-12
-1.16461e-11
5.44817e-12
-2.0415e-11
-2.51768e-10
-1.13528e-11
5.55409e-12
-1.69179e-13
3.99309e-11
9.47126e-12
-3.23604e-10
2.68402e-12
-2.49888e-10
1.18106e-12
1.98112e-10
-4.4774e-12
-5.88589e-11
-1.0396e-12
-1.79944e-10
1.10522e-11
-2.34389e-10
-2.37522e-11
-2.37301e-10
-3.20079e-11
-1.6097e-10
-1.61785e-11
-3.34155e-11
4.70576e-12
2.97035e-10
7.27654e-12
-3.13203e-12
6.75093e-12
-3.86606e-10
9.43727e-12
2.12257e-10
-1.00121e-11
4.6372e-10
-1.40709e-11
3.36307e-10
-1.34409e-11
1.27848e-10
-3.32788e-11
3.26566e-11
-2.2822e-11
-1.41375e-10
1.28716e-11
3.12966e-12
2.59059e-11
5.15094e-10
1.64903e-11
2.23966e-10
-1.24989e-11
5.3509e-10
-1.12079e-11
1.59247e-10
-1.23984e-11
3.40486e-10
-1.00712e-11
2.86606e-10
-7.48104e-12
-2.43075e-11
6.54828e-12
1.18972e-10
1.1367e-11
3.37086e-10
2.49868e-11
6.79212e-10
3.56183e-11
2.02551e-10
3.91611e-11
9.76094e-11
3.83512e-11
2.92402e-10
2.12224e-11
3.12706e-10
2.13846e-11
4.66546e-10
1.20048e-11
-2.31622e-11
1.11968e-11
1.93039e-10
2.79992e-11
-3.28454e-10
3.41298e-11
2.81918e-10
3.69363e-11
1.10087e-10
4.08031e-11
5.1153e-10
5.38055e-11
5.78556e-10
8.61578e-11
1.02437e-09
1.5555e-10
1.54202e-09
2.37915e-10
2.75517e-09
3.34893e-10
4.07289e-09
4.97914e-10
6.51365e-09
8.01016e-10
1.08666e-08
1.25467e-09
1.76062e-08
1.96474e-09
2.7168e-08
3.13239e-09
4.37614e-08
5.03564e-09
6.73632e-08
8.05075e-09
1.10752e-07
1.28935e-08
1.67725e-07
2.05265e-08
2.7507e-07
3.28658e-08
4.18965e-07
5.23878e-08
6.84922e-07
8.39233e-08
1.0413e-06
1.33795e-07
1.7087e-06
2.14288e-07
2.5985e-06
3.41647e-07
4.24636e-06
5.47313e-07
6.46451e-06
8.72679e-07
1.06116e-05
1.39802e-06
1.61269e-05