/*--------------------------------*- C++ -*----------------------------------*\
| =========                 |                                                 |
| \\      /  F ield         | OpenFOAM: The Open Source CFD Toolbox           |
|  \\    /   O peration     | Version:  2412                                  |
|   \\  /    A nd           | Website:  www.openfoam.com                      |
|    \\/     M anipulation  |                                                 |
\*---------------------------------------------------------------------------*/
FoamFile
{
    version     2.0;
    format      ascii;
    arch        "LSB;label=32;scalar=64";
    class       surfaceScalarField;
    location    "0.0045";
    object      phi;
}
// * * * * * * * * * * * * * * * * * * * * * * * * * * * * * * * * * * * * * //

dimensions      [1 0 -1 0 0 0 0];

oriented        oriented;

internalField   nonuniform List<scalar> 
359100
(
3.27398
-1.38778e-17
3.27398
5.55112e-17
3.27398
1.52656e-16
3.27398
9.71445e-17
3.27398
1.38778e-17
3.27398
-1.11022e-16
3.27398
-1.249e-16
3.27398
-1.52656e-16
3.27398
-2.63678e-16
3.27398
-4.57967e-16
3.27398
-5.68989e-16
3.27398
-7.07767e-16
3.27398
-8.18789e-16
3.27398
-9.02056e-16
3.27398
-9.99201e-16
3.27398
-1.22125e-15
3.27398
-1.47105e-15
3.27398
-1.60982e-15
3.27398
-1.70697e-15
3.27398
-1.66533e-15
3.27398
-1.63758e-15
3.27398
-1.54043e-15
3.27398
-1.45717e-15
3.27398
-1.19349e-15
3.27398
-9.57567e-16
3.27398
-1.05471e-15
3.27398
-1.26288e-15
3.27398
-1.41553e-15
3.27398
-1.51268e-15
3.27398
-1.48492e-15
3.27398
-1.38778e-15
3.27398
-1.29063e-15
3.27398
-1.15186e-15
3.27398
-1.09635e-15
3.27398
-1.06859e-15
3.27398
-9.29812e-16
3.27398
-8.88178e-16
3.27398
-8.88178e-16
3.27398
-9.99201e-16
3.27398
-1.15186e-15
3.27398
-1.249e-15
3.27398
-1.27676e-15
3.27398
-1.26288e-15
3.27398
-1.27676e-15
3.27398
-1.36002e-15
3.27398
-1.38778e-15
3.27398
-1.47105e-15
3.27398
-1.42941e-15
3.27398
-1.33227e-15
3.27398
-1.16573e-15
3.27398
-1.05471e-15
3.27398
-1.06859e-15
3.27398
-1.06859e-15
3.27398
-1.19349e-15
3.27398
-1.15186e-15
3.27398
-1.06859e-15
3.27398
-1.01308e-15
3.27398
-8.04912e-16
3.27398
-6.93889e-16
3.27398
-6.80012e-16
3.27398
-7.63278e-16
3.27398
-9.29812e-16
3.27398
-1.19349e-15
3.27398
-1.38778e-15
3.27398
-1.55431e-15
3.27398
-1.92901e-15
3.27398
-2.30371e-15
3.27398
-2.52576e-15
3.27398
-2.56739e-15
3.27398
-2.47025e-15
3.27398
-2.3731e-15
3.27398
-2.35922e-15
3.27398
-2.23432e-15
3.27398
-2.09555e-15
3.27398
-1.9984e-15
3.27398
-1.88738e-15
3.27398
-2.02616e-15
3.27398
-2.3731e-15
3.27398
-2.53964e-15
3.27398
-2.51188e-15
3.27398
-2.55351e-15
3.27398
-2.73392e-15
3.27398
-2.78944e-15
3.27398
-2.7478e-15
3.27398
-2.55351e-15
3.27398
-2.34535e-15
3.27398
-2.15106e-15
3.27398
-1.9984e-15
3.27398
-1.76248e-15
3.27398
-1.38778e-15
3.27398
-1.20737e-15
3.27398
-1.01308e-15
3.27398
-8.04912e-16
3.27398
-5.96745e-16
3.27398
-4.57967e-16
3.27398
-4.57967e-16
3.27398
-6.80012e-16
3.27398
-9.02056e-16
3.27398
-1.22125e-15
3.27398
-1.6237e-15
3.27398
-1.90126e-15
3.27398
-2.01228e-15
3.27398
-2.15106e-15
3.27398
-2.27596e-15
3.27398
-2.48412e-15
3.27398
-2.65066e-15
3.27398
-2.67841e-15
3.27398
-2.498e-15
3.27398
-2.15106e-15
3.27398
-1.92901e-15
3.27398
-1.98452e-15
3.27398
-2.1233e-15
3.27398
-2.10942e-15
3.27398
-2.05391e-15
3.27398
-1.9984e-15
3.27398
-2.1233e-15
3.27398
-2.38698e-15
3.27398
-2.51188e-15
3.27398
-2.55351e-15
3.27398
-2.6229e-15
3.27398
-2.63678e-15
3.27398
-2.56739e-15
3.27398
-2.51188e-15
3.27398
-2.45637e-15
3.27398
-2.58127e-15
3.27398
-2.7478e-15
3.27398
-2.63678e-15
3.27398
-2.41474e-15
3.27398
-2.40086e-15
3.27398
-2.44249e-15
3.27398
-2.47025e-15
3.27398
-2.40086e-15
3.27398
-2.19269e-15
3.27398
-1.97065e-15
3.27398
-1.85962e-15
3.27398
-1.84575e-15
3.27398
-1.79023e-15
3.27398
-1.66533e-15
3.27398
-1.59595e-15
3.27398
-1.67921e-15
3.27398
-1.85962e-15
3.27398
-1.84575e-15
3.27398
-1.83187e-15
3.27398
-1.70697e-15
3.27398
-1.48492e-15
3.27398
-1.36002e-15
3.27398
-1.3739e-15
3.27398
-1.40166e-15
3.27398
-1.40166e-15
3.27398
-1.31839e-15
3.27398
-1.33227e-15
3.27398
-1.44329e-15
3.27398
-1.55431e-15
3.27398
-1.76248e-15
3.27398
-1.81799e-15
3.27398
-1.90126e-15
3.27398
-2.13718e-15
3.27398
-2.27596e-15
3.27398
-2.2482e-15
3.27398
-2.06779e-15
3.27398
-1.92901e-15
3.27398
-1.92901e-15
3.27398
-1.91513e-15
3.27398
-1.81799e-15
3.27398
-1.85962e-15
3.27398
-1.77636e-15
3.27398
-1.72085e-15
3.27398
-1.7486e-15
3.27398
-1.76248e-15
3.27398
-1.67921e-15
3.27398
-1.81799e-15
3.27398
-2.17881e-15
3.27398
-2.51188e-15
3.27398
-2.78944e-15
3.27398
-3.08087e-15
3.27398
-3.28904e-15
3.27398
-3.3723e-15
3.27398
-3.35842e-15
3.27398
-3.33067e-15
3.27398
-3.19189e-15
3.27398
-2.91434e-15
3.27398
-2.58127e-15
3.27398
-2.23432e-15
3.27398
-2.05391e-15
3.27398
-2.10942e-15
3.27398
-2.19269e-15
3.27398
-2.16493e-15
3.27398
-2.28983e-15
3.27398
-2.45637e-15
3.27398
-2.34535e-15
3.27398
-2.16493e-15
3.27398
-2.06779e-15
3.27398
-2.17881e-15
3.27398
-2.42861e-15
3.27398
-2.83107e-15
3.27398
-3.05311e-15
3.27398
-3.09475e-15
3.27398
-3.1225e-15
3.27398
-3.08087e-15
3.27398
-3.02536e-15
3.27398
-3.02536e-15
3.27398
-2.9976e-15
3.27398
-2.95597e-15
3.27398
-2.85882e-15
3.27398
-2.53964e-15
3.27398
-2.1233e-15
3.27398
-1.69309e-15
3.27398
-1.249e-15
3.27398
-8.88178e-16
3.27398
-7.07767e-16
3.27398
-6.93889e-16
3.27398
-8.04912e-16
3.27398
-1.02696e-15
3.27398
-1.15186e-15
3.27398
-1.20737e-15
3.27398
-1.34615e-15
3.27398
-1.3739e-15
3.27398
-1.34615e-15
3.27398
-1.41553e-15
3.27398
-1.58207e-15
3.27398
-1.73472e-15
3.27398
-1.84575e-15
3.27398
-1.94289e-15
3.27398
-1.9984e-15
3.27398
-2.04003e-15
3.27398
-2.2482e-15
3.27398
-2.51188e-15
3.27398
-2.55351e-15
3.27398
-2.3731e-15
3.27398
-2.26208e-15
3.27398
-2.30371e-15
3.27398
-2.48412e-15
3.27398
-2.58127e-15
3.27398
-2.55351e-15
3.27398
-2.22045e-15
3.27398
-1.76248e-15
3.27398
-1.36002e-15
3.27398
-1.06859e-15
3.27398
-9.29812e-16
3.27398
-8.74301e-16
3.27398
-6.38378e-16
3.27398
-4.53061e-28
3.27398
1.38778e-15
3.27398
3.94129e-15
3.27398
8.29892e-15
3.27398
1.52933e-14
3.27398
2.68119e-14
3.27398
4.58106e-14
3.27398
7.69385e-14
3.27398
1.2837e-13
3.27398
2.13649e-13
3.27398
3.55146e-13
3.27398
5.90195e-13
3.27398
9.80729e-13
3.27398
1.62956e-12
3.27398
2.7077e-12
3.27398
4.50009e-12
3.27398
7.48179e-12
3.27398
1.24454e-11
3.27398
2.07133e-11
3.27398
3.4494e-11
3.27398
5.74793e-11
3.27398
9.58458e-11
3.27398
1.59934e-10
3.27398
2.67075e-10
3.27398
4.46334e-10
3.27398
7.46512e-10
3.27398
1.24962e-09
3.27398
2.09363e-09
3.27398
3.51091e-09
3.27398
5.89321e-09
3.27398
9.90179e-09
3.27398
1.66542e-08
3.27398
2.80416e-08
3.27398
4.72679e-08
3.27398
7.97692e-08
3.27398
1.34781e-07
3.27398
2.28019e-07
3.27398
3.8626e-07
3.27398
6.55203e-07
3.27398
1.11297e-06
3.27398
1.8933e-06
3.27397
3.22562e-06
3.27397
5.50407e-06
3.27396
9.40712e-06
3.27394
1.61049e-05
3.27391
2.76198e-05
3.27387
4.74547e-05
3.27378
8.16931e-05
3.27364
0.000140929
3.2734
0.000243692
3.27298
0.000422508
3.27224
0.000734984
3.27096
0.0012837
3.2687
0.00225523
3.26471
0.00399076
3.25756
0.00714669
3.2446
0.0129682
3.2205
0.0240971
0.045423
3.17507
3.27398
8.32667e-17
3.27398
5.55112e-17
3.27398
-4.16334e-17
3.27398
-8.32667e-17
3.27398
0
3.27398
9.71445e-17
3.27398
8.32667e-17
3.27398
1.249e-16
3.27398
1.94289e-16
3.27398
1.249e-16
3.27398
4.16334e-17
3.27398
5.55112e-17
3.27398
9.71445e-17
3.27398
4.16334e-17
3.27398
-1.38778e-16
3.27398
-4.44089e-16
3.27398
-7.21645e-16
3.27398
-8.46545e-16
3.27398
-9.15934e-16
3.27398
-1.04083e-15
3.27398
-1.19349e-15
3.27398
-1.27676e-15
3.27398
-1.29063e-15
3.27398
-1.27676e-15
3.27398
-1.26288e-15
3.27398
-1.27676e-15
3.27398
-1.36002e-15
3.27398
-1.44329e-15
3.27398
-1.51268e-15
3.27398
-1.63758e-15
3.27398
-1.67921e-15
3.27398
-1.60982e-15
3.27398
-1.44329e-15
3.27398
-1.31839e-15
3.27398
-1.13798e-15
3.27398
-1.04083e-15
3.27398
-9.29812e-16
3.27398
-8.04912e-16
3.27398
-7.91034e-16
3.27398
-8.46545e-16
3.27398
-9.4369e-16
3.27398
-1.05471e-15
3.27398
-1.05471e-15
3.27398
-1.04083e-15
3.27398
-1.01308e-15
3.27398
-1.15186e-15
3.27398
-1.27676e-15
3.27398
-1.249e-15
3.27398
-1.20737e-15
3.27398
-1.36002e-15
3.27398
-1.60982e-15
3.27398
-1.81799e-15
3.27398
-1.91513e-15
3.27398
-1.79023e-15
3.27398
-1.55431e-15
3.27398
-1.27676e-15
3.27398
-1.02696e-15
3.27398
-1.08247e-15
3.27398
-1.249e-15
3.27398
-1.36002e-15
3.27398
-1.42941e-15
3.27398
-1.59595e-15
3.27398
-1.70697e-15
3.27398
-1.77636e-15
3.27398
-1.92901e-15
3.27398
-2.17881e-15
3.27398
-2.33147e-15
3.27398
-2.33147e-15
3.27398
-2.10942e-15
3.27398
-1.76248e-15
3.27398
-1.56819e-15
3.27398
-1.45717e-15
3.27398
-1.42941e-15
3.27398
-1.41553e-15
3.27398
-1.45717e-15
3.27398
-1.56819e-15
3.27398
-1.56819e-15
3.27398
-1.55431e-15
3.27398
-1.63758e-15
3.27398
-1.69309e-15
3.27398
-1.77636e-15
3.27398
-1.91513e-15
3.27398
-2.23432e-15
3.27398
-2.51188e-15
3.27398
-2.65066e-15
3.27398
-2.58127e-15
3.27398
-2.45637e-15
3.27398
-2.22045e-15
3.27398
-1.91513e-15
3.27398
-1.7486e-15
3.27398
-1.60982e-15
3.27398
-1.51268e-15
3.27398
-1.36002e-15
3.27398
-1.16573e-15
3.27398
-9.71445e-16
3.27398
-8.60423e-16
3.27398
-7.49401e-16
3.27398
-7.63278e-16
3.27398
-9.29812e-16
3.27398
-1.16573e-15
3.27398
-1.34615e-15
3.27398
-1.42941e-15
3.27398
-1.3739e-15
3.27398
-1.42941e-15
3.27398
-1.65146e-15
3.27398
-1.84575e-15
3.27398
-1.98452e-15
3.27398
-2.20657e-15
3.27398
-2.31759e-15
3.27398
-2.33147e-15
3.27398
-2.28983e-15
3.27398
-2.2482e-15
3.27398
-2.28983e-15
3.27398
-2.28983e-15
3.27398
-2.2482e-15
3.27398
-2.16493e-15
3.27398
-1.97065e-15
3.27398
-1.7486e-15
3.27398
-1.63758e-15
3.27398
-1.60982e-15
3.27398
-1.59595e-15
3.27398
-1.65146e-15
3.27398
-1.76248e-15
3.27398
-1.92901e-15
3.27398
-2.1233e-15
3.27398
-2.31759e-15
3.27398
-2.30371e-15
3.27398
-2.22045e-15
3.27398
-2.13718e-15
3.27398
-2.26208e-15
3.27398
-2.41474e-15
3.27398
-2.44249e-15
3.27398
-2.38698e-15
3.27398
-2.16493e-15
3.27398
-1.88738e-15
3.27398
-1.67921e-15
3.27398
-1.4988e-15
3.27398
-1.33227e-15
3.27398
-1.34615e-15
3.27398
-1.48492e-15
3.27398
-1.70697e-15
3.27398
-2.01228e-15
3.27398
-2.22045e-15
3.27398
-2.45637e-15
3.27398
-2.59515e-15
3.27398
-2.60902e-15
3.27398
-2.56739e-15
3.27398
-2.31759e-15
3.27398
-2.09555e-15
3.27398
-1.92901e-15
3.27398
-1.88738e-15
3.27398
-1.94289e-15
3.27398
-2.05391e-15
3.27398
-2.09555e-15
3.27398
-2.02616e-15
3.27398
-1.91513e-15
3.27398
-1.81799e-15
3.27398
-1.83187e-15
3.27398
-1.76248e-15
3.27398
-1.63758e-15
3.27398
-1.6237e-15
3.27398
-1.72085e-15
3.27398
-1.95677e-15
3.27398
-2.20657e-15
3.27398
-2.48412e-15
3.27398
-2.70617e-15
3.27398
-2.70617e-15
3.27398
-2.65066e-15
3.27398
-2.73392e-15
3.27398
-2.73392e-15
3.27398
-2.63678e-15
3.27398
-2.63678e-15
3.27398
-2.73392e-15
3.27398
-2.73392e-15
3.27398
-2.65066e-15
3.27398
-2.6229e-15
3.27398
-2.67841e-15
3.27398
-2.78944e-15
3.27398
-2.85882e-15
3.27398
-2.92821e-15
3.27398
-2.88658e-15
3.27398
-2.7478e-15
3.27398
-2.6229e-15
3.27398
-2.60902e-15
3.27398
-2.55351e-15
3.27398
-2.47025e-15
3.27398
-2.40086e-15
3.27398
-2.28983e-15
3.27398
-2.22045e-15
3.27398
-2.17881e-15
3.27398
-2.19269e-15
3.27398
-2.23432e-15
3.27398
-2.22045e-15
3.27398
-2.498e-15
3.27398
-2.83107e-15
3.27398
-3.17801e-15
3.27398
-3.41394e-15
3.27398
-3.38618e-15
3.27398
-3.06699e-15
3.27398
-2.78944e-15
3.27398
-2.498e-15
3.27398
-2.22045e-15
3.27398
-1.94289e-15
3.27398
-1.66533e-15
3.27398
-1.63758e-15
3.27398
-1.79023e-15
3.27398
-1.9984e-15
3.27398
-2.09555e-15
3.27398
-2.04003e-15
3.27398
-1.97065e-15
3.27398
-1.76248e-15
3.27398
-1.69309e-15
3.27398
-1.67921e-15
3.27398
-1.67921e-15
3.27398
-1.73472e-15
3.27398
-1.77636e-15
3.27398
-1.92901e-15
3.27398
-1.94289e-15
3.27398
-1.83187e-15
3.27398
-1.67921e-15
3.27398
-1.55431e-15
3.27398
-1.41553e-15
3.27398
-1.40166e-15
3.27398
-1.58207e-15
3.27398
-1.8735e-15
3.27398
-2.23432e-15
3.27398
-2.63678e-15
3.27398
-2.90046e-15
3.27398
-2.88658e-15
3.27398
-2.73392e-15
3.27398
-2.60902e-15
3.27398
-2.48412e-15
3.27398
-2.47025e-15
3.27398
-2.45637e-15
3.27398
-2.47025e-15
3.27398
-2.44249e-15
3.27398
-2.33147e-15
3.27398
-2.1233e-15
3.27398
-1.55431e-15
3.27398
-5.82867e-16
3.27398
7.49401e-16
3.27398
2.59515e-15
3.27398
5.27356e-15
3.27398
9.76996e-15
3.27398
1.71391e-14
3.27398
2.94487e-14
3.27398
4.97102e-14
3.27398
8.33361e-14
3.27398
1.39055e-13
3.27398
2.31107e-13
3.27398
3.8318e-13
3.27398
6.34687e-13
3.27398
1.0506e-12
3.27398
1.73873e-12
3.27398
2.87749e-12
3.27398
4.76269e-12
3.27398
7.88464e-12
3.27398
1.30569e-11
3.27398
2.16294e-11
3.27398
3.58432e-11
3.27398
5.94198e-11
3.27398
9.85425e-11
3.27398
1.63489e-10
3.27398
2.71352e-10
3.27398
4.50566e-10
3.27398
7.48463e-10
3.27398
1.24386e-09
3.27398
2.06807e-09
3.27398
3.43998e-09
3.27398
5.7246e-09
3.27398
9.53095e-09
3.27398
1.58756e-08
3.27398
2.64565e-08
3.27398
4.41105e-08
3.27398
7.35802e-08
3.27398
1.22798e-07
3.27398
2.05036e-07
3.27398
3.42516e-07
3.27398
5.72455e-07
3.27398
9.57215e-07
3.27398
1.60134e-06
3.27398
2.68016e-06
3.27398
4.48785e-06
3.27397
7.51814e-06
3.27397
1.26001e-05
3.27397
2.11263e-05
3.27396
3.54372e-05
3.27395
5.94676e-05
3.27393
9.98376e-05
3.2739
0.000167695
3.27386
0.000281836
3.27381
0.000474017
3.27375
0.000798053
3.27369
0.00134563
3.27367
0.00227392
3.2738
0.00385596
3.27438
0.00657007
3.27607
0.0112791
3.28066
0.019504
0.0341538
3.29193
3.27398
-8.32667e-17
3.27398
-9.71445e-17
3.27398
-2.77556e-17
3.27398
4.16334e-17
3.27398
8.32667e-17
3.27398
5.5819e-49
3.27398
-5.55112e-17
3.27398
-1.38778e-16
3.27398
-2.63678e-16
3.27398
-3.33067e-16
3.27398
-3.19189e-16
3.27398
-2.77556e-16
3.27398
-3.05311e-16
3.27398
-4.996e-16
3.27398
-6.38378e-16
3.27398
-5.82867e-16
3.27398
-6.245e-16
3.27398
-7.21645e-16
3.27398
-7.07767e-16
3.27398
-6.38378e-16
3.27398
-6.80012e-16
3.27398
-8.18789e-16
3.27398
-9.57567e-16
3.27398
-1.08247e-15
3.27398
-1.1241e-15
3.27398
-9.85323e-16
3.27398
-8.32667e-16
3.27398
-8.74301e-16
3.27398
-1.06859e-15
3.27398
-1.23512e-15
3.27398
-1.3739e-15
3.27398
-1.47105e-15
3.27398
-1.54043e-15
3.27398
-1.40166e-15
3.27398
-1.26288e-15
3.27398
-1.05471e-15
3.27398
-9.29812e-16
3.27398
-8.88178e-16
3.27398
-8.74301e-16
3.27398
-7.91034e-16
3.27398
-6.93889e-16
3.27398
-7.07767e-16
3.27398
-7.77156e-16
3.27398
-8.74301e-16
3.27398
-9.99201e-16
3.27398
-1.04083e-15
3.27398
-1.08247e-15
3.27398
-1.11022e-15
3.27398
-1.16573e-15
3.27398
-1.42941e-15
3.27398
-1.63758e-15
3.27398
-1.76248e-15
3.27398
-1.80411e-15
3.27398
-1.79023e-15
3.27398
-1.60982e-15
3.27398
-1.31839e-15
3.27398
-1.11022e-15
3.27398
-1.01308e-15
3.27398
-1.20737e-15
3.27398
-1.4988e-15
3.27398
-1.66533e-15
3.27398
-1.77636e-15
3.27398
-1.81799e-15
3.27398
-1.8735e-15
3.27398
-1.76248e-15
3.27398
-1.56819e-15
3.27398
-1.44329e-15
3.27398
-1.41553e-15
3.27398
-1.45717e-15
3.27398
-1.30451e-15
3.27398
-1.09635e-15
3.27398
-1.11022e-15
3.27398
-1.13798e-15
3.27398
-1.13798e-15
3.27398
-1.09635e-15
3.27398
-1.05471e-15
3.27398
-1.05471e-15
3.27398
-1.15186e-15
3.27398
-1.20737e-15
3.27398
-1.13798e-15
3.27398
-1.01308e-15
3.27398
-9.85323e-16
3.27398
-1.16573e-15
3.27398
-1.45717e-15
3.27398
-1.77636e-15
3.27398
-2.04003e-15
3.27398
-2.1233e-15
3.27398
-1.94289e-15
3.27398
-1.79023e-15
3.27398
-1.63758e-15
3.27398
-1.44329e-15
3.27398
-1.22125e-15
3.27398
-1.09635e-15
3.27398
-1.16573e-15
3.27398
-1.33227e-15
3.27398
-1.55431e-15
3.27398
-1.76248e-15
3.27398
-1.95677e-15
3.27398
-1.94289e-15
3.27398
-1.73472e-15
3.27398
-1.55431e-15
3.27398
-1.48492e-15
3.27398
-1.47105e-15
3.27398
-1.42941e-15
3.27398
-1.42941e-15
3.27398
-1.47105e-15
3.27398
-1.58207e-15
3.27398
-1.80411e-15
3.27398
-2.15106e-15
3.27398
-2.33147e-15
3.27398
-2.41474e-15
3.27398
-2.34535e-15
3.27398
-2.30371e-15
3.27398
-2.15106e-15
3.27398
-2.1233e-15
3.27398
-2.04003e-15
3.27398
-1.92901e-15
3.27398
-1.80411e-15
3.27398
-1.73472e-15
3.27398
-1.72085e-15
3.27398
-1.7486e-15
3.27398
-1.80411e-15
3.27398
-1.88738e-15
3.27398
-2.02616e-15
3.27398
-2.10942e-15
3.27398
-2.17881e-15
3.27398
-2.31759e-15
3.27398
-2.28983e-15
3.27398
-2.13718e-15
3.27398
-2.05391e-15
3.27398
-2.08167e-15
3.27398
-2.16493e-15
3.27398
-2.17881e-15
3.27398
-2.26208e-15
3.27398
-2.35922e-15
3.27398
-2.38698e-15
3.27398
-2.35922e-15
3.27398
-2.34535e-15
3.27398
-2.30371e-15
3.27398
-2.16493e-15
3.27398
-2.04003e-15
3.27398
-1.9984e-15
3.27398
-2.16493e-15
3.27398
-2.45637e-15
3.27398
-2.76168e-15
3.27398
-2.98372e-15
3.27398
-2.95597e-15
3.27398
-2.80331e-15
3.27398
-2.59515e-15
3.27398
-2.35922e-15
3.27398
-2.17881e-15
3.27398
-2.06779e-15
3.27398
-2.01228e-15
3.27398
-1.97065e-15
3.27398
-1.91513e-15
3.27398
-1.90126e-15
3.27398
-1.91513e-15
3.27398
-1.91513e-15
3.27398
-1.95677e-15
3.27398
-2.04003e-15
3.27398
-2.22045e-15
3.27398
-2.47025e-15
3.27398
-2.76168e-15
3.27398
-3.02536e-15
3.27398
-3.20577e-15
3.27398
-3.35842e-15
3.27398
-3.42781e-15
3.27398
-3.44169e-15
3.27398
-3.28904e-15
3.27398
-3.13638e-15
3.27398
-2.95597e-15
3.27398
-2.81719e-15
3.27398
-2.63678e-15
3.27398
-2.40086e-15
3.27398
-2.20657e-15
3.27398
-2.19269e-15
3.27398
-2.27596e-15
3.27398
-2.41474e-15
3.27398
-2.53964e-15
3.27398
-2.58127e-15
3.27398
-2.6229e-15
3.27398
-2.6229e-15
3.27398
-2.56739e-15
3.27398
-2.48412e-15
3.27398
-2.45637e-15
3.27398
-2.3731e-15
3.27398
-2.42861e-15
3.27398
-2.66454e-15
3.27398
-2.85882e-15
3.27398
-2.96985e-15
3.27398
-2.91434e-15
3.27398
-2.83107e-15
3.27398
-2.66454e-15
3.27398
-2.44249e-15
3.27398
-2.17881e-15
3.27398
-2.09555e-15
3.27398
-2.17881e-15
3.27398
-2.30371e-15
3.27398
-2.41474e-15
3.27398
-2.30371e-15
3.27398
-2.1233e-15
3.27398
-1.97065e-15
3.27398
-1.80411e-15
3.27398
-1.55431e-15
3.27398
-1.30451e-15
3.27398
-1.11022e-15
3.27398
-9.71445e-16
3.27398
-1.06859e-15
3.27398
-1.30451e-15
3.27398
-1.4988e-15
3.27398
-1.73472e-15
3.27398
-2.04003e-15
3.27398
-2.40086e-15
3.27398
-2.6229e-15
3.27398
-2.63678e-15
3.27398
-2.53964e-15
3.27398
-2.48412e-15
3.27398
-2.41474e-15
3.27398
-2.20657e-15
3.27398
-1.97065e-15
3.27398
-1.73472e-15
3.27398
-1.54043e-15
3.27398
-1.40166e-15
3.27398
-1.36002e-15
3.27398
-1.48492e-15
3.27398
-1.47105e-15
3.27398
-1.33227e-15
3.27398
-1.23512e-15
3.27398
-1.23512e-15
3.27398
-1.33227e-15
3.27398
-1.38778e-15
3.27398
-1.38778e-15
3.27398
-1.47105e-15
3.27398
-1.76248e-15
3.27398
-2.23432e-15
3.27398
-2.63678e-15
3.27398
-2.7478e-15
3.27398
-2.59515e-15
3.27398
-2.26208e-15
3.27398
-1.44329e-15
3.27398
8.32667e-17
3.27398
2.45637e-15
3.27398
6.21725e-15
3.27398
1.20876e-14
3.27398
2.18436e-14
3.27398
3.77337e-14
3.27398
6.38239e-14
3.27398
1.06526e-13
3.27398
1.76678e-13
3.27398
2.92211e-13
3.27398
4.82586e-13
3.27398
7.95974e-13
3.27398
1.31216e-12
3.27398
2.16255e-12
3.27398
3.56366e-12
3.27398
5.87261e-12
3.27398
9.67852e-12
3.27398
1.59526e-11
3.27398
2.62977e-11
3.27398
4.33586e-11
3.27398
7.15004e-11
3.27398
1.17927e-10
3.27398
1.94533e-10
3.27398
3.20954e-10
3.27398
5.29619e-10
3.27398
8.74083e-10
3.27398
1.44281e-09
3.27398
2.38192e-09
3.27398
3.93283e-09
3.27398
6.49442e-09
3.27398
1.07257e-08
3.27398
1.77158e-08
3.27398
2.92642e-08
3.27398
4.83443e-08
3.27398
7.98696e-08
3.27398
1.31958e-07
3.27398
2.18023e-07
3.27398
3.60218e-07
3.27398
5.95138e-07
3.27398
9.83203e-07
3.27398
1.62416e-06
3.27398
2.68262e-06
3.27398
4.43013e-06
3.27398
7.31443e-06
3.27398
1.20734e-05
3.27398
1.99226e-05
3.27398
3.28625e-05
3.27399
5.41843e-05
3.274
8.92981e-05
3.27402
0.000147092
3.27406
0.000242162
3.27414
0.000398477
3.27428
0.000655401
3.27455
0.00107773
3.27505
0.00177227
3.27599
0.00291654
3.27775
0.00480571
3.28109
0.00794334
3.28743
0.0131624
0.0219871
3.29959
3.27398
6.93889e-17
3.27398
1.11022e-16
3.27398
5.55112e-17
3.27398
-8.32667e-17
3.27398
-1.38778e-16
3.27398
-2.77556e-17
3.27398
4.16334e-17
3.27398
1.38778e-17
3.27398
-6.93889e-17
3.27398
-1.80411e-16
3.27398
-2.77556e-16
3.27398
-2.63678e-16
3.27398
-4.44089e-16
3.27398
-4.44089e-16
3.27398
-4.44089e-16
3.27398
-5.13478e-16
3.27398
-5.55112e-16
3.27398
-6.52256e-16
3.27398
-6.93889e-16
3.27398
-6.93889e-16
3.27398
-6.66134e-16
3.27398
-8.04912e-16
3.27398
-1.11022e-15
3.27398
-1.31839e-15
3.27398
-1.26288e-15
3.27398
-1.09635e-15
3.27398
-9.4369e-16
3.27398
-8.74301e-16
3.27398
-8.74301e-16
3.27398
-8.32667e-16
3.27398
-7.77156e-16
3.27398
-7.49401e-16
3.27398
-7.49401e-16
3.27398
-7.91034e-16
3.27398
-7.63278e-16
3.27398
-7.21645e-16
3.27398
-7.77156e-16
3.27398
-9.29812e-16
3.27398
-1.06859e-15
3.27398
-1.23512e-15
3.27398
-1.38778e-15
3.27398
-1.54043e-15
3.27398
-1.66533e-15
3.27398
-1.72085e-15
3.27398
-1.69309e-15
3.27398
-1.6237e-15
3.27398
-1.58207e-15
3.27398
-1.65146e-15
3.27398
-1.66533e-15
3.27398
-1.6237e-15
3.27398
-1.4988e-15
3.27398
-1.33227e-15
3.27398
-1.13798e-15
3.27398
-9.57567e-16
3.27398
-9.02056e-16
3.27398
-8.46545e-16
3.27398
-7.21645e-16
3.27398
-7.21645e-16
3.27398
-8.04912e-16
3.27398
-8.88178e-16
3.27398
-9.85323e-16
3.27398
-1.05471e-15
3.27398
-1.06859e-15
3.27398
-1.01308e-15
3.27398
-8.74301e-16
3.27398
-7.21645e-16
3.27398
-6.52256e-16
3.27398
-7.63278e-16
3.27398
-9.71445e-16
3.27398
-1.20737e-15
3.27398
-1.42941e-15
3.27398
-1.45717e-15
3.27398
-1.3739e-15
3.27398
-1.31839e-15
3.27398
-1.33227e-15
3.27398
-1.45717e-15
3.27398
-1.60982e-15
3.27398
-1.72085e-15
3.27398
-1.65146e-15
3.27398
-1.42941e-15
3.27398
-1.249e-15
3.27398
-1.06859e-15
3.27398
-8.88178e-16
3.27398
-7.63278e-16
3.27398
-9.4369e-16
3.27398
-1.17961e-15
3.27398
-1.3739e-15
3.27398
-1.47105e-15
3.27398
-1.55431e-15
3.27398
-1.54043e-15
3.27398
-1.33227e-15
3.27398
-1.04083e-15
3.27398
-9.57567e-16
3.27398
-1.02696e-15
3.27398
-1.13798e-15
3.27398
-1.34615e-15
3.27398
-1.60982e-15
3.27398
-1.83187e-15
3.27398
-1.88738e-15
3.27398
-1.88738e-15
3.27398
-1.95677e-15
3.27398
-1.9984e-15
3.27398
-1.9984e-15
3.27398
-1.98452e-15
3.27398
-1.90126e-15
3.27398
-1.92901e-15
3.27398
-1.85962e-15
3.27398
-1.77636e-15
3.27398
-1.76248e-15
3.27398
-1.80411e-15
3.27398
-1.83187e-15
3.27398
-1.91513e-15
3.27398
-1.84575e-15
3.27398
-1.77636e-15
3.27398
-1.72085e-15
3.27398
-1.73472e-15
3.27398
-1.80411e-15
3.27398
-1.90126e-15
3.27398
-1.97065e-15
3.27398
-1.91513e-15
3.27398
-1.81799e-15
3.27398
-1.67921e-15
3.27398
-1.67921e-15
3.27398
-1.65146e-15
3.27398
-1.66533e-15
3.27398
-1.56819e-15
3.27398
-1.60982e-15
3.27398
-1.81799e-15
3.27398
-1.94289e-15
3.27398
-1.79023e-15
3.27398
-1.63758e-15
3.27398
-1.6237e-15
3.27398
-1.79023e-15
3.27398
-1.9984e-15
3.27398
-2.23432e-15
3.27398
-2.33147e-15
3.27398
-2.48412e-15
3.27398
-2.51188e-15
3.27398
-2.3731e-15
3.27398
-2.22045e-15
3.27398
-2.17881e-15
3.27398
-2.28983e-15
3.27398
-2.41474e-15
3.27398
-2.60902e-15
3.27398
-2.8727e-15
3.27398
-3.01148e-15
3.27398
-3.10862e-15
3.27398
-3.02536e-15
3.27398
-2.70617e-15
3.27398
-2.33147e-15
3.27398
-1.91513e-15
3.27398
-1.66533e-15
3.27398
-1.55431e-15
3.27398
-1.56819e-15
3.27398
-1.6237e-15
3.27398
-1.8735e-15
3.27398
-2.23432e-15
3.27398
-2.498e-15
3.27398
-2.76168e-15
3.27398
-3.01148e-15
3.27398
-3.21965e-15
3.27398
-3.45557e-15
3.27398
-3.58047e-15
3.27398
-3.53884e-15
3.27398
-3.44169e-15
3.27398
-3.15026e-15
3.27398
-2.95597e-15
3.27398
-2.95597e-15
3.27398
-2.98372e-15
3.27398
-2.94209e-15
3.27398
-2.90046e-15
3.27398
-2.91434e-15
3.27398
-2.95597e-15
3.27398
-3.01148e-15
3.27398
-3.03924e-15
3.27398
-3.20577e-15
3.27398
-3.35842e-15
3.27398
-3.28904e-15
3.27398
-3.23352e-15
3.27398
-3.28904e-15
3.27398
-3.40006e-15
3.27398
-3.31679e-15
3.27398
-3.02536e-15
3.27398
-2.78944e-15
3.27398
-2.52576e-15
3.27398
-2.30371e-15
3.27398
-2.2482e-15
3.27398
-2.40086e-15
3.27398
-2.63678e-15
3.27398
-2.8727e-15
3.27398
-3.16414e-15
3.27398
-3.30291e-15
3.27398
-3.30291e-15
3.27398
-3.08087e-15
3.27398
-2.69229e-15
3.27398
-2.28983e-15
3.27398
-2.06779e-15
3.27398
-2.1233e-15
3.27398
-2.3731e-15
3.27398
-2.67841e-15
3.27398
-3.02536e-15
3.27398
-3.09475e-15
3.27398
-2.91434e-15
3.27398
-2.53964e-15
3.27398
-2.04003e-15
3.27398
-1.67921e-15
3.27398
-1.45717e-15
3.27398
-1.20737e-15
3.27398
-1.02696e-15
3.27398
-1.09635e-15
3.27398
-1.3739e-15
3.27398
-1.76248e-15
3.27398
-2.20657e-15
3.27398
-2.41474e-15
3.27398
-2.34535e-15
3.27398
-2.2482e-15
3.27398
-1.98452e-15
3.27398
-1.79023e-15
3.27398
-1.73472e-15
3.27398
-1.69309e-15
3.27398
-1.7486e-15
3.27398
-1.80411e-15
3.27398
-1.79023e-15
3.27398
-1.72085e-15
3.27398
-1.72085e-15
3.27398
-1.72085e-15
3.27398
-1.51268e-15
3.27398
-1.30451e-15
3.27398
-1.30451e-15
3.27398
-1.36002e-15
3.27398
-1.47105e-15
3.27398
-1.59595e-15
3.27398
-1.65146e-15
3.27398
-1.58207e-15
3.27398
-1.51268e-15
3.27398
-1.29063e-15
3.27398
-8.74301e-16
3.27398
-4.71845e-16
3.27398
-2.08167e-16
3.27398
3.60822e-16
3.27398
1.69309e-15
3.27398
4.06619e-15
3.27398
8.06299e-15
3.27398
1.44884e-14
3.27398
2.4869e-14
3.27398
4.18554e-14
3.27398
6.96804e-14
3.27398
1.15158e-13
3.27398
1.89584e-13
3.27398
3.11584e-13
3.27398
5.11868e-13
3.27398
8.40591e-13
3.27398
1.37948e-12
3.27398
2.26304e-12
3.27398
3.71186e-12
3.27398
6.08763e-12
3.27398
9.98349e-12
3.27398
1.63723e-11
3.27398
2.68493e-11
3.27398
4.40297e-11
3.27398
7.22024e-11
3.27398
1.18399e-10
3.27398
1.94147e-10
3.27398
3.18346e-10
3.27398
5.21972e-10
3.27398
8.55794e-10
3.27398
1.40301e-09
3.27398
2.29992e-09
3.27398
3.76982e-09
3.27398
6.17841e-09
3.27398
1.01245e-08
3.27398
1.65881e-08
3.27398
2.71734e-08
3.27398
4.45042e-08
3.27398
7.28714e-08
3.27398
1.19289e-07
3.27398
1.95216e-07
3.27398
3.19367e-07
3.27398
5.22287e-07
3.27398
8.53796e-07
3.27398
1.39511e-06
3.27398
2.2785e-06
3.27398
3.71929e-06
3.27398
6.06758e-06
3.27398
9.89219e-06
3.27399
1.61163e-05
3.274
2.62368e-05
3.27401
4.26776e-05
3.27403
6.936e-05
3.27406
0.00011262
3.27412
0.000182683
3.27422
0.000296041
3.2744
0.000479272
3.2747
0.000775238
3.27522
0.00125302
3.27611
0.00202464
3.27765
0.00327111
3.2803
0.00529181
3.28489
0.00856589
0.0139441
3.29294
3.27398
5.55112e-17
3.27398
9.71445e-17
3.27398
1.66533e-16
3.27398
3.19189e-16
3.27398
3.60822e-16
3.27398
4.02456e-16
3.27398
4.30211e-16
3.27398
4.57967e-16
3.27398
4.44089e-16
3.27398
4.16334e-16
3.27398
4.16334e-16
3.27398
2.91434e-16
3.27398
2.35922e-16
3.27398
1.66533e-16
3.27398
9.71445e-17
3.27398
-1.38778e-17
3.27398
2.44633e-31
3.27398
-1.38778e-17
3.27398
-4.16334e-17
3.27398
-9.71445e-17
3.27398
-1.38778e-16
3.27398
-3.05311e-16
3.27398
-4.996e-16
3.27398
-5.82867e-16
3.27398
-5.13478e-16
3.27398
-5.41234e-16
3.27398
-6.10623e-16
3.27398
-4.71845e-16
3.27398
-2.63678e-16
3.27398
-6.93889e-17
3.27398
-2.77556e-17
3.27398
1.63089e-31
3.27398
-1.38778e-17
3.27398
-1.38778e-17
3.27398
-4.16334e-17
3.27398
-1.80411e-16
3.27398
-3.05311e-16
3.27398
-4.85723e-16
3.27398
-7.77156e-16
3.27398
-1.13798e-15
3.27398
-1.42941e-15
3.27398
-1.6237e-15
3.27398
-1.65146e-15
3.27398
-1.59595e-15
3.27398
-1.45717e-15
3.27398
-1.36002e-15
3.27398
-1.23512e-15
3.27398
-1.08247e-15
3.27398
-9.4369e-16
3.27398
-7.77156e-16
3.27398
-6.10623e-16
3.27398
-4.30211e-16
3.27398
-4.57967e-16
3.27398
-6.245e-16
3.27398
-9.15934e-16
3.27398
-1.17961e-15
3.27398
-1.31839e-15
3.27398
-1.41553e-15
3.27398
-1.44329e-15
3.27398
-1.42941e-15
3.27398
-1.26288e-15
3.27398
-1.08247e-15
3.27398
-1.04083e-15
3.27398
-1.23512e-15
3.27398
-1.33227e-15
3.27398
-1.38778e-15
3.27398
-1.48492e-15
3.27398
-1.67921e-15
3.27398
-1.84575e-15
3.27398
-1.94289e-15
3.27398
-2.04003e-15
3.27398
-2.05391e-15
3.27398
-2.06779e-15
3.27398
-2.10942e-15
3.27398
-2.22045e-15
3.27398
-2.22045e-15
3.27398
-2.13718e-15
3.27398
-1.9984e-15
3.27398
-1.84575e-15
3.27398
-1.70697e-15
3.27398
-1.63758e-15
3.27398
-1.45717e-15
3.27398
-1.13798e-15
3.27398
-8.32667e-16
3.27398
-8.04912e-16
3.27398
-9.57567e-16
3.27398
-1.16573e-15
3.27398
-1.4988e-15
3.27398
-1.83187e-15
3.27398
-2.10942e-15
3.27398
-2.38698e-15
3.27398
-2.34535e-15
3.27398
-1.94289e-15
3.27398
-1.48492e-15
3.27398
-1.09635e-15
3.27398
-7.63278e-16
3.27398
-6.245e-16
3.27398
-6.66134e-16
3.27398
-7.35523e-16
3.27398
-8.60423e-16
3.27398
-1.05471e-15
3.27398
-1.34615e-15
3.27398
-1.69309e-15
3.27398
-1.90126e-15
3.27398
-2.06779e-15
3.27398
-2.2482e-15
3.27398
-2.34535e-15
3.27398
-2.30371e-15
3.27398
-2.19269e-15
3.27398
-2.09555e-15
3.27398
-1.98452e-15
3.27398
-1.81799e-15
3.27398
-1.7486e-15
3.27398
-1.8735e-15
3.27398
-1.95677e-15
3.27398
-1.92901e-15
3.27398
-1.97065e-15
3.27398
-2.04003e-15
3.27398
-2.08167e-15
3.27398
-2.16493e-15
3.27398
-2.09555e-15
3.27398
-1.91513e-15
3.27398
-1.59595e-15
3.27398
-1.22125e-15
3.27398
-1.02696e-15
3.27398
-1.11022e-15
3.27398
-1.31839e-15
3.27398
-1.55431e-15
3.27398
-1.8735e-15
3.27398
-2.15106e-15
3.27398
-2.33147e-15
3.27398
-2.48412e-15
3.27398
-2.42861e-15
3.27398
-2.2482e-15
3.27398
-2.17881e-15
3.27398
-2.2482e-15
3.27398
-2.2482e-15
3.27398
-2.30371e-15
3.27398
-2.26208e-15
3.27398
-2.31759e-15
3.27398
-2.498e-15
3.27398
-2.72005e-15
3.27398
-2.8727e-15
3.27398
-2.77556e-15
3.27398
-2.59515e-15
3.27398
-2.59515e-15
3.27398
-2.67841e-15
3.27398
-2.81719e-15
3.27398
-2.83107e-15
3.27398
-2.77556e-15
3.27398
-2.47025e-15
3.27398
-2.16493e-15
3.27398
-1.94289e-15
3.27398
-1.69309e-15
3.27398
-1.66533e-15
3.27398
-1.73472e-15
3.27398
-1.88738e-15
3.27398
-1.9984e-15
3.27398
-2.08167e-15
3.27398
-2.20657e-15
3.27398
-2.41474e-15
3.27398
-2.56739e-15
3.27398
-2.72005e-15
3.27398
-2.76168e-15
3.27398
-2.7478e-15
3.27398
-2.70617e-15
3.27398
-2.67841e-15
3.27398
-2.52576e-15
3.27398
-2.28983e-15
3.27398
-2.2482e-15
3.27398
-2.35922e-15
3.27398
-2.55351e-15
3.27398
-2.67841e-15
3.27398
-2.70617e-15
3.27398
-2.80331e-15
3.27398
-2.77556e-15
3.27398
-2.73392e-15
3.27398
-2.69229e-15
3.27398
-2.59515e-15
3.27398
-2.53964e-15
3.27398
-2.66454e-15
3.27398
-2.83107e-15
3.27398
-2.90046e-15
3.27398
-2.6229e-15
3.27398
-2.38698e-15
3.27398
-2.30371e-15
3.27398
-2.20657e-15
3.27398
-1.92901e-15
3.27398
-1.73472e-15
3.27398
-1.72085e-15
3.27398
-1.85962e-15
3.27398
-2.08167e-15
3.27398
-2.22045e-15
3.27398
-2.31759e-15
3.27398
-2.2482e-15
3.27398
-2.08167e-15
3.27398
-2.05391e-15
3.27398
-2.1233e-15
3.27398
-2.19269e-15
3.27398
-2.22045e-15
3.27398
-2.26208e-15
3.27398
-2.30371e-15
3.27398
-2.26208e-15
3.27398
-2.22045e-15
3.27398
-2.34535e-15
3.27398
-2.45637e-15
3.27398
-2.53964e-15