/*--------------------------------*- C++ -*----------------------------------*\
| =========                 |                                                 |
| \\      /  F ield         | OpenFOAM: The Open Source CFD Toolbox           |
|  \\    /   O peration     | Version:  2412                                  |
|   \\  /    A nd           | Website:  www.openfoam.com                      |
|    \\/     M anipulation  |                                                 |
\*---------------------------------------------------------------------------*/
FoamFile
{
    version     2.0;
    format      ascii;
    arch        "LSB;label=32;scalar=64";
    class       surfaceScalarField;
    location    "0.0045";
    object      phi_0;
}
// * * * * * * * * * * * * * * * * * * * * * * * * * * * * * * * * * * * * * //

dimensions      [1 0 -1 0 0 0 0];

oriented        oriented;

internalField   nonuniform List<scalar> 
359100
(
3.27398
1.38778e-17
3.27398
6.93889e-17
3.27398
1.38778e-16
3.27398
5.55112e-17
3.27398
-1.01931e-32
3.27398
-6.93889e-17
3.27398
-1.11022e-16
3.27398
-1.52656e-16
3.27398
-2.91434e-16
3.27398
-4.44089e-16
3.27398
-5.13478e-16
3.27398
-7.21645e-16
3.27398
-8.60423e-16
3.27398
-9.02056e-16
3.27398
-1.02696e-15
3.27398
-1.29063e-15
3.27398
-1.40166e-15
3.27398
-1.58207e-15
3.27398
-1.63758e-15
3.27398
-1.6237e-15
3.27398
-1.54043e-15
3.27398
-1.44329e-15
3.27398
-1.16573e-15
3.27398
-9.29812e-16
3.27398
-9.71445e-16
3.27398
-1.16573e-15
3.27398
-1.3739e-15
3.27398
-1.4988e-15
3.27398
-1.54043e-15
3.27398
-1.41553e-15
3.27398
-1.3739e-15
3.27398
-1.20737e-15
3.27398
-1.1241e-15
3.27398
-1.11022e-15
3.27398
-1.01308e-15
3.27398
-9.57567e-16
3.27398
-9.99201e-16
3.27398
-1.05471e-15
3.27398
-1.17961e-15
3.27398
-1.31839e-15
3.27398
-1.3739e-15
3.27398
-1.38778e-15
3.27398
-1.38778e-15
3.27398
-1.40166e-15
3.27398
-1.40166e-15
3.27398
-1.42941e-15
3.27398
-1.42941e-15
3.27398
-1.40166e-15
3.27398
-1.19349e-15
3.27398
-1.02696e-15
3.27398
-9.57567e-16
3.27398
-9.29812e-16
3.27398
-9.85323e-16
3.27398
-1.09635e-15
3.27398
-1.01308e-15
3.27398
-9.4369e-16
3.27398
-8.32667e-16
3.27398
-7.63278e-16
3.27398
-7.49401e-16
3.27398
-8.32667e-16
3.27398
-9.85323e-16
3.27398
-1.17961e-15
3.27398
-1.38778e-15
3.27398
-1.51268e-15
3.27398
-1.85962e-15
3.27398
-2.31759e-15
3.27398
-2.6229e-15
3.27398
-2.60902e-15
3.27398
-2.56739e-15
3.27398
-2.44249e-15
3.27398
-2.35922e-15
3.27398
-2.19269e-15
3.27398
-2.05391e-15
3.27398
-1.91513e-15
3.27398
-1.84575e-15
3.27398
-1.97065e-15
3.27398
-2.27596e-15
3.27398
-2.51188e-15
3.27398
-2.498e-15
3.27398
-2.51188e-15
3.27398
-2.69229e-15
3.27398
-2.78944e-15
3.27398
-2.72005e-15
3.27398
-2.60902e-15
3.27398
-2.26208e-15
3.27398
-2.01228e-15
3.27398
-1.83187e-15
3.27398
-1.65146e-15
3.27398
-1.31839e-15
3.27398
-1.08247e-15
3.27398
-9.4369e-16
3.27398
-7.21645e-16
3.27398
-5.13478e-16
3.27398
-4.16334e-16
3.27398
-4.02456e-16
3.27398
-5.82867e-16
3.27398
-8.04912e-16
3.27398
-1.09635e-15
3.27398
-1.47105e-15
3.27398
-1.7486e-15
3.27398
-1.8735e-15
3.27398
-2.02616e-15
3.27398
-2.16493e-15
3.27398
-2.38698e-15
3.27398
-2.56739e-15
3.27398
-2.63678e-15
3.27398
-2.53964e-15
3.27398
-2.20657e-15
3.27398
-1.92901e-15
3.27398
-1.90126e-15
3.27398
-1.9984e-15
3.27398
-2.06779e-15
3.27398
-2.01228e-15
3.27398
-2.01228e-15
3.27398
-2.08167e-15
3.27398
-2.33147e-15
3.27398
-2.498e-15
3.27398
-2.59515e-15
3.27398
-2.67841e-15
3.27398
-2.69229e-15
3.27398
-2.67841e-15
3.27398
-2.56739e-15
3.27398
-2.45637e-15
3.27398
-2.55351e-15
3.27398
-2.65066e-15
3.27398
-2.63678e-15
3.27398
-2.40086e-15
3.27398
-2.20657e-15
3.27398
-2.27596e-15
3.27398
-2.33147e-15
3.27398
-2.30371e-15
3.27398
-2.13718e-15
3.27398
-1.97065e-15
3.27398
-1.81799e-15
3.27398
-1.80411e-15
3.27398
-1.76248e-15
3.27398
-1.66533e-15
3.27398
-1.59595e-15
3.27398
-1.70697e-15
3.27398
-1.81799e-15
3.27398
-1.92901e-15
3.27398
-1.8735e-15
3.27398
-1.76248e-15
3.27398
-1.55431e-15
3.27398
-1.41553e-15
3.27398
-1.42941e-15
3.27398
-1.55431e-15
3.27398
-1.52656e-15
3.27398
-1.45717e-15
3.27398
-1.40166e-15
3.27398
-1.45717e-15
3.27398
-1.51268e-15
3.27398
-1.70697e-15
3.27398
-1.81799e-15
3.27398
-1.88738e-15
3.27398
-2.04003e-15
3.27398
-2.26208e-15
3.27398
-2.28983e-15
3.27398
-2.09555e-15
3.27398
-1.98452e-15
3.27398
-1.91513e-15
3.27398
-1.90126e-15
3.27398
-1.79023e-15
3.27398
-1.80411e-15
3.27398
-1.80411e-15
3.27398
-1.67921e-15
3.27398
-1.66533e-15
3.27398
-1.77636e-15
3.27398
-1.72085e-15
3.27398
-1.77636e-15
3.27398
-2.08167e-15
3.27398
-2.38698e-15
3.27398
-2.6229e-15
3.27398
-2.96985e-15
3.27398
-3.21965e-15
3.27398
-3.27516e-15
3.27398
-3.30291e-15
3.27398
-3.26128e-15
3.27398
-3.1225e-15
3.27398
-2.88658e-15
3.27398
-2.55351e-15
3.27398
-2.2482e-15
3.27398
-2.02616e-15
3.27398
-2.04003e-15
3.27398
-2.1233e-15
3.27398
-2.15106e-15
3.27398
-2.2482e-15
3.27398
-2.41474e-15
3.27398
-2.40086e-15
3.27398
-2.26208e-15
3.27398
-2.15106e-15
3.27398
-2.20657e-15
3.27398
-2.41474e-15
3.27398
-2.80331e-15
3.27398
-3.06699e-15
3.27398
-3.17801e-15
3.27398
-3.19189e-15
3.27398
-3.16414e-15
3.27398
-3.1225e-15
3.27398
-3.05311e-15
3.27398
-3.02536e-15
3.27398
-2.98372e-15
3.27398
-2.84495e-15
3.27398
-2.63678e-15
3.27398
-2.23432e-15
3.27398
-1.81799e-15
3.27398
-1.34615e-15
3.27398
-9.71445e-16
3.27398
-7.63278e-16
3.27398
-7.35523e-16
3.27398
-8.46545e-16
3.27398
-9.71445e-16
3.27398
-1.08247e-15
3.27398
-1.16573e-15
3.27398
-1.23512e-15
3.27398
-1.34615e-15
3.27398
-1.30451e-15
3.27398
-1.29063e-15
3.27398
-1.45717e-15
3.27398
-1.69309e-15
3.27398
-1.83187e-15
3.27398
-1.88738e-15
3.27398
-2.04003e-15
3.27398
-2.06779e-15
3.27398
-2.26208e-15
3.27398
-2.56739e-15
3.27398
-2.67841e-15
3.27398
-2.56739e-15
3.27398
-2.41474e-15
3.27398
-2.38698e-15
3.27398
-2.51188e-15
3.27398
-2.59515e-15
3.27398
-2.53964e-15
3.27398
-2.34535e-15
3.27398
-1.94289e-15
3.27398
-1.48492e-15
3.27398
-1.19349e-15
3.27398
-1.08247e-15
3.27398
-1.09635e-15
3.27398
-1.1241e-15
3.27398
-8.74301e-16
3.27398
-1.249e-16
3.27398
1.48492e-15
3.27398
4.16334e-15
3.27398
8.53484e-15
3.27398
1.55292e-14
3.27398
2.70756e-14
3.27398
4.59632e-14
3.27398
7.69801e-14
3.27398
1.28314e-13
3.27398
2.13538e-13
3.27398
3.55133e-13
3.27398
5.9025e-13
3.27398
9.8091e-13
3.27398
1.62977e-12
3.27398
2.70779e-12
3.27398
4.50011e-12
3.27398
7.48186e-12
3.27398
1.24456e-11
3.27398
2.07134e-11
3.27398
3.44939e-11
3.27398
5.74789e-11
3.27398
9.58449e-11
3.27398
1.59933e-10
3.27398
2.67072e-10
3.27398
4.46329e-10
3.27398
7.46505e-10
3.27398
1.24961e-09
3.27398
2.09362e-09
3.27398
3.51088e-09
3.27398
5.89316e-09
3.27398
9.90172e-09
3.27398
1.66541e-08
3.27398
2.80414e-08
3.27398
4.72675e-08
3.27398
7.97687e-08
3.27398
1.34781e-07
3.27398
2.28018e-07
3.27398
3.86257e-07
3.27398
6.55199e-07
3.27398
1.11296e-06
3.27398
1.89329e-06
3.27397
3.2256e-06
3.27397
5.50404e-06
3.27396
9.40708e-06
3.27394
1.61049e-05
3.27391
2.76197e-05
3.27387
4.74545e-05
3.27378
8.16928e-05
3.27364
0.000140929
3.2734
0.000243691
3.27298
0.000422507
3.27224
0.000734982
3.27096
0.0012837
3.2687
0.00225522
3.26471
0.00399075
3.25756
0.00714667
3.2446
0.0129682
3.2205
0.024097
0.0454228
3.17507
3.27398
6.93889e-17
3.27398
6.93889e-17
3.27398
-4.16334e-17
3.27398
-1.38778e-17
3.27398
-1.38778e-17
3.27398
4.16334e-17
3.27398
8.32667e-17
3.27398
8.32667e-17
3.27398
5.55112e-17
3.27398
-1.38778e-17
3.27398
3.05792e-32
3.27398
1.66533e-16
3.27398
1.94289e-16
3.27398
6.11583e-32
3.27398
-2.63678e-16
3.27398
-5.27356e-16
3.27398
-7.21645e-16
3.27398
-7.91034e-16
3.27398
-8.88178e-16
3.27398
-1.02696e-15
3.27398
-1.20737e-15
3.27398
-1.26288e-15
3.27398
-1.26288e-15
3.27398
-1.30451e-15
3.27398
-1.29063e-15
3.27398
-1.34615e-15
3.27398
-1.40166e-15
3.27398
-1.45717e-15
3.27398
-1.54043e-15
3.27398
-1.60982e-15
3.27398
-1.54043e-15
3.27398
-1.44329e-15
3.27398
-1.36002e-15
3.27398
-1.27676e-15
3.27398
-1.1241e-15
3.27398
-1.01308e-15
3.27398
-8.04912e-16
3.27398
-7.91034e-16
3.27398
-8.88178e-16
3.27398
-9.85323e-16
3.27398
-1.04083e-15
3.27398
-1.02696e-15
3.27398
-9.85323e-16
3.27398
-9.99201e-16
3.27398
-1.1241e-15
3.27398
-1.27676e-15
3.27398
-1.27676e-15
3.27398
-1.19349e-15
3.27398
-1.27676e-15
3.27398
-1.51268e-15
3.27398
-1.76248e-15
3.27398
-1.8735e-15
3.27398
-1.80411e-15
3.27398
-1.51268e-15
3.27398
-1.17961e-15
3.27398
-9.57567e-16
3.27398
-9.85323e-16
3.27398
-1.16573e-15
3.27398
-1.30451e-15
3.27398
-1.3739e-15
3.27398
-1.56819e-15
3.27398
-1.77636e-15
3.27398
-1.83187e-15
3.27398
-2.02616e-15
3.27398
-2.16493e-15
3.27398
-2.31759e-15
3.27398
-2.3731e-15
3.27398
-2.19269e-15
3.27398
-1.8735e-15
3.27398
-1.58207e-15
3.27398
-1.45717e-15
3.27398
-1.44329e-15
3.27398
-1.38778e-15
3.27398
-1.44329e-15
3.27398
-1.51268e-15
3.27398
-1.47105e-15
3.27398
-1.44329e-15
3.27398
-1.51268e-15
3.27398
-1.55431e-15
3.27398
-1.55431e-15
3.27398
-1.70697e-15
3.27398
-1.94289e-15
3.27398
-2.2482e-15
3.27398
-2.41474e-15
3.27398
-2.47025e-15
3.27398
-2.38698e-15
3.27398
-2.16493e-15
3.27398
-1.83187e-15
3.27398
-1.65146e-15
3.27398
-1.4988e-15
3.27398
-1.3739e-15
3.27398
-1.29063e-15
3.27398
-1.16573e-15
3.27398
-1.01308e-15
3.27398
-8.74301e-16
3.27398
-7.35523e-16
3.27398
-7.07767e-16
3.27398
-8.32667e-16
3.27398
-1.1241e-15
3.27398
-1.38778e-15
3.27398
-1.45717e-15
3.27398
-1.36002e-15
3.27398
-1.3739e-15
3.27398
-1.52656e-15
3.27398
-1.7486e-15
3.27398
-1.90126e-15
3.27398
-2.05391e-15
3.27398
-2.28983e-15
3.27398
-2.34535e-15
3.27398
-2.31759e-15
3.27398
-2.28983e-15
3.27398
-2.2482e-15
3.27398
-2.22045e-15
3.27398
-2.19269e-15
3.27398
-2.15106e-15
3.27398
-1.9984e-15
3.27398
-1.77636e-15
3.27398
-1.59595e-15
3.27398
-1.56819e-15
3.27398
-1.60982e-15
3.27398
-1.60982e-15
3.27398
-1.65146e-15
3.27398
-1.7486e-15
3.27398
-1.95677e-15
3.27398
-2.16493e-15
3.27398
-2.20657e-15
3.27398
-2.09555e-15
3.27398
-2.05391e-15
3.27398
-2.10942e-15
3.27398
-2.28983e-15
3.27398
-2.40086e-15
3.27398
-2.31759e-15
3.27398
-2.09555e-15
3.27398
-1.8735e-15
3.27398
-1.6237e-15
3.27398
-1.4988e-15
3.27398
-1.3739e-15
3.27398
-1.33227e-15
3.27398
-1.45717e-15
3.27398
-1.66533e-15
3.27398
-1.94289e-15
3.27398
-2.22045e-15
3.27398
-2.42861e-15
3.27398
-2.6229e-15
3.27398
-2.72005e-15
3.27398
-2.67841e-15
3.27398
-2.41474e-15
3.27398
-2.17881e-15
3.27398
-1.94289e-15
3.27398
-1.83187e-15
3.27398
-1.91513e-15
3.27398
-1.98452e-15
3.27398
-2.04003e-15
3.27398
-1.95677e-15
3.27398
-1.8735e-15
3.27398
-1.81799e-15
3.27398
-1.81799e-15
3.27398
-1.76248e-15
3.27398
-1.67921e-15
3.27398
-1.6237e-15
3.27398
-1.72085e-15
3.27398
-1.92901e-15
3.27398
-2.16493e-15
3.27398
-2.3731e-15
3.27398
-2.67841e-15
3.27398
-2.77556e-15
3.27398
-2.70617e-15
3.27398
-2.67841e-15
3.27398
-2.7478e-15
3.27398
-2.69229e-15
3.27398
-2.70617e-15
3.27398
-2.76168e-15
3.27398
-2.78944e-15
3.27398
-2.6229e-15
3.27398
-2.56739e-15
3.27398
-2.63678e-15
3.27398
-2.73392e-15
3.27398
-2.84495e-15
3.27398
-2.90046e-15
3.27398
-2.92821e-15
3.27398
-2.85882e-15
3.27398
-2.67841e-15
3.27398
-2.59515e-15
3.27398
-2.60902e-15
3.27398
-2.51188e-15
3.27398
-2.42861e-15
3.27398
-2.34535e-15
3.27398
-2.31759e-15
3.27398
-2.34535e-15
3.27398
-2.26208e-15
3.27398
-2.26208e-15
3.27398
-2.30371e-15
3.27398
-2.51188e-15
3.27398
-2.8727e-15
3.27398
-3.19189e-15
3.27398
-3.4972e-15
3.27398
-3.52496e-15
3.27398
-3.2474e-15
3.27398
-2.90046e-15
3.27398
-2.59515e-15
3.27398
-2.30371e-15
3.27398
-2.05391e-15
3.27398
-1.77636e-15
3.27398
-1.69309e-15
3.27398
-1.80411e-15
3.27398
-1.98452e-15
3.27398
-2.08167e-15
3.27398
-2.06779e-15
3.27398
-1.8735e-15
3.27398
-1.66533e-15
3.27398
-1.58207e-15
3.27398
-1.6237e-15
3.27398
-1.60982e-15
3.27398
-1.65146e-15
3.27398
-1.73472e-15
3.27398
-1.84575e-15
3.27398
-1.94289e-15
3.27398
-1.85962e-15
3.27398
-1.7486e-15
3.27398
-1.65146e-15
3.27398
-1.47105e-15
3.27398
-1.45717e-15
3.27398
-1.47105e-15
3.27398
-1.7486e-15
3.27398
-2.15106e-15
3.27398
-2.65066e-15
3.27398
-2.95597e-15
3.27398
-2.98372e-15
3.27398
-2.81719e-15
3.27398
-2.60902e-15
3.27398
-2.498e-15
3.27398
-2.44249e-15
3.27398
-2.48412e-15
3.27398
-2.52576e-15
3.27398
-2.498e-15
3.27398
-2.41474e-15
3.27398
-2.26208e-15
3.27398
-1.94289e-15
3.27398
-1.23512e-15
3.27398
-2.91434e-16
3.27398
9.57567e-16
3.27398
2.65066e-15
3.27398
5.28744e-15
3.27398
9.74221e-15
3.27398
1.71113e-14
3.27398
2.93515e-14
3.27398
4.96408e-14
3.27398
8.33777e-14
3.27398
1.39069e-13
3.27398
2.31162e-13
3.27398
3.83207e-13
3.27398
6.34701e-13
3.27398
1.05074e-12
3.27398
1.7389e-12
3.27398
2.87761e-12
3.27398
4.76266e-12
3.27398
7.88446e-12
3.27398
1.30566e-11
3.27398
2.16291e-11
3.27398
3.58427e-11
3.27398
5.9419e-11
3.27398
9.85413e-11
3.27398
1.63487e-10
3.27398
2.71348e-10
3.27398
4.50561e-10
3.27398
7.48455e-10
3.27398
1.24385e-09
3.27398
2.06805e-09
3.27398
3.43995e-09
3.27398
5.72455e-09
3.27398
9.53087e-09
3.27398
1.58755e-08
3.27398
2.64563e-08
3.27398
4.41102e-08
3.27398
7.35796e-08
3.27398
1.22797e-07
3.27398
2.05035e-07
3.27398
3.42513e-07
3.27398
5.72451e-07
3.27398
9.57208e-07
3.27398
1.60133e-06
3.27398
2.68015e-06
3.27398
4.48782e-06
3.27397
7.5181e-06
3.27397
1.26e-05
3.27397
2.11262e-05
3.27396
3.5437e-05
3.27395
5.94673e-05
3.27393
9.98372e-05
3.2739
0.000167694
3.27386
0.000281834
3.27381
0.000474015
3.27375
0.000798049
3.27369
0.00134562
3.27367
0.00227391
3.2738
0.00385594
3.27438
0.00657004
3.27607
0.0112791
3.28066
0.0195039
0.0341536
3.29193
3.27398
-8.32667e-17
3.27398
-1.38778e-16
3.27398
-1.38778e-17
3.27398
6.93889e-17
3.27398
9.71445e-17
3.27398
-5.55112e-17
3.27398
-9.71445e-17
3.27398
-1.249e-16
3.27398
-1.66533e-16
3.27398
-1.94289e-16
3.27398
-1.11022e-16
3.27398
-1.66533e-16
3.27398
-3.46945e-16
3.27398
-4.71845e-16
3.27398
-5.13478e-16
3.27398
-4.996e-16
3.27398
-6.245e-16
3.27398
-6.52256e-16
3.27398
-6.10623e-16
3.27398
-6.52256e-16
3.27398
-7.35523e-16
3.27398
-9.15934e-16
3.27398
-1.05471e-15
3.27398
-1.08247e-15
3.27398
-9.71445e-16
3.27398
-8.04912e-16
3.27398
-8.04912e-16
3.27398
-9.85323e-16
3.27398
-1.16573e-15
3.27398
-1.36002e-15
3.27398
-1.4988e-15
3.27398
-1.60982e-15
3.27398
-1.41553e-15
3.27398
-1.19349e-15
3.27398
-9.85323e-16
3.27398
-8.18789e-16
3.27398
-7.91034e-16
3.27398
-7.21645e-16
3.27398
-5.82867e-16
3.27398
-5.55112e-16
3.27398
-6.245e-16
3.27398
-7.91034e-16
3.27398
-9.29812e-16
3.27398
-9.85323e-16
3.27398
-1.02696e-15
3.27398
-1.04083e-15
3.27398
-1.13798e-15
3.27398
-1.20737e-15
3.27398
-1.38778e-15
3.27398
-1.59595e-15
3.27398
-1.73472e-15
3.27398
-1.84575e-15
3.27398
-1.85962e-15
3.27398
-1.72085e-15
3.27398
-1.44329e-15
3.27398
-1.17961e-15
3.27398
-1.01308e-15
3.27398
-1.1241e-15
3.27398
-1.40166e-15
3.27398
-1.58207e-15
3.27398
-1.66533e-15
3.27398
-1.70697e-15
3.27398
-1.70697e-15
3.27398
-1.60982e-15
3.27398
-1.4988e-15
3.27398
-1.36002e-15
3.27398
-1.42941e-15
3.27398
-1.47105e-15
3.27398
-1.40166e-15
3.27398
-1.20737e-15
3.27398
-1.11022e-15
3.27398
-1.15186e-15
3.27398
-1.13798e-15
3.27398
-1.06859e-15
3.27398
-1.01308e-15
3.27398
-1.05471e-15
3.27398
-1.15186e-15
3.27398
-1.15186e-15
3.27398
-1.16573e-15
3.27398
-1.06859e-15
3.27398
-9.57567e-16
3.27398
-1.06859e-15
3.27398
-1.33227e-15
3.27398
-1.65146e-15
3.27398
-1.90126e-15
3.27398
-2.05391e-15
3.27398
-1.94289e-15
3.27398
-1.7486e-15
3.27398
-1.6237e-15
3.27398
-1.45717e-15
3.27398
-1.23512e-15
3.27398
-1.08247e-15
3.27398
-1.05471e-15
3.27398
-1.17961e-15
3.27398
-1.44329e-15
3.27398
-1.63758e-15
3.27398
-1.84575e-15
3.27398
-1.92901e-15
3.27398
-1.73472e-15
3.27398
-1.55431e-15
3.27398
-1.44329e-15
3.27398
-1.47105e-15
3.27398
-1.44329e-15
3.27398
-1.45717e-15
3.27398
-1.48492e-15
3.27398
-1.55431e-15
3.27398
-1.76248e-15
3.27398
-2.09555e-15
3.27398
-2.33147e-15
3.27398
-2.45637e-15
3.27398
-2.498e-15
3.27398
-2.44249e-15
3.27398
-2.35922e-15
3.27398
-2.22045e-15
3.27398
-2.15106e-15
3.27398
-1.97065e-15
3.27398
-1.85962e-15
3.27398
-1.79023e-15
3.27398
-1.73472e-15
3.27398
-1.77636e-15
3.27398
-1.83187e-15
3.27398
-1.92901e-15
3.27398
-2.08167e-15
3.27398
-2.15106e-15
3.27398
-2.17881e-15
3.27398
-2.28983e-15
3.27398
-2.35922e-15
3.27398
-2.26208e-15
3.27398
-2.1233e-15
3.27398
-2.20657e-15
3.27398
-2.22045e-15
3.27398
-2.30371e-15
3.27398
-2.33147e-15
3.27398
-2.38698e-15
3.27398
-2.3731e-15
3.27398
-2.35922e-15
3.27398
-2.26208e-15
3.27398
-2.20657e-15
3.27398
-2.10942e-15
3.27398
-1.98452e-15
3.27398
-1.98452e-15
3.27398
-2.04003e-15
3.27398
-2.26208e-15
3.27398
-2.58127e-15
3.27398
-2.81719e-15
3.27398
-2.88658e-15
3.27398
-2.77556e-15
3.27398
-2.56739e-15
3.27398
-2.3731e-15
3.27398
-2.17881e-15
3.27398
-2.05391e-15
3.27398
-1.9984e-15
3.27398
-1.95677e-15
3.27398
-1.88738e-15
3.27398
-1.83187e-15
3.27398
-1.81799e-15
3.27398
-1.84575e-15
3.27398
-1.94289e-15
3.27398
-2.01228e-15
3.27398
-2.13718e-15
3.27398
-2.38698e-15
3.27398
-2.63678e-15
3.27398
-2.94209e-15
3.27398
-3.16414e-15
3.27398
-3.30291e-15
3.27398
-3.35842e-15
3.27398
-3.42781e-15
3.27398
-3.40006e-15
3.27398
-3.21965e-15
3.27398
-3.03924e-15
3.27398
-2.88658e-15
3.27398
-2.72005e-15
3.27398
-2.498e-15
3.27398
-2.28983e-15
3.27398
-2.27596e-15
3.27398
-2.26208e-15
3.27398
-2.3731e-15
3.27398
-2.53964e-15
3.27398
-2.70617e-15
3.27398
-2.73392e-15
3.27398
-2.7478e-15
3.27398
-2.66454e-15
3.27398
-2.58127e-15
3.27398
-2.498e-15
3.27398
-2.498e-15
3.27398
-2.53964e-15
3.27398
-2.73392e-15
3.27398
-2.94209e-15
3.27398
-2.9976e-15
3.27398
-3.05311e-15
3.27398
-3.01148e-15
3.27398
-2.85882e-15
3.27398
-2.59515e-15
3.27398
-2.28983e-15
3.27398
-2.16493e-15
3.27398
-2.19269e-15
3.27398
-2.27596e-15
3.27398
-2.38698e-15
3.27398
-2.35922e-15
3.27398
-2.20657e-15
3.27398
-2.01228e-15
3.27398
-1.79023e-15
3.27398
-1.56819e-15
3.27398
-1.31839e-15
3.27398
-1.16573e-15
3.27398
-9.99201e-16
3.27398
-1.05471e-15
3.27398
-1.27676e-15
3.27398
-1.56819e-15
3.27398
-1.77636e-15
3.27398
-2.09555e-15
3.27398
-2.3731e-15
3.27398
-2.63678e-15
3.27398
-2.69229e-15
3.27398
-2.58127e-15
3.27398
-2.52576e-15
3.27398
-2.53964e-15
3.27398
-2.3731e-15
3.27398
-2.04003e-15
3.27398
-1.76248e-15
3.27398
-1.59595e-15
3.27398
-1.3739e-15
3.27398
-1.38778e-15
3.27398
-1.47105e-15
3.27398
-1.42941e-15
3.27398
-1.20737e-15
3.27398
-1.1241e-15
3.27398
-1.13798e-15
3.27398
-1.17961e-15
3.27398
-1.30451e-15
3.27398
-1.3739e-15
3.27398
-1.47105e-15
3.27398
-1.67921e-15
3.27398
-2.1233e-15
3.27398
-2.66454e-15
3.27398
-2.95597e-15
3.27398
-2.91434e-15
3.27398
-2.72005e-15
3.27398
-2.2482e-15
3.27398
-1.27676e-15
3.27398
2.498e-16
3.27398
2.59515e-15
3.27398
6.31439e-15
3.27398
1.22957e-14
3.27398
2.2024e-14
3.27398
3.79419e-14
3.27398
6.39488e-14
3.27398
1.06512e-13
3.27398
1.76623e-13
3.27398
2.92266e-13
3.27398
4.82642e-13
3.27398
7.9603e-13
3.27398
1.3122e-12
3.27398
2.16252e-12
3.27398
3.56361e-12
3.27398
5.87258e-12
3.27398
9.67827e-12
3.27398
1.59521e-11
3.27398
2.6297e-11
3.27398
4.33577e-11
3.27398
7.14992e-11
3.27398
1.17926e-10
3.27398
1.9453e-10
3.27398
3.2095e-10
3.27398
5.29613e-10
3.27398
8.74072e-10
3.27398
1.44279e-09
3.27398
2.38189e-09
3.27398
3.93279e-09
3.27398
6.49435e-09
3.27398
1.07256e-08
3.27398
1.77156e-08
3.27398
2.92639e-08
3.27398
4.83438e-08
3.27398
7.98689e-08
3.27398
1.31957e-07
3.27398
2.18021e-07
3.27398
3.60215e-07
3.27398
5.95133e-07
3.27398
9.83195e-07
3.27398
1.62415e-06
3.27398
2.6826e-06
3.27398
4.4301e-06
3.27398
7.31437e-06
3.27398
1.20733e-05
3.27398
1.99224e-05
3.27398
3.28623e-05
3.27399
5.4184e-05
3.274
8.92975e-05
3.27402
0.000147091
3.27406
0.000242161
3.27414
0.000398474
3.27428
0.000655397
3.27455
0.00107772
3.27505
0.00177226
3.27599
0.00291652
3.27775
0.00480568
3.28109
0.00794329
3.28743
0.0131624
0.021987
3.29959
3.27398
5.55112e-17
3.27398
9.71445e-17
3.27398
-2.77556e-17
3.27398
-9.71445e-17
3.27398
-4.16334e-17
3.27398
5.55112e-17
3.27398
4.16334e-17
3.27398
-4.16334e-17
3.27398
-2.08167e-16
3.27398
-2.22045e-16
3.27398
-2.498e-16
3.27398
-4.02456e-16
3.27398
-4.57967e-16
3.27398
-4.16334e-16
3.27398
-4.996e-16
3.27398
-6.10623e-16
3.27398
-6.10623e-16
3.27398
-5.96745e-16
3.27398
-5.55112e-16
3.27398
-5.68989e-16
3.27398
-6.38378e-16
3.27398
-9.02056e-16
3.27398
-1.1241e-15
3.27398
-1.15186e-15
3.27398
-1.04083e-15
3.27398
-9.15934e-16
3.27398
-8.88178e-16
3.27398
-9.02056e-16
3.27398
-7.91034e-16
3.27398
-7.07767e-16
3.27398
-6.80012e-16
3.27398
-6.66134e-16
3.27398
-7.07767e-16
3.27398
-8.04912e-16
3.27398
-8.04912e-16
3.27398
-8.04912e-16
3.27398
-9.4369e-16
3.27398
-1.13798e-15
3.27398
-1.29063e-15
3.27398
-1.40166e-15
3.27398
-1.51268e-15
3.27398
-1.56819e-15
3.27398
-1.56819e-15
3.27398
-1.60982e-15
3.27398
-1.58207e-15
3.27398
-1.52656e-15
3.27398
-1.52656e-15
3.27398
-1.55431e-15
3.27398
-1.51268e-15
3.27398
-1.48492e-15
3.27398
-1.36002e-15
3.27398
-1.16573e-15
3.27398
-8.88178e-16
3.27398
-7.77156e-16
3.27398
-7.91034e-16
3.27398
-7.07767e-16
3.27398
-6.93889e-16
3.27398
-8.04912e-16
3.27398
-9.4369e-16
3.27398
-1.08247e-15
3.27398
-1.17961e-15
3.27398
-1.16573e-15
3.27398
-1.06859e-15
3.27398
-9.71445e-16
3.27398
-7.77156e-16
3.27398
-6.80012e-16
3.27398
-6.66134e-16
3.27398
-8.60423e-16
3.27398
-1.08247e-15
3.27398
-1.36002e-15
3.27398
-1.42941e-15
3.27398
-1.31839e-15
3.27398
-1.249e-15
3.27398
-1.29063e-15
3.27398
-1.38778e-15
3.27398
-1.54043e-15
3.27398
-1.58207e-15
3.27398
-1.59595e-15
3.27398
-1.42941e-15
3.27398
-1.249e-15
3.27398
-1.13798e-15
3.27398
-1.04083e-15
3.27398
-9.15934e-16
3.27398
-9.85323e-16
3.27398
-1.249e-15
3.27398
-1.41553e-15
3.27398
-1.52656e-15
3.27398
-1.65146e-15
3.27398
-1.65146e-15
3.27398
-1.47105e-15
3.27398
-1.22125e-15
3.27398
-1.04083e-15
3.27398
-1.06859e-15
3.27398
-1.20737e-15
3.27398
-1.27676e-15
3.27398
-1.45717e-15
3.27398
-1.66533e-15
3.27398
-1.73472e-15
3.27398
-1.79023e-15
3.27398
-1.84575e-15
3.27398
-1.95677e-15
3.27398
-1.98452e-15
3.27398
-1.88738e-15
3.27398
-1.85962e-15
3.27398
-1.90126e-15
3.27398
-1.95677e-15
3.27398
-1.8735e-15
3.27398
-1.84575e-15
3.27398
-1.85962e-15
3.27398
-1.91513e-15
3.27398
-1.92901e-15
3.27398
-1.85962e-15
3.27398
-1.76248e-15
3.27398
-1.73472e-15
3.27398
-1.67921e-15
3.27398
-1.79023e-15
3.27398
-1.8735e-15
3.27398
-1.90126e-15
3.27398
-1.98452e-15
3.27398
-1.90126e-15
3.27398
-1.81799e-15
3.27398
-1.73472e-15
3.27398
-1.70697e-15
3.27398
-1.67921e-15
3.27398
-1.69309e-15
3.27398
-1.67921e-15
3.27398
-1.7486e-15
3.27398
-1.85962e-15
3.27398
-1.83187e-15
3.27398
-1.60982e-15
3.27398
-1.59595e-15
3.27398
-1.67921e-15
3.27398
-1.88738e-15
3.27398
-2.13718e-15
3.27398
-2.31759e-15
3.27398
-2.38698e-15
3.27398
-2.45637e-15
3.27398
-2.41474e-15
3.27398
-2.26208e-15
3.27398
-2.16493e-15
3.27398
-2.16493e-15
3.27398
-2.34535e-15
3.27398
-2.53964e-15
3.27398
-2.77556e-15
3.27398
-2.9976e-15
3.27398
-3.03924e-15
3.27398
-2.95597e-15
3.27398
-2.69229e-15
3.27398
-2.33147e-15
3.27398
-1.94289e-15
3.27398
-1.58207e-15
3.27398
-1.45717e-15
3.27398
-1.31839e-15
3.27398
-1.40166e-15
3.27398
-1.59595e-15
3.27398
-1.92901e-15
3.27398
-2.26208e-15
3.27398
-2.498e-15
3.27398
-2.81719e-15
3.27398
-3.1225e-15
3.27398
-3.28904e-15
3.27398
-3.45557e-15
3.27398
-3.42781e-15
3.27398
-3.40006e-15
3.27398
-3.2474e-15
3.27398
-3.10862e-15
3.27398
-3.03924e-15
3.27398
-2.95597e-15
3.27398
-2.96985e-15
3.27398
-2.95597e-15
3.27398
-2.9976e-15
3.27398
-2.9976e-15
3.27398
-3.03924e-15
3.27398
-3.15026e-15
3.27398
-3.27516e-15
3.27398
-3.45557e-15
3.27398
-3.45557e-15
3.27398
-3.31679e-15
3.27398
-3.27516e-15
3.27398
-3.35842e-15
3.27398
-3.38618e-15
3.27398
-3.21965e-15
3.27398
-3.02536e-15
3.27398
-2.80331e-15
3.27398
-2.56739e-15
3.27398
-2.51188e-15
3.27398
-2.56739e-15
3.27398
-2.67841e-15
3.27398
-2.92821e-15
3.27398
-3.17801e-15
3.27398
-3.30291e-15
3.27398
-3.30291e-15
3.27398
-3.1225e-15
3.27398
-2.76168e-15
3.27398
-2.33147e-15
3.27398
-2.05391e-15
3.27398
-2.06779e-15
3.27398
-2.22045e-15
3.27398
-2.55351e-15
3.27398
-2.90046e-15
3.27398
-3.09475e-15
3.27398
-2.9976e-15
3.27398
-2.66454e-15
3.27398
-2.17881e-15
3.27398
-1.76248e-15
3.27398
-1.55431e-15
3.27398
-1.26288e-15
3.27398
-1.04083e-15
3.27398
-1.08247e-15
3.27398
-1.38778e-15
3.27398
-1.76248e-15
3.27398
-2.19269e-15
3.27398
-2.498e-15
3.27398
-2.51188e-15
3.27398
-2.38698e-15
3.27398
-2.13718e-15
3.27398
-1.8735e-15
3.27398
-1.73472e-15
3.27398
-1.76248e-15
3.27398
-1.79023e-15
3.27398
-1.79023e-15
3.27398
-1.84575e-15
3.27398
-1.76248e-15
3.27398
-1.76248e-15
3.27398
-1.79023e-15
3.27398
-1.58207e-15
3.27398
-1.33227e-15
3.27398
-1.249e-15
3.27398
-1.36002e-15
3.27398
-1.44329e-15
3.27398
-1.47105e-15
3.27398
-1.60982e-15
3.27398
-1.58207e-15
3.27398
-1.51268e-15
3.27398
-1.33227e-15
3.27398
-9.4369e-16
3.27398
-6.80012e-16
3.27398
-5.96745e-16
3.27398
-4.02456e-16
3.27398
3.19189e-16
3.27398
1.76248e-15
3.27398
4.20497e-15
3.27398
8.14626e-15
3.27398
1.453e-14
3.27398
2.49384e-14
3.27398
4.19248e-14
3.27398
6.96387e-14
3.27398
1.14977e-13
3.27398
1.89279e-13
3.27398
3.11237e-13
3.27398
5.11632e-13
3.27398
8.40342e-13
3.27398
1.37926e-12
3.27398
2.26284e-12
3.27398
3.7116e-12
3.27398
6.08721e-12
3.27398
9.98306e-12
3.27398
1.63719e-11
3.27398
2.68486e-11
3.27398
4.40288e-11
3.27398
7.2201e-11
3.27398
1.18397e-10
3.27398
1.94144e-10
3.27398
3.18341e-10
3.27398
5.21965e-10
3.27398
8.55782e-10
3.27398
1.40299e-09
3.27398
2.29989e-09
3.27398
3.76977e-09
3.27398
6.17833e-09
3.27398
1.01243e-08
3.27398
1.65879e-08
3.27398
2.71731e-08
3.27398
4.45037e-08
3.27398
7.28706e-08
3.27398
1.19287e-07
3.27398
1.95214e-07
3.27398
3.19364e-07
3.27398
5.22282e-07
3.27398
8.53787e-07
3.27398
1.39509e-06
3.27398
2.27848e-06
3.27398
3.71925e-06
3.27398
6.06752e-06
3.27398
9.8921e-06
3.27399
1.61162e-05
3.274
2.62366e-05
3.27401
4.26773e-05
3.27403
6.93594e-05
3.27406
0.000112619
3.27412
0.000182681
3.27422
0.000296039
3.2744
0.000479269
3.2747
0.000775232
3.27522
0.00125301
3.27611
0.00202463
3.27765
0.00327108
3.2803
0.00529177
3.28489
0.00856582
0.013944
3.29294
3.27398
8.32667e-17
3.27398
1.11022e-16
3.27398
2.08167e-16
3.27398
2.91434e-16
3.27398
3.33067e-16
3.27398
3.747e-16
3.27398
3.747e-16
3.27398
4.02456e-16
3.27398
3.60822e-16
3.27398
3.19189e-16
3.27398
2.35922e-16
3.27398
1.52656e-16
3.27398
1.249e-16
3.27398
9.71445e-17
3.27398
9.71445e-17
3.27398
1.52656e-16
3.27398
1.11022e-16
3.27398
1.38778e-17
3.27398
-4.16334e-17
3.27398
-5.55112e-17
3.27398
-1.80411e-16
3.27398
-3.60822e-16
3.27398
-4.44089e-16
3.27398
-4.44089e-16
3.27398
-4.30211e-16
3.27398
-5.41234e-16
3.27398
-4.996e-16
3.27398
-2.77556e-16
3.27398
-1.66533e-16
3.27398
-8.32667e-17
3.27398
-2.77556e-17
3.27398
4.16334e-17
3.27398
5.55112e-17
3.27398
9.71445e-17
3.27398
-1.38778e-17
3.27398
-2.08167e-16
3.27398
-4.30211e-16
3.27398
-7.07767e-16
3.27398
-1.06859e-15
3.27398
-1.38778e-15
3.27398
-1.66533e-15
3.27398
-1.70697e-15
3.27398
-1.67921e-15
3.27398
-1.52656e-15
3.27398
-1.31839e-15
3.27398
-1.27676e-15
3.27398
-1.19349e-15
3.27398
-1.11022e-15
3.27398
-1.02696e-15
3.27398
-8.60423e-16
3.27398
-6.38378e-16
3.27398
-5.68989e-16
3.27398
-7.35523e-16
3.27398
-9.4369e-16
3.27398
-1.17961e-15
3.27398
-1.31839e-15
3.27398
-1.41553e-15
3.27398
-1.42941e-15
3.27398
-1.40166e-15
3.27398
-1.31839e-15
3.27398
-1.08247e-15
3.27398
-1.04083e-15
3.27398
-1.20737e-15
3.27398
-1.33227e-15
3.27398
-1.36002e-15
3.27398
-1.48492e-15
3.27398
-1.67921e-15
3.27398
-1.88738e-15
3.27398
-2.01228e-15
3.27398
-2.02616e-15
3.27398
-2.10942e-15
3.27398
-2.1233e-15
3.27398
-2.15106e-15
3.27398
-2.23432e-15
3.27398
-2.22045e-15
3.27398
-2.19269e-15
3.27398
-2.1233e-15
3.27398
-2.01228e-15
3.27398
-1.85962e-15
3.27398
-1.73472e-15
3.27398
-1.56819e-15
3.27398
-1.26288e-15
3.27398
-9.85323e-16
3.27398
-8.74301e-16
3.27398
-1.01308e-15
3.27398
-1.20737e-15
3.27398
-1.52656e-15
3.27398
-1.83187e-15
3.27398
-2.13718e-15
3.27398
-2.41474e-15
3.27398
-2.35922e-15
3.27398
-1.9984e-15
3.27398
-1.4988e-15
3.27398
-1.04083e-15
3.27398
-7.07767e-16
3.27398
-5.27356e-16
3.27398
-5.82867e-16
3.27398
-6.80012e-16
3.27398
-7.77156e-16
3.27398
-9.4369e-16
3.27398
-1.16573e-15
3.27398
-1.4988e-15
3.27398
-1.83187e-15
3.27398
-1.94289e-15
3.27398
-2.1233e-15
3.27398
-2.23432e-15
3.27398
-2.20657e-15
3.27398
-2.08167e-15
3.27398
-1.91513e-15
3.27398
-1.79023e-15
3.27398
-1.6237e-15
3.27398
-1.54043e-15
3.27398
-1.63758e-15
3.27398
-1.77636e-15
3.27398
-1.83187e-15
3.27398
-1.83187e-15
3.27398
-1.8735e-15
3.27398
-1.97065e-15
3.27398
-2.04003e-15
3.27398
-2.06779e-15
3.27398
-1.91513e-15
3.27398
-1.65146e-15
3.27398
-1.34615e-15
3.27398
-1.08247e-15
3.27398
-1.08247e-15
3.27398
-1.31839e-15
3.27398
-1.60982e-15
3.27398
-1.8735e-15
3.27398
-2.08167e-15
3.27398
-2.28983e-15
3.27398
-2.38698e-15
3.27398
-2.42861e-15
3.27398
-2.26208e-15
3.27398
-2.16493e-15
3.27398
-2.20657e-15
3.27398
-2.26208e-15
3.27398
-2.27596e-15
3.27398
-2.15106e-15
3.27398
-2.15106e-15
3.27398
-2.30371e-15
3.27398
-2.55351e-15
3.27398
-2.7478e-15
3.27398
-2.77556e-15
3.27398
-2.66454e-15
3.27398
-2.59515e-15
3.27398
-2.66454e-15
3.27398
-2.78944e-15
3.27398
-2.81719e-15
3.27398
-2.72005e-15
3.27398
-2.498e-15
3.27398
-2.23432e-15
3.27398
-1.98452e-15
3.27398
-1.88738e-15
3.27398
-1.77636e-15
3.27398
-1.83187e-15
3.27398
-1.98452e-15
3.27398
-2.08167e-15
3.27398
-2.08167e-15
3.27398
-2.09555e-15
3.27398
-2.23432e-15
3.27398
-2.45637e-15
3.27398
-2.65066e-15
3.27398
-2.77556e-15
3.27398
-2.81719e-15
3.27398
-2.69229e-15
3.27398
-2.6229e-15
3.27398
-2.52576e-15
3.27398
-2.42861e-15
3.27398
-2.30371e-15
3.27398
-2.33147e-15
3.27398
-2.48412e-15
3.27398
-2.69229e-15
3.27398
-2.76168e-15
3.27398
-2.78944e-15
3.27398
-2.85882e-15
3.27398
-2.84495e-15
3.27398
-2.85882e-15
3.27398
-2.78944e-15
3.27398
-2.70617e-15
3.27398
-2.73392e-15
3.27398
-2.84495e-15
3.27398
-2.88658e-15
3.27398
-2.65066e-15
3.27398
-2.33147e-15
3.27398
-2.22045e-15
3.27398
-2.06779e-15
3.27398
-1.88738e-15
3.27398
-1.76248e-15
3.27398
-1.72085e-15
3.27398
-1.84575e-15
3.27398
-2.10942e-15
3.27398
-2.27596e-15
3.27398
-2.35922e-15
3.27398
-2.34535e-15
3.27398
-2.20657e-15
3.27398
-2.16493e-15
3.27398
-2.26208e-15
3.27398
-2.41474e-15
3.27398
-2.40086e-15
3.27398
-2.38698e-15
3.27398
-2.35922e-15
3.27398
-2.34535e-15
3.27398
-2.28983e-15
3.27398
-2.30371e-15
3.27398
-2.41474e-15
3.27398
-2.47025e-15
3.27398
-2.58127e-15
3.27398
-2.58127e-15