/*--------------------------------*- C++ -*----------------------------------*\
| =========                 |                                                 |
| \\      /  F ield         | OpenFOAM: The Open Source CFD Toolbox           |
|  \\    /   O peration     | Version:  2412                                  |
|   \\  /    A nd           | Website:  www.openfoam.com                      |
|    \\/     M anipulation  |                                                 |
\*---------------------------------------------------------------------------*/
FoamFile
{
    version     2.0;
    format      ascii;
    arch        "LSB;label=32;scalar=64";
    class       volVectorField;
    location    "0.0045";
    object      U;
}
// * * * * * * * * * * * * * * * * * * * * * * * * * * * * * * * * * * * * * //

dimensions      [0 1 -1 0 0 0 0];

internalField   nonuniform List<vector> 
180000
(
(664 -6.50033e-15 0)
(664 7.01981e-15 0)
(664 4.53493e-14 0)
(664 5.28178e-14 0)
(664 2.31931e-14 0)
(664 -1.57007e-14 0)
(664 -3.55407e-14 0)
(664 -3.95687e-14 0)
(664 -7.76183e-14 0)
(664 -1.68264e-13 0)
(664 -2.47819e-13 0)
(664 -3.75407e-13 0)
(664 -5.34207e-13 0)
(664 -6.66342e-13 0)
(664 -7.06341e-13 0)
(664 -7.78306e-13 0)
(664 -8.58037e-13 0)
(664 -9.15959e-13 0)
(664 -9.74508e-13 0)
(664 -9.61292e-13 0)
(664 -9.00449e-13 0)
(664 -8.08966e-13 0)
(664 -7.17353e-13 0)
(664 -5.89288e-13 0)
(664 -4.91949e-13 0)
(664 -5.3226e-13 0)
(664 -5.93067e-13 0)
(664 -6.19621e-13 0)
(664 -6.10695e-13 0)
(664 -5.59356e-13 0)
(664 -4.85902e-13 0)
(664 -4.45249e-13 0)
(664 -3.98347e-13 0)
(664 -4.10827e-13 0)
(664 -4.32693e-13 0)
(664 -4.0202e-13 0)
(664 -4.12733e-13 0)
(664 -4.61226e-13 0)
(664 -4.99576e-13 0)
(664 -5.27633e-13 0)
(664 -5.60108e-13 0)
(664 -5.57413e-13 0)
(664 -5.33801e-13 0)
(664 -5.25761e-13 0)
(664 -5.41533e-13 0)
(664 -5.11671e-13 0)
(664 -5.08737e-13 0)
(664 -4.87403e-13 0)
(664 -4.72866e-13 0)
(664 -3.94185e-13 0)
(664 -3.09679e-13 0)
(664 -2.75288e-13 0)
(664 -2.87493e-13 0)
(664 -3.78807e-13 0)
(664 -4.4255e-13 0)
(664 -4.76466e-13 0)
(664 -4.78193e-13 0)
(664 -4.11484e-13 0)
(664 -3.43661e-13 0)
(664 -3.2924e-13 0)
(664 -3.65793e-13 0)
(664 -4.18189e-13 0)
(664 -4.96679e-13 0)
(664 -5.92078e-13 0)
(664 -7.07762e-13 0)
(664 -9.19261e-13 0)
(664 -1.11171e-12 0)
(664 -1.23414e-12 0)
(664 -1.29131e-12 0)
(664 -1.31607e-12 0)
(664 -1.29619e-12 0)
(664 -1.27525e-12 0)
(664 -1.19449e-12 0)
(664 -1.10392e-12 0)
(664 -1.02532e-12 0)
(664 -9.81917e-13 0)
(664 -1.11207e-12 0)
(664 -1.35528e-12 0)
(664 -1.50642e-12 0)
(664 -1.54097e-12 0)
(664 -1.5634e-12 0)
(664 -1.59463e-12 0)
(664 -1.54656e-12 0)
(664 -1.42663e-12 0)
(664 -1.29642e-12 0)
(664 -1.17697e-12 0)
(664 -1.06287e-12 0)
(664 -9.78993e-13 0)
(664 -8.93905e-13 0)
(664 -7.23951e-13 0)
(664 -5.66229e-13 0)
(664 -4.29247e-13 0)
(664 -3.28335e-13 0)
(664 -2.94639e-13 0)
(664 -3.18944e-13 0)
(664 -3.91304e-13 0)
(664 -5.47481e-13 0)
(664 -6.50879e-13 0)
(664 -7.62936e-13 0)
(664 -9.34216e-13 0)
(664 -1.07444e-12 0)
(664 -1.16361e-12 0)
(664 -1.25315e-12 0)
(664 -1.27962e-12 0)
(664 -1.31307e-12 0)
(664 -1.30486e-12 0)
(664 -1.24152e-12 0)
(664 -1.10722e-12 0)
(664 -9.2927e-13 0)
(664 -8.58765e-13 0)
(664 -9.45951e-13 0)
(664 -1.07129e-12 0)
(664 -1.12343e-12 0)
(664 -1.13349e-12 0)
(664 -1.16386e-12 0)
(664 -1.26109e-12 0)
(664 -1.45267e-12 0)
(664 -1.58291e-12 0)
(664 -1.65249e-12 0)
(664 -1.71195e-12 0)
(664 -1.73403e-12 0)
(664 -1.70973e-12 0)
(664 -1.61407e-12 0)
(664 -1.50636e-12 0)
(664 -1.44253e-12 0)
(664 -1.41407e-12 0)
(664 -1.32035e-12 0)
(664 -1.1776e-12 0)
(664 -1.08795e-12 0)
(664 -1.03796e-12 0)
(664 -1.0147e-12 0)
(664 -9.78342e-13 0)
(664 -9.41618e-13 0)
(664 -9.1815e-13 0)
(664 -9.45051e-13 0)
(664 -1.00192e-12 0)
(664 -9.91384e-13 0)
(664 -9.17594e-13 0)
(664 -8.57579e-13 0)
(664 -8.4014e-13 0)
(664 -8.20122e-13 0)
(664 -7.39057e-13 0)
(664 -6.22542e-13 0)
(664 -4.79767e-13 0)
(664 -3.47084e-13 0)
(664 -3.13678e-13 0)
(664 -3.86065e-13 0)
(664 -4.55173e-13 0)
(664 -4.84702e-13 0)
(664 -4.74767e-13 0)
(664 -4.63132e-13 0)
(664 -4.72553e-13 0)
(664 -5.11838e-13 0)
(664 -6.09253e-13 0)
(664 -6.69846e-13 0)
(664 -7.37872e-13 0)
(664 -8.55801e-13 0)
(664 -9.3115e-13 0)
(664 -9.29835e-13 0)
(664 -8.61573e-13 0)
(664 -8.27256e-13 0)
(664 -8.06651e-13 0)
(664 -7.39527e-13 0)
(664 -6.71388e-13 0)
(664 -6.65747e-13 0)
(664 -6.16166e-13 0)
(664 -5.82598e-13 0)
(664 -6.29937e-13 0)
(664 -6.61182e-13 0)
(664 -6.45504e-13 0)
(664 -7.6333e-13 0)
(664 -9.68316e-13 0)
(664 -1.10819e-12 0)
(664 -1.22896e-12 0)
(664 -1.35839e-12 0)
(664 -1.44574e-12 0)
(664 -1.4451e-12 0)
(664 -1.40398e-12 0)
(664 -1.33245e-12 0)
(664 -1.24487e-12 0)
(664 -1.11424e-12 0)
(664 -9.96525e-13 0)
(664 -9.09859e-13 0)
(664 -8.84898e-13 0)
(664 -9.47971e-13 0)
(664 -1.03579e-12 0)
(664 -1.10165e-12 0)
(664 -1.22902e-12 0)
(664 -1.3425e-12 0)
(664 -1.31585e-12 0)
(664 -1.21162e-12 0)
(664 -1.10867e-12 0)
(664 -1.06564e-12 0)
(664 -1.09123e-12 0)
(664 -1.21634e-12 0)
(664 -1.28032e-12 0)
(664 -1.25553e-12 0)
(664 -1.24321e-12 0)
(664 -1.23407e-12 0)
(664 -1.23387e-12 0)
(664 -1.22456e-12 0)
(664 -1.25276e-12 0)
(664 -1.31426e-12 0)
(664 -1.29467e-12 0)
(664 -1.11761e-12 0)
(664 -8.35666e-13 0)
(664 -5.28074e-13 0)
(664 -2.55669e-13 0)
(664 -1.05308e-13 0)
(664 -7.76156e-14 0)
(664 -1.52e-13 0)
(664 -2.72572e-13 0)
(664 -4.02e-13 0)
(664 -5.09514e-13 0)
(664 -5.84207e-13 0)
(664 -6.48693e-13 0)
(664 -6.74787e-13 0)
(664 -6.62456e-13 0)
(664 -7.12474e-13 0)
(664 -8.59315e-13 0)
(664 -1.0389e-12 0)
(664 -1.16665e-12 0)
(664 -1.20171e-12 0)
(664 -1.18858e-12 0)
(664 -1.12388e-12 0)
(664 -1.07534e-12 0)
(664 -1.03886e-12 0)
(664 -9.42317e-13 0)
(664 -8.21769e-13 0)
(664 -8.13926e-13 0)
(664 -9.26025e-13 0)
(664 -1.13388e-12 0)
(664 -1.26065e-12 0)
(664 -1.24949e-12 0)
(664 -1.05045e-12 0)
(664 -8.01092e-13 0)
(664 -5.90421e-13 0)
(664 -4.68955e-13 0)
(664 -5.17756e-13 0)
(664 -6.89028e-13 0)
(664 -8.67483e-13 0)
(664 -8.72343e-13 0)
(664 -5.74637e-13 0)
(664 1.25496e-13 0)
(664 1.36904e-12 0)
(664 3.36765e-12 0)
(664 6.54248e-12 0)
(664 1.16644e-11 0)
(664 1.99161e-11 0)
(664 3.34569e-11 0)
(664 5.59334e-11 0)
(664 9.33268e-11 0)
(664 1.55552e-10 0)
(664 2.59139e-10 0)
(664 4.31514e-10 0)
(664 7.18297e-10 0)
(664 1.19563e-09 0)
(664 1.99063e-09 0)
(664 3.31571e-09 0)
(664 5.52582e-09 0)
(664 9.21476e-09 0)
(664 1.53769e-08 0)
(664 2.56792e-08 0)
(664 4.29176e-08 0)
(664 7.17882e-08 0)
(664 1.20185e-07 0)
(664 2.01391e-07 0)
(664 3.3779e-07 0)
(664 5.67134e-07 0)
(664 9.53183e-07 0)
(664 1.60376e-06 0)
(664 2.70142e-06 0)
(664 4.55576e-06 0)
(664 7.69244e-06 0)
(664 1.30055e-05 0)
(663.999 2.20176e-05 0)
(663.999 3.73265e-05 0)
(663.999 6.33714e-05 0)
(663.998 0.000107751 0)
(663.996 0.000183496 0)
(663.994 0.000312992 0)
(663.99 0.000534766 0)
(663.983 0.000915254 0)
(663.972 0.00156924 0)
(663.954 0.00269544 0)
(663.924 0.00463855 0)
(663.874 0.00799777 0)
(663.793 0.0138167 0)
(663.659 0.0239174 0)
(663.437 0.0414861 0)
(663.071 0.0721109 0)
(662.464 0.125604 0)
(661.459 0.219265 0)
(659.791 0.383575 0)
(657.026 0.672685 0)
(652.435 1.18203 0)
(644.831 2.08359 0)
(632.263 3.67575 0)
(611.82 6.5126 0)
(579.739 11.4669 0)
(664 2.60416e-14 0)
(664 4.6193e-14 0)
(664 5.40614e-14 0)
(664 1.41464e-14 0)
(664 -1.75586e-14 0)
(664 -2.71752e-14 0)
(664 -3.62844e-14 0)
(664 -2.21815e-14 0)
(664 -3.08189e-14 0)
(664 -8.7816e-14 0)
(664 -1.48922e-13 0)
(664 -1.5195e-13 0)
(664 -1.48581e-13 0)
(664 -1.61585e-13 0)
(664 -2.36435e-13 0)
(664 -4.11037e-13 0)
(664 -5.80971e-13 0)
(664 -6.55808e-13 0)
(664 -7.04608e-13 0)
(664 -7.48201e-13 0)
(664 -8.01154e-13 0)
(664 -8.39958e-13 0)
(664 -8.1386e-13 0)
(664 -6.94543e-13 0)
(664 -6.05946e-13 0)
(664 -6.46474e-13 0)
(664 -7.78961e-13 0)
(664 -9.01942e-13 0)
(664 -9.94054e-13 0)
(664 -1.04675e-12 0)
(664 -1.02386e-12 0)
(664 -9.50196e-13 0)
(664 -8.56383e-13 0)
(664 -7.94715e-13 0)
(664 -7.63691e-13 0)
(664 -7.17662e-13 0)
(664 -6.59327e-13 0)
(664 -5.77375e-13 0)
(664 -5.90856e-13 0)
(664 -6.66802e-13 0)
(664 -7.46808e-13 0)
(664 -7.94335e-13 0)
(664 -7.94325e-13 0)
(664 -7.7866e-13 0)
(664 -7.71124e-13 0)
(664 -8.3504e-13 0)
(664 -8.8769e-13 0)
(664 -8.6155e-13 0)
(664 -8.11393e-13 0)
(664 -7.73357e-13 0)
(664 -7.7753e-13 0)
(664 -8.11384e-13 0)
(664 -7.74895e-13 0)
(664 -7.23107e-13 0)
(664 -6.24112e-13 0)
(664 -5.10801e-13 0)
(664 -4.48961e-13 0)
(664 -4.02286e-13 0)
(664 -4.10581e-13 0)
(664 -4.19829e-13 0)
(664 -4.65448e-13 0)
(664 -5.66761e-13 0)
(664 -6.81524e-13 0)
(664 -7.45351e-13 0)
(664 -8.49619e-13 0)
(664 -1.02779e-12 0)
(664 -1.22701e-12 0)
(664 -1.33773e-12 0)
(664 -1.28109e-12 0)
(664 -1.15551e-12 0)
(664 -1.08045e-12 0)
(664 -1.04032e-12 0)
(664 -9.74193e-13 0)
(664 -9.38933e-13 0)
(664 -9.50999e-13 0)
(664 -9.46157e-13 0)
(664 -9.58383e-13 0)
(664 -9.91086e-13 0)
(664 -1.02234e-12 0)
(664 -9.90645e-13 0)
(664 -1.03389e-12 0)
(664 -1.1703e-12 0)
(664 -1.28186e-12 0)
(664 -1.37325e-12 0)
(664 -1.34431e-12 0)
(664 -1.21444e-12 0)
(664 -1.10213e-12 0)
(664 -9.99119e-13 0)
(664 -8.33061e-13 0)
(664 -6.71645e-13 0)
(664 -5.83413e-13 0)
(664 -5.07796e-13 0)
(664 -4.09075e-13 0)
(664 -2.42003e-13 0)
(664 -1.02557e-13 0)
(664 -3.53807e-14 0)
(664 -5.42754e-14 0)
(664 -1.58639e-13 0)
(664 -3.65527e-13 0)
(664 -6.13868e-13 0)
(664 -7.99145e-13 0)
(664 -8.59508e-13 0)
(664 -8.97226e-13 0)
(664 -9.88741e-13 0)
(664 -1.16468e-12 0)
(664 -1.31359e-12 0)
(664 -1.38998e-12 0)
(664 -1.3659e-12 0)
(664 -1.2501e-12 0)
(664 -1.11541e-12 0)
(664 -1.0593e-12 0)
(664 -1.03755e-12 0)
(664 -1.00655e-12 0)
(664 -9.58185e-13 0)
(664 -9.10336e-13 0)
(664 -9.23804e-13 0)
(664 -9.56526e-13 0)
(664 -9.32906e-13 0)
(664 -9.27881e-13 0)
(664 -9.4615e-13 0)
(664 -9.39982e-13 0)
(664 -9.31892e-13 0)
(664 -9.36018e-13 0)
(664 -9.8057e-13 0)
(664 -1.14224e-12 0)
(664 -1.30574e-12 0)
(664 -1.3042e-12 0)
(664 -1.22087e-12 0)
(664 -1.23182e-12 0)
(664 -1.33483e-12 0)
(664 -1.40068e-12 0)
(664 -1.37594e-12 0)
(664 -1.24295e-12 0)
(664 -1.06636e-12 0)
(664 -9.26776e-13 0)
(664 -8.40496e-13 0)
(664 -7.95456e-13 0)
(664 -7.75712e-13 0)
(664 -8.09487e-13 0)
(664 -9.36913e-13 0)
(664 -1.10978e-12 0)
(664 -1.25347e-12 0)
(664 -1.35005e-12 0)
(664 -1.37274e-12 0)
(664 -1.28671e-12 0)
(664 -1.19735e-12 0)
(664 -1.13007e-12 0)
(664 -1.05805e-12 0)
(664 -9.89368e-13 0)
(664 -9.21481e-13 0)
(664 -9.20048e-13 0)
(664 -9.93969e-13 0)
(664 -1.07775e-12 0)
(664 -1.15466e-12 0)
(664 -1.16609e-12 0)
(664 -1.191e-12 0)
(664 -1.264e-12 0)
(664 -1.3437e-12 0)
(664 -1.30811e-12 0)
(664 -1.19675e-12 0)
(664 -1.11918e-12 0)
(664 -1.09813e-12 0)
(664 -1.1126e-12 0)
(664 -1.10117e-12 0)
(664 -1.14168e-12 0)
(664 -1.16967e-12 0)
(664 -1.12205e-12 0)
(664 -1.06099e-12 0)
(664 -1.08846e-12 0)
(664 -1.0764e-12 0)
(664 -1.09069e-12 0)
(664 -1.21858e-12 0)
(664 -1.39201e-12 0)
(664 -1.54744e-12 0)
(664 -1.69557e-12 0)
(664 -1.82498e-12 0)
(664 -1.91693e-12 0)
(664 -1.97505e-12 0)
(664 -1.98854e-12 0)
(664 -1.91239e-12 0)
(664 -1.7723e-12 0)
(664 -1.57976e-12 0)
(664 -1.38441e-12 0)
(664 -1.2823e-12 0)
(664 -1.259e-12 0)
(664 -1.23465e-12 0)
(664 -1.18118e-12 0)
(664 -1.15172e-12 0)
(664 -1.13758e-12 0)
(664 -1.09191e-12 0)
(664 -1.04853e-12 0)
(664 -1.0846e-12 0)
(664 -1.18432e-12 0)
(664 -1.42183e-12 0)
(664 -1.68149e-12 0)
(664 -1.87958e-12 0)
(664 -1.99401e-12 0)
(664 -2.00761e-12 0)
(664 -1.92682e-12 0)
(664 -1.86705e-12 0)
(664 -1.85307e-12 0)
(664 -1.79941e-12 0)
(664 -1.71218e-12 0)
(664 -1.59179e-12 0)
(664 -1.46329e-12 0)
(664 -1.35841e-12 0)
(664 -1.26213e-12 0)
(664 -1.08834e-12 0)
(664 -8.78242e-13 0)
(664 -7.25485e-13 0)
(664 -5.99639e-13 0)
(664 -5.80919e-13 0)
(664 -5.94163e-13 0)
(664 -5.80066e-13 0)
(664 -6.12234e-13 0)
(664 -6.66996e-13 0)
(664 -7.1086e-13 0)
(664 -7.09318e-13 0)
(664 -6.94447e-13 0)
(664 -7.32031e-13 0)
(664 -7.47317e-13 0)
(664 -7.23754e-13 0)
(664 -7.83204e-13 0)
(664 -9.09154e-13 0)
(664 -1.08682e-12 0)
(664 -1.37309e-12 0)
(664 -1.67398e-12 0)
(664 -1.8097e-12 0)
(664 -1.76247e-12 0)
(664 -1.65163e-12 0)
(664 -1.55705e-12 0)
(664 -1.48554e-12 0)
(664 -1.43806e-12 0)
(664 -1.35674e-12 0)
(664 -1.18724e-12 0)
(664 -9.63087e-13 0)
(664 -7.5344e-13 0)
(664 -5.92468e-13 0)
(664 -3.79769e-13 0)
(664 -8.13215e-14 0)
(664 3.48596e-13 0)
(664 1.00007e-12 0)
(664 2.05574e-12 0)
(664 3.89294e-12 0)
(664 6.93516e-12 0)
(664 1.19575e-11 0)
(664 2.02606e-11 0)
(664 3.40845e-11 0)
(664 5.69749e-11 0)
(664 9.47827e-11 0)
(664 1.57329e-10 0)
(664 2.60928e-10 0)
(664 4.32718e-10 0)
(664 7.17611e-10 0)
(664 1.19011e-09 0)
(664 1.97399e-09 0)
(664 3.27495e-09 0)
(664 5.43529e-09 0)
(664 9.02467e-09 0)
(664 1.49914e-08 0)
(664 2.49151e-08 0)
(664 4.1429e-08 0)
(664 6.89258e-08 0)
(664 1.14737e-07 0)
(664 1.91109e-07 0)
(664 3.18509e-07 0)
(664 5.31171e-07 0)
(664 8.86397e-07 0)
(664 1.48017e-06 0)
(664 2.47342e-06 0)
(664 4.13613e-06 0)
(664 6.92166e-06 0)
(664 1.1592e-05 0)
(664 1.94289e-05 0)
(664 3.25905e-05 0)
(664 5.47139e-05 0)
(663.999 9.19349e-05 0)
(663.999 0.000154615 0)
(663.998 0.000260267 0)
(663.997 0.00043853 0)
(663.995 0.000739608 0)
(663.991 0.00124864 0)
(663.985 0.00211019 0)
(663.976 0.00356995 0)
(663.961 0.00604607 0)
(663.937 0.0102509 0)
(663.898 0.0173999 0)
(663.833 0.0295686 0)
(663.729 0.0503067 0)
(663.559 0.0856916 0)
(663.283 0.146143 0)
(662.835 0.24954 0)
(662.108 0.426616 0)
(660.934 0.73017 0)
(659.036 1.25122 0)
(655.986 2.14566 0)
(651.101 3.68282 0)
(643.372 6.31383 0)
(631.265 10.8134 0)
(613.646 18.3318 0)
(664 -6.09312e-15 0)
(664 -1.79464e-14 0)
(664 -4.08707e-14 0)
(664 -2.14898e-14 0)
(664 5.49039e-14 0)
(664 6.32545e-14 0)
(664 5.116e-14 0)
(664 3.79734e-14 0)
(664 9.45262e-15 0)
(664 -1.3732e-14 0)
(664 -6.08643e-15 0)
(664 5.43888e-14 0)
(664 1.32938e-13 0)
(664 1.10041e-13 0)
(664 1.11716e-14 0)
(664 -2.35544e-14 0)
(664 -1.01432e-13 0)
(664 -1.84333e-13 0)
(664 -2.04275e-13 0)
(664 -2.25572e-13 0)
(664 -2.87481e-13 0)
(664 -3.5067e-13 0)
(664 -4.14132e-13 0)
(664 -4.94718e-13 0)
(664 -5.69133e-13 0)
(664 -5.29817e-13 0)
(664 -4.71131e-13 0)
(664 -4.51999e-13 0)
(664 -4.91977e-13 0)
(664 -5.73454e-13 0)
(664 -6.38788e-13 0)
(664 -6.62597e-13 0)
(664 -6.46128e-13 0)
(664 -5.39188e-13 0)
(664 -4.02294e-13 0)
(664 -3.07133e-13 0)
(664 -2.58306e-13 0)
(664 -2.31224e-13 0)
(664 -2.47384e-13 0)
(664 -2.46373e-13 0)
(664 -2.2221e-13 0)
(664 -2.29774e-13 0)
(664 -2.4741e-13 0)
(664 -2.71848e-13 0)
(664 -3.2326e-13 0)
(664 -4.15787e-13 0)
(664 -4.92416e-13 0)
(664 -4.93027e-13 0)
(664 -4.78757e-13 0)
(664 -6.25337e-13 0)
(664 -8.39766e-13 0)
(664 -1.00709e-12 0)
(664 -1.16119e-12 0)
(664 -1.18395e-12 0)
(664 -1.07613e-12 0)
(664 -8.99089e-13 0)
(664 -7.65614e-13 0)
(664 -7.72414e-13 0)
(664 -9.00647e-13 0)
(664 -1.04006e-12 0)
(664 -1.08228e-12 0)
(664 -1.14418e-12 0)
(664 -1.19847e-12 0)
(664 -1.23673e-12 0)
(664 -1.26347e-12 0)
(664 -1.25223e-12 0)
(664 -1.19377e-12 0)
(664 -1.1273e-12 0)
(664 -1.0047e-12 0)
(664 -7.82189e-13 0)
(664 -5.85396e-13 0)
(664 -5.30076e-13 0)
(664 -5.7234e-13 0)
(664 -5.85171e-13 0)
(664 -6.15116e-13 0)
(664 -6.36907e-13 0)
(664 -6.10418e-13 0)
(664 -6.19035e-13 0)
(664 -6.59754e-13 0)
(664 -6.95433e-13 0)
(664 -6.81862e-13 0)
(664 -7.07342e-13 0)
(664 -8.83531e-13 0)
(664 -1.09241e-12 0)
(664 -1.24327e-12 0)
(664 -1.33003e-12 0)
(664 -1.3376e-12 0)
(664 -1.22893e-12 0)
(664 -1.10413e-12 0)
(664 -1.08315e-12 0)
(664 -1.08865e-12 0)
(664 -1.06537e-12 0)
(664 -9.98225e-13 0)
(664 -9.56182e-13 0)
(664 -9.15952e-13 0)
(664 -8.78421e-13 0)
(664 -7.88802e-13 0)
(664 -7.3855e-13 0)
(664 -7.02236e-13 0)
(664 -6.2838e-13 0)
(664 -5.79787e-13 0)
(664 -5.40643e-13 0)
(664 -4.89245e-13 0)
(664 -4.88509e-13 0)
(664 -5.45211e-13 0)
(664 -6.28789e-13 0)
(664 -7.38658e-13 0)
(664 -9.25436e-13 0)
(664 -1.15267e-12 0)
(664 -1.27015e-12 0)
(664 -1.31624e-12 0)
(664 -1.2863e-12 0)
(664 -1.30087e-12 0)
(664 -1.31402e-12 0)
(664 -1.28846e-12 0)
(664 -1.21407e-12 0)
(664 -1.04568e-12 0)
(664 -8.81998e-13 0)
(664 -7.64983e-13 0)
(664 -7.23244e-13 0)
(664 -7.2666e-13 0)
(664 -7.59396e-13 0)
(664 -8.32853e-13 0)
(664 -9.34467e-13 0)
(664 -1.00161e-12 0)
(664 -1.0522e-12 0)
(664 -1.07713e-12 0)
(664 -1.04715e-12 0)
(664 -9.91441e-13 0)
(664 -1.02039e-12 0)
(664 -1.11674e-12 0)
(664 -1.19666e-12 0)
(664 -1.20602e-12 0)
(664 -1.15106e-12 0)
(664 -1.03793e-12 0)
(664 -9.3297e-13 0)
(664 -8.20921e-13 0)
(664 -6.98032e-13 0)
(664 -6.53507e-13 0)
(664 -6.32663e-13 0)
(664 -6.63664e-13 0)
(664 -7.61366e-13 0)
(664 -9.15271e-13 0)
(664 -1.11931e-12 0)
(664 -1.32605e-12 0)
(664 -1.46509e-12 0)
(664 -1.45858e-12 0)
(664 -1.32838e-12 0)
(664 -1.19596e-12 0)
(664 -1.09115e-12 0)
(664 -1.05743e-12 0)
(664 -1.04999e-12 0)
(664 -1.05685e-12 0)
(664 -1.02223e-12 0)
(664 -9.33188e-13 0)
(664 -8.0304e-13 0)
(664 -6.57213e-13 0)
(664 -5.63919e-13 0)
(664 -5.21469e-13 0)
(664 -5.12498e-13 0)
(664 -5.72744e-13 0)
(664 -7.28313e-13 0)
(664 -9.75397e-13 0)
(664 -1.24287e-12 0)
(664 -1.46591e-12 0)
(664 -1.65802e-12 0)
(664 -1.73039e-12 0)
(664 -1.74871e-12 0)
(664 -1.73345e-12 0)
(664 -1.68909e-12 0)
(664 -1.56905e-12 0)
(664 -1.47344e-12 0)
(664 -1.38731e-12 0)
(664 -1.22111e-12 0)
(664 -1.00013e-12 0)
(664 -8.73102e-13 0)
(664 -8.45492e-13 0)
(664 -9.06693e-13 0)
(664 -1.00158e-12 0)
(664 -1.10545e-12 0)
(664 -1.16823e-12 0)
(664 -1.20867e-12 0)
(664 -1.21329e-12 0)
(664 -1.2087e-12 0)
(664 -1.18495e-12 0)
(664 -1.16072e-12 0)
(664 -1.15169e-12 0)
(664 -1.15649e-12 0)
(664 -1.16505e-12 0)
(664 -1.15461e-12 0)
(664 -1.12618e-12 0)
(664 -1.09785e-12 0)
(664 -1.08046e-12 0)
(664 -1.10863e-12 0)
(664 -1.1903e-12 0)
(664 -1.32036e-12 0)
(664 -1.43762e-12 0)
(664 -1.4343e-12 0)
(664 -1.27483e-12 0)
(664 -1.03144e-12 0)
(664 -7.24742e-13 0)
(664 -4.79596e-13 0)
(664 -2.90552e-13 0)
(664 -1.55272e-13 0)
(664 -2.32155e-13 0)
(664 -4.52487e-13 0)
(664 -6.76356e-13 0)
(664 -9.15209e-13 0)
(664 -1.0946e-12 0)
(664 -1.15139e-12 0)
(664 -1.10628e-12 0)
(664 -1.08272e-12 0)
(664 -1.11921e-12 0)
(664 -1.16766e-12 0)
(664 -1.18121e-12 0)
(664 -1.17936e-12 0)
(664 -1.25204e-12 0)
(664 -1.28053e-12 0)
(664 -1.19357e-12 0)
(664 -1.01048e-12 0)
(664 -8.51361e-13 0)
(664 -7.24824e-13 0)
(664 -6.45425e-13 0)
(664 -6.4125e-13 0)
(664 -7.29028e-13 0)
(664 -8.26842e-13 0)
(664 -9.25148e-13 0)
(664 -1.04024e-12 0)
(664 -1.06875e-12 0)
(664 -1.03116e-12 0)
(664 -9.70786e-13 0)
(664 -9.36054e-13 0)
(664 -9.52742e-13 0)
(664 -1.09176e-12 0)
(664 -1.34372e-12 0)
(664 -1.57529e-12 0)
(664 -1.6919e-12 0)
(664 -1.61902e-12 0)
(664 -1.30481e-12 0)
(664 -6.90795e-13 0)
(664 1.75821e-13 0)
(664 1.36341e-12 0)
(664 3.06914e-12 0)
(664 5.74885e-12 0)
(664 1.0179e-11 0)
(664 1.75162e-11 0)
(664 2.96047e-11 0)
(664 4.95466e-11 0)
(664 8.25104e-11 0)
(664 1.36951e-10 0)
(664 2.26837e-10 0)
(664 3.75082e-10 0)
(664 6.19693e-10 0)
(664 1.02353e-09 0)
(664 1.69034e-09 0)
(664 2.7918e-09 0)
(664 4.61186e-09 0)
(664 7.62e-09 0)
(664 1.25934e-08 0)
(664 2.08185e-08 0)
(664 3.44253e-08 0)
(664 5.69412e-08 0)
(664 9.42102e-08 0)
(664 1.55916e-07 0)
(664 2.58113e-07 0)
(664 4.27416e-07 0)
(664 7.07972e-07 0)
(664 1.17302e-06 0)
(664 1.9441e-06 0)
(664 3.22295e-06 0)
(664 5.34453e-06 0)
(664 8.8651e-06 0)
(664 1.47087e-05 0)
(664 2.44104e-05 0)
(664 4.05213e-05 0)
(664 6.72815e-05 0)
(663.999 0.000111739 0)
(663.999 0.000185611 0)
(663.998 0.000308378 0)
(663.997 0.00051243 0)
(663.996 0.000851621 0)
(663.993 0.00141549 0)
(663.989 0.00235288 0)
(663.982 0.00391119 0)
(663.971 0.00650151 0)
(663.952 0.0108067 0)
(663.923 0.0179607 0)
(663.876 0.0298448 0)
(663.8 0.0495792 0)
(663.679 0.0823328 0)
(663.484 0.136659 0)
(663.171 0.226695 0)
(662.67 0.375751 0)
(661.871 0.622194 0)
(660.599 1.02889 0)
(658.581 1.6985 0)
(655.393 2.7967 0)
(650.413 4.58916 0)
(642.67 7.48404 0)
(631.405 12.1008 0)
(664 -1.12456e-14 0)
(664 -8.80299e-15 0)
(664 -4.27806e-15 0)
(664 -3.81696e-14 0)
(664 -5.39755e-14 0)
(664 -5.51437e-14 0)
(664 -7.51564e-14 0)
(664 -9.97698e-14 0)
(664 -1.50434e-13 0)
(664 -2.27361e-13 0)
(664 -2.54099e-13 0)
(664 -2.78147e-13 0)
(664 -4.007e-13 0)
(664 -5.18837e-13 0)
(664 -5.55136e-13 0)
(664 -5.64635e-13 0)
(664 -5.81249e-13 0)
(664 -6.07966e-13 0)
(664 -5.78253e-13 0)
(664 -5.40749e-13 0)
(664 -5.0194e-13 0)
(664 -5.37476e-13 0)
(664 -6.4071e-13 0)
(664 -7.11787e-13 0)
(664 -6.58046e-13 0)
(664 -5.41414e-13 0)
(664 -4.41108e-13 0)
(664 -4.80054e-13 0)
(664 -5.85897e-13 0)
(664 -6.67056e-13 0)
(664 -7.28596e-13 0)
(664 -7.86436e-13 0)
(664 -8.38952e-13 0)
(664 -8.47623e-13 0)
(664 -7.80421e-13 0)
(664 -6.56299e-13 0)
(664 -5.80567e-13 0)
(664 -5.76971e-13 0)
(664 -5.47662e-13 0)
(664 -4.97442e-13 0)
(664 -5.11028e-13 0)
(664 -5.61849e-13 0)
(664 -6.4627e-13 0)
(664 -6.91685e-13 0)
(664 -7.06837e-13 0)
(664 -6.73554e-13 0)
(664 -6.3174e-13 0)
(664 -6.7935e-13 0)
(664 -7.43303e-13 0)
(664 -8.07555e-13 0)
(664 -7.99527e-13 0)
(664 -7.46528e-13 0)
(664 -6.51515e-13 0)
(664 -5.55832e-13 0)
(664 -4.50594e-13 0)
(664 -3.15959e-13 0)
(664 -1.83842e-13 0)
(664 -1.0228e-13 0)
(664 -1.51027e-13 0)
(664 -2.78179e-13 0)
(664 -4.12014e-13 0)
(664 -5.03975e-13 0)
(664 -5.18124e-13 0)
(664 -4.90283e-13 0)
(664 -3.97754e-13 0)
(664 -2.80661e-13 0)
(664 -2.03785e-13 0)
(664 -2.23583e-13 0)
(664 -3.41604e-13 0)
(664 -4.50044e-13 0)
(664 -5.322e-13 0)
(664 -5.88424e-13 0)
(664 -5.67419e-13 0)
(664 -5.0774e-13 0)
(664 -4.51535e-13 0)
(664 -4.25757e-13 0)
(664 -4.97734e-13 0)
(664 -5.96036e-13 0)
(664 -6.24113e-13 0)
(664 -5.61762e-13 0)
(664 -4.84828e-13 0)
(664 -4.28161e-13 0)
(664 -4.12962e-13 0)
(664 -4.71106e-13 0)
(664 -6.15545e-13 0)
(664 -7.76902e-13 0)
(664 -8.34015e-13 0)
(664 -7.59938e-13 0)
(664 -6.83878e-13 0)
(664 -5.50262e-13 0)
(664 -3.28774e-13 0)
(664 -1.43003e-13 0)
(664 -1.39235e-13 0)
(664 -2.86067e-13 0)
(664 -5.03877e-13 0)
(664 -7.6088e-13 0)
(664 -1.02249e-12 0)
(664 -1.22081e-12 0)
(664 -1.26679e-12 0)
(664 -1.18955e-12 0)
(664 -1.11404e-12 0)
(664 -1.08405e-12 0)
(664 -1.04581e-12 0)
(664 -9.5771e-13 0)
(664 -8.58449e-13 0)
(664 -8.00221e-13 0)
(664 -7.75341e-13 0)
(664 -8.16882e-13 0)
(664 -9.51769e-13 0)
(664 -1.08031e-12 0)
(664 -1.14446e-12 0)
(664 -1.18359e-12 0)
(664 -1.14891e-12 0)
(664 -1.05359e-12 0)
(664 -1.01981e-12 0)
(664 -1.00249e-12 0)
(664 -1.02986e-12 0)
(664 -1.06197e-12 0)
(664 -1.08253e-12 0)
(664 -1.07485e-12 0)
(664 -1.08126e-12 0)
(664 -1.09683e-12 0)
(664 -1.15692e-12 0)
(664 -1.228e-12 0)
(664 -1.24078e-12 0)
(664 -1.20731e-12 0)
(664 -1.22633e-12 0)
(664 -1.2475e-12 0)
(664 -1.19126e-12 0)
(664 -1.06796e-12 0)
(664 -9.64077e-13 0)
(664 -9.5175e-13 0)
(664 -1.02774e-12 0)
(664 -1.17341e-12 0)
(664 -1.34421e-12 0)
(664 -1.43389e-12 0)
(664 -1.52101e-12 0)
(664 -1.58974e-12 0)
(664 -1.56825e-12 0)
(664 -1.47082e-12 0)
(664 -1.34993e-12 0)
(664 -1.26733e-12 0)
(664 -1.24347e-12 0)
(664 -1.32181e-12 0)
(664 -1.45415e-12 0)
(664 -1.55866e-12 0)
(664 -1.58898e-12 0)
(664 -1.53878e-12 0)
(664 -1.38676e-12 0)
(664 -1.22676e-12 0)
(664 -1.08384e-12 0)
(664 -1.00797e-12 0)
(664 -9.89831e-13 0)
(664 -9.92773e-13 0)
(664 -1.04392e-12 0)
(664 -1.15276e-12 0)
(664 -1.31583e-12 0)
(664 -1.42551e-12 0)
(664 -1.54514e-12 0)
(664 -1.64709e-12 0)
(664 -1.75434e-12 0)
(664 -1.83221e-12 0)
(664 -1.85336e-12 0)
(664 -1.82985e-12 0)
(664 -1.78544e-12 0)
(664 -1.7018e-12 0)
(664 -1.65167e-12 0)
(664 -1.67002e-12 0)
(664 -1.63162e-12 0)
(664 -1.57217e-12 0)
(664 -1.51201e-12 0)
(664 -1.46985e-12 0)
(664 -1.39762e-12 0)
(664 -1.34364e-12 0)
(664 -1.3215e-12 0)
(664 -1.38077e-12 0)
(664 -1.44272e-12 0)
(664 -1.47347e-12 0)
(664 -1.48884e-12 0)
(664 -1.54112e-12 0)
(664 -1.5883e-12 0)
(664 -1.57703e-12 0)
(664 -1.4976e-12 0)
(664 -1.47096e-12 0)
(664 -1.4468e-12 0)
(664 -1.37349e-12 0)
(664 -1.40181e-12 0)
(664 -1.59724e-12 0)
(664 -1.7896e-12 0)
(664 -1.93138e-12 0)
(664 -1.98505e-12 0)
(664 -1.92573e-12 0)
(664 -1.75471e-12 0)
(664 -1.49043e-12 0)
(664 -1.16064e-12 0)
(664 -9.33234e-13 0)
(664 -8.55159e-13 0)
(664 -9.1843e-13 0)
(664 -1.10824e-12 0)
(664 -1.28292e-12 0)
(664 -1.44137e-12 0)
(664 -1.51674e-12 0)
(664 -1.48462e-12 0)
(664 -1.35611e-12 0)
(664 -1.03662e-12 0)
(664 -7.06123e-13 0)
(664 -4.59153e-13 0)
(664 -3.2167e-13 0)
(664 -3.11024e-13 0)
(664 -4.63598e-13 0)
(664 -7.43167e-13 0)
(664 -1.06155e-12 0)
(664 -1.34281e-12 0)
(664 -1.48521e-12 0)
(664 -1.47895e-12 0)
(664 -1.3928e-12 0)
(664 -1.27517e-12 0)
(664 -1.16221e-12 0)
(664 -1.0597e-12 0)
(664 -9.86834e-13 0)
(664 -9.31086e-13 0)
(664 -8.82496e-13 0)
(664 -8.39406e-13 0)
(664 -8.19646e-13 0)
(664 -8.32157e-13 0)
(664 -7.32354e-13 0)
(664 -4.88647e-13 0)
(664 -3.08476e-13 0)
(664 -3.04118e-13 0)
(664 -4.07065e-13 0)
(664 -5.2635e-13 0)
(664 -6.14029e-13 0)
(664 -7.29198e-13 0)
(664 -8.51672e-13 0)
(664 -1.00545e-12 0)
(664 -1.11819e-12 0)
(664 -1.08265e-12 0)
(664 -9.74715e-13 0)
(664 -9.07566e-13 0)
(664 -6.68408e-13 0)
(664 7.99753e-16 0)
(664 1.22436e-12 0)
(664 3.296e-12 0)
(664 6.58588e-12 0)
(664 1.19205e-11 0)
(664 2.05933e-11 0)
(664 3.47363e-11 0)
(664 5.77768e-11 0)
(664 9.54323e-11 0)
(664 1.57252e-10 0)
(664 2.58957e-10 0)
(664 4.26246e-10 0)
(664 7.01184e-10 0)
(664 1.15307e-09 0)
(664 1.89595e-09 0)
(664 3.11724e-09 0)
(664 5.12525e-09 0)
(664 8.42705e-09 0)
(664 1.38567e-08 0)
(664 2.2786e-08 0)
(664 3.74722e-08 0)
(664 6.16279e-08 0)
(664 1.01362e-07 0)
(664 1.66723e-07 0)
(664 2.74244e-07 0)
(664 4.51127e-07 0)
(664 7.4212e-07 0)
(664 1.22084e-06 0)
(664 2.00838e-06 0)
(664 3.30394e-06 0)
(664 5.43513e-06 0)
(664 8.94068e-06 0)
(664 1.47064e-05 0)
(664 2.41885e-05 0)
(664 3.97803e-05 0)
(664 6.54144e-05 0)
(664 0.00010755 0)
(663.999 0.000176795 0)
(663.999 0.00029056 0)
(663.998 0.00047741 0)
(663.997 0.000784187 0)
(663.995 0.00128766 0)
(663.992 0.00211356 0)
(663.987 0.00346766 0)
(663.979 0.00568645 0)
(663.966 0.00931963 0)
(663.946 0.0152643 0)
(663.913 0.0249829 0)
(663.861 0.0408554 0)
(663.778 0.0667505 0)
(663.647 0.108943 0)
(663.437 0.177593 0)
(663.105 0.289096 0)
(662.58 0.469856 0)
(661.749 0.762138 0)
(660.442 1.23342 0)
(658.388 1.98987 0)
(655.191 3.19854 0)
(650.21 5.10953 0)
(642.899 8.10686 0)
(664 3.49364e-14 0)
(664 6.79097e-14 0)
(664 7.59976e-14 0)
(664 7.54633e-14 0)
(664 5.66063e-14 0)
(664 1.11768e-13 0)
(664 1.67887e-13 0)
(664 1.74119e-13 0)
(664 1.55682e-13 0)
(664 1.24117e-13 0)
(664 1.11428e-13 0)
(664 8.33013e-14 0)
(664 1.65819e-14 0)
(664 1.37145e-14 0)
(664 1.54997e-14 0)
(664 -2.13687e-14 0)
(664 -4.86843e-14 0)
(664 -8.38851e-14 0)
(664 -1.39042e-13 0)
(664 -1.56947e-13 0)
(664 -2.16735e-13 0)
(664 -3.66187e-13 0)
(664 -5.44919e-13 0)
(664 -6.45345e-13 0)
(664 -6.34838e-13 0)
(664 -5.89702e-13 0)
(664 -5.5534e-13 0)
(664 -4.49968e-13 0)
(664 -3.13482e-13 0)
(664 -1.79203e-13 0)
(664 -8.31384e-14 0)
(664 -1.74441e-14 0)
(664 2.56404e-14 0)
(664 6.52239e-15 0)
(664 -7.23833e-14 0)
(664 -1.74881e-13 0)
(664 -2.80563e-13 0)
(664 -3.92104e-13 0)
(664 -5.54494e-13 0)
(664 -7.09323e-13 0)
(664 -8.34342e-13 0)
(664 -9.32588e-13 0)
(664 -9.77653e-13 0)
(664 -9.77134e-13 0)
(664 -9.57556e-13 0)
(664 -9.26609e-13 0)
(664 -9.2062e-13 0)
(664 -9.12468e-13 0)
(664 -8.86586e-13 0)
(664 -8.39705e-13 0)
(664 -7.68923e-13 0)
(664 -6.66475e-13 0)
(664 -5.6294e-13 0)
(664 -4.98995e-13 0)
(664 -5.53153e-13 0)
(664 -6.42652e-13 0)
(664 -7.03213e-13 0)
(664 -8.0352e-13 0)
(664 -8.80276e-13 0)
(664 -8.78021e-13 0)
(664 -7.91627e-13 0)
(664 -7.02266e-13 0)
(664 -6.43322e-13 0)
(664 -6.20193e-13 0)
(664 -5.74753e-13 0)
(664 -5.1604e-13 0)
(664 -5.37814e-13 0)
(664 -6.3494e-13 0)
(664 -7.27327e-13 0)
(664 -8.10475e-13 0)
(664 -8.98062e-13 0)
(664 -8.99611e-13 0)
(664 -8.51245e-13 0)
(664 -8.73376e-13 0)
(664 -9.65828e-13 0)
(664 -1.06034e-12 0)
(664 -1.10179e-12 0)
(664 -1.05337e-12 0)
(664 -9.20785e-13 0)
(664 -7.70248e-13 0)
(664 -6.72528e-13 0)
(664 -5.79817e-13 0)
(664 -4.23808e-13 0)
(664 -2.49388e-13 0)
(664 -2.95727e-13 0)
(664 -4.52962e-13 0)
(664 -6.14978e-13 0)
(664 -8.1727e-13 0)
(664 -1.00227e-12 0)
(664 -1.14221e-12 0)
(664 -1.17869e-12 0)
(664 -1.06681e-12 0)
(664 -8.76515e-13 0)
(664 -6.87545e-13 0)
(664 -5.57832e-13 0)
(664 -4.87973e-13 0)
(664 -5.3094e-13 0)
(664 -6.15452e-13 0)
(664 -6.69503e-13 0)
(664 -7.34457e-13 0)
(664 -8.33259e-13 0)
(664 -9.47787e-13 0)
(664 -1.07105e-12 0)
(664 -1.1671e-12 0)
(664 -1.24426e-12 0)
(664 -1.35915e-12 0)
(664 -1.36648e-12 0)
(664 -1.25133e-12 0)
(664 -1.07524e-12 0)
(664 -9.25129e-13 0)
(664 -8.53594e-13 0)
(664 -8.00311e-13 0)
(664 -7.19232e-13 0)
(664 -7.18563e-13 0)
(664 -7.03984e-13 0)
(664 -6.98796e-13 0)
(664 -7.17893e-13 0)
(664 -7.4498e-13 0)
(664 -7.54541e-13 0)
(664 -7.81137e-13 0)
(664 -7.28754e-13 0)
(664 -6.27163e-13 0)
(664 -4.95931e-13 0)
(664 -3.77809e-13 0)
(664 -3.55139e-13 0)
(664 -4.06754e-13 0)
(664 -5.44078e-13 0)
(664 -7.17929e-13 0)
(664 -8.60111e-13 0)
(664 -8.93411e-13 0)
(664 -8.78774e-13 0)
(664 -8.81681e-13 0)
(664 -8.91525e-13 0)
(664 -8.88637e-13 0)
(664 -9.25197e-13 0)
(664 -9.60632e-13 0)
(664 -9.8016e-13 0)
(664 -9.60884e-13 0)
(664 -8.66115e-13 0)
(664 -8.3274e-13 0)
(664 -8.9789e-13 0)
(664 -1.06083e-12 0)
(664 -1.2263e-12 0)
(664 -1.30317e-12 0)
(664 -1.35923e-12 0)
(664 -1.40288e-12 0)
(664 -1.44212e-12 0)
(664 -1.46239e-12 0)
(664 -1.3902e-12 0)
(664 -1.22486e-12 0)
(664 -9.31804e-13 0)
(664 -6.8559e-13 0)
(664 -5.41632e-13 0)
(664 -4.77956e-13 0)
(664 -4.88832e-13 0)
(664 -6.25379e-13 0)
(664 -8.28143e-13 0)
(664 -1.016e-12 0)
(664 -1.14943e-12 0)
(664 -1.29542e-12 0)
(664 -1.44576e-12 0)
(664 -1.58886e-12 0)
(664 -1.70116e-12 0)
(664 -1.71329e-12 0)
(664 -1.67048e-12 0)
(664 -1.53799e-12 0)
(664 -1.46192e-12 0)
(664 -1.40863e-12 0)
(664 -1.36438e-12 0)
(664 -1.36772e-12 0)
(664 -1.39504e-12 0)
(664 -1.45479e-12 0)
(664 -1.54307e-12 0)
(664 -1.63159e-12 0)
(664 -1.7825e-12 0)
(664 -1.96302e-12 0)
(664 -2.09745e-12 0)
(664 -2.09064e-12 0)
(664 -1.99902e-12 0)
(664 -1.90233e-12 0)
(664 -1.88109e-12 0)
(664 -1.82722e-12 0)
(664 -1.6656e-12 0)
(664 -1.40561e-12 0)
(664 -1.17125e-12 0)
(664 -1.05723e-12 0)
(664 -9.85144e-13 0)
(664 -8.86007e-13 0)
(664 -8.62642e-13 0)
(664 -9.4774e-13 0)
(664 -1.14351e-12 0)
(664 -1.34196e-12 0)
(664 -1.47439e-12 0)
(664 -1.50128e-12 0)
(664 -1.42091e-12 0)
(664 -1.24337e-12 0)