/*--------------------------------*- C++ -*----------------------------------*\
| =========                 |                                                 |
| \\      /  F ield         | OpenFOAM: The Open Source CFD Toolbox           |
|  \\    /   O peration     | Version:  2412                                  |
|   \\  /    A nd           | Website:  www.openfoam.com                      |
|    \\/     M anipulation  |                                                 |
\*---------------------------------------------------------------------------*/
FoamFile
{
    version     2.0;
    format      ascii;
    arch        "LSB;label=32;scalar=64";
    class       volVectorField;
    location    "0.0045";
    object      U_0;
}
// * * * * * * * * * * * * * * * * * * * * * * * * * * * * * * * * * * * * * //

dimensions      [0 1 -1 0 0 0 0];

internalField   nonuniform List<vector> 
180000
(
(664 2.165e-15 0)
(664 1.90459e-14 0)
(664 4.29294e-14 0)
(664 2.67186e-14 0)
(664 1.03908e-14 0)
(664 -1.46212e-14 0)
(664 -1.30974e-14 0)
(664 -2.07221e-14 0)
(664 -8.8518e-14 0)
(664 -1.68794e-13 0)
(664 -2.73298e-13 0)
(664 -4.47308e-13 0)
(664 -6.05524e-13 0)
(664 -6.58075e-13 0)
(664 -7.07832e-13 0)
(664 -7.95837e-13 0)
(664 -8.45739e-13 0)
(664 -9.25017e-13 0)
(664 -9.48015e-13 0)
(664 -9.02888e-13 0)
(664 -8.27667e-13 0)
(664 -7.43377e-13 0)
(664 -6.16379e-13 0)
(664 -5.20327e-13 0)
(664 -5.33296e-13 0)
(664 -5.9471e-13 0)
(664 -6.30168e-13 0)
(664 -6.37764e-13 0)
(664 -5.96969e-13 0)
(664 -5.2297e-13 0)
(664 -4.76655e-13 0)
(664 -4.38049e-13 0)
(664 -4.3775e-13 0)
(664 -4.74418e-13 0)
(664 -4.60746e-13 0)
(664 -4.55656e-13 0)
(664 -5.10273e-13 0)
(664 -5.32019e-13 0)
(664 -5.40335e-13 0)
(664 -5.72435e-13 0)
(664 -5.80792e-13 0)
(664 -5.60827e-13 0)
(664 -5.47212e-13 0)
(664 -5.35431e-13 0)
(664 -4.95272e-13 0)
(664 -4.7524e-13 0)
(664 -4.57943e-13 0)
(664 -4.51639e-13 0)
(664 -3.92308e-13 0)
(664 -3.10601e-13 0)
(664 -2.57982e-13 0)
(664 -2.56929e-13 0)
(664 -3.1142e-13 0)
(664 -3.85964e-13 0)
(664 -4.2747e-13 0)
(664 -4.50157e-13 0)
(664 -4.1589e-13 0)
(664 -3.79909e-13 0)
(664 -3.53749e-13 0)
(664 -3.86393e-13 0)
(664 -4.33726e-13 0)
(664 -4.85668e-13 0)
(664 -5.65145e-13 0)
(664 -6.70716e-13 0)
(664 -8.78371e-13 0)
(664 -1.09124e-12 0)
(664 -1.22831e-12 0)
(664 -1.27616e-12 0)
(664 -1.30946e-12 0)
(664 -1.29961e-12 0)
(664 -1.26044e-12 0)
(664 -1.17461e-12 0)
(664 -1.07821e-12 0)
(664 -1.00787e-12 0)
(664 -9.58454e-13 0)
(664 -1.05167e-12 0)
(664 -1.2804e-12 0)
(664 -1.46084e-12 0)
(664 -1.50726e-12 0)
(664 -1.53451e-12 0)
(664 -1.56322e-12 0)
(664 -1.53749e-12 0)
(664 -1.42649e-12 0)
(664 -1.3031e-12 0)
(664 -1.17225e-12 0)
(664 -1.04529e-12 0)
(664 -9.36757e-13 0)
(664 -8.68525e-13 0)
(664 -7.26162e-13 0)
(664 -5.54612e-13 0)
(664 -3.89894e-13 0)
(664 -2.96109e-13 0)
(664 -2.56709e-13 0)
(664 -2.87647e-13 0)
(664 -3.56165e-13 0)
(664 -4.84498e-13 0)
(664 -6.00324e-13 0)
(664 -6.92674e-13 0)
(664 -8.62225e-13 0)
(664 -1.01418e-12 0)
(664 -1.1156e-12 0)
(664 -1.20954e-12 0)
(664 -1.25099e-12 0)
(664 -1.27795e-12 0)
(664 -1.26978e-12 0)
(664 -1.22713e-12 0)
(664 -1.11787e-12 0)
(664 -9.45448e-13 0)
(664 -8.60102e-13 0)
(664 -9.09149e-13 0)
(664 -1.03143e-12 0)
(664 -1.11083e-12 0)
(664 -1.11487e-12 0)
(664 -1.15621e-12 0)
(664 -1.23504e-12 0)
(664 -1.40331e-12 0)
(664 -1.55002e-12 0)
(664 -1.6335e-12 0)
(664 -1.70154e-12 0)
(664 -1.73106e-12 0)
(664 -1.72933e-12 0)
(664 -1.6376e-12 0)
(664 -1.50741e-12 0)
(664 -1.42296e-12 0)
(664 -1.38058e-12 0)
(664 -1.3077e-12 0)
(664 -1.16171e-12 0)
(664 -1.03947e-12 0)
(664 -9.86558e-13 0)
(664 -9.65184e-13 0)
(664 -9.38365e-13 0)
(664 -9.07556e-13 0)
(664 -9.07515e-13 0)
(664 -9.19882e-13 0)
(664 -9.75921e-13 0)
(664 -9.92779e-13 0)
(664 -9.34616e-13 0)
(664 -8.76354e-13 0)
(664 -8.69089e-13 0)
(664 -8.52976e-13 0)
(664 -7.93667e-13 0)
(664 -6.85859e-13 0)
(664 -5.4488e-13 0)
(664 -4.09658e-13 0)
(664 -3.50251e-13 0)
(664 -4.06226e-13 0)
(664 -4.96184e-13 0)
(664 -5.14757e-13 0)
(664 -5.13923e-13 0)
(664 -4.90391e-13 0)
(664 -4.75367e-13 0)
(664 -4.80102e-13 0)
(664 -5.70961e-13 0)
(664 -6.47997e-13 0)
(664 -6.99078e-13 0)
(664 -7.98354e-13 0)
(664 -9.10712e-13 0)
(664 -9.31578e-13 0)
(664 -8.52923e-13 0)
(664 -8.12159e-13 0)
(664 -8.01877e-13 0)
(664 -7.38032e-13 0)
(664 -6.54572e-13 0)
(664 -6.35168e-13 0)
(664 -6.14317e-13 0)
(664 -5.70226e-13 0)
(664 -5.90563e-13 0)
(664 -6.47959e-13 0)
(664 -6.43806e-13 0)
(664 -7.19602e-13 0)
(664 -9.23249e-13 0)
(664 -1.06671e-12 0)
(664 -1.16665e-12 0)
(664 -1.29323e-12 0)
(664 -1.40857e-12 0)
(664 -1.41618e-12 0)
(664 -1.38245e-12 0)
(664 -1.31373e-12 0)
(664 -1.22083e-12 0)
(664 -1.09973e-12 0)
(664 -9.79765e-13 0)
(664 -9.01588e-13 0)
(664 -8.76042e-13 0)
(664 -9.34252e-13 0)
(664 -1.02168e-12 0)
(664 -1.09719e-12 0)
(664 -1.20625e-12 0)
(664 -1.33323e-12 0)
(664 -1.34358e-12 0)
(664 -1.26615e-12 0)
(664 -1.15552e-12 0)
(664 -1.09458e-12 0)
(664 -1.08778e-12 0)
(664 -1.20814e-12 0)
(664 -1.2934e-12 0)
(664 -1.30022e-12 0)
(664 -1.27559e-12 0)
(664 -1.2519e-12 0)
(664 -1.25719e-12 0)
(664 -1.22894e-12 0)
(664 -1.24604e-12 0)
(664 -1.30738e-12 0)
(664 -1.3102e-12 0)
(664 -1.16663e-12 0)
(664 -9.04433e-13 0)
(664 -5.99998e-13 0)
(664 -3.19757e-13 0)
(664 -1.40027e-13 0)
(664 -8.84991e-14 0)
(664 -1.4369e-13 0)
(664 -2.51279e-13 0)
(664 -3.6704e-13 0)
(664 -4.60922e-13 0)
(664 -5.47397e-13 0)
(664 -6.04352e-13 0)
(664 -6.61348e-13 0)
(664 -6.54506e-13 0)
(664 -6.76348e-13 0)
(664 -8.09559e-13 0)
(664 -1.01063e-12 0)
(664 -1.16211e-12 0)
(664 -1.20293e-12 0)
(664 -1.2136e-12 0)
(664 -1.16971e-12 0)
(664 -1.13832e-12 0)
(664 -1.10505e-12 0)
(664 -1.02645e-12 0)
(664 -8.95538e-13 0)
(664 -8.61048e-13 0)
(664 -9.40716e-13 0)
(664 -1.11123e-12 0)
(664 -1.26844e-12 0)
(664 -1.26595e-12 0)
(664 -1.1041e-12 0)
(664 -8.45971e-13 0)
(664 -6.24949e-13 0)
(664 -4.83753e-13 0)
(664 -5.10053e-13 0)
(664 -6.78286e-13 0)
(664 -9.21032e-13 0)
(664 -1.03035e-12 0)
(664 -9.2841e-13 0)
(664 -5.16446e-13 0)
(664 2.74011e-13 0)
(664 1.54519e-12 0)
(664 3.53183e-12 0)
(664 6.6896e-12 0)
(664 1.1732e-11 0)
(664 1.98892e-11 0)
(664 3.3378e-11 0)
(664 5.58467e-11 0)
(664 9.32656e-11 0)
(664 1.55533e-10 0)
(664 2.59193e-10 0)
(664 4.31601e-10 0)
(664 7.18387e-10 0)
(664 1.19572e-09 0)
(664 1.99077e-09 0)
(664 3.31588e-09 0)
(664 5.52598e-09 0)
(664 9.21485e-09 0)
(664 1.53769e-08 0)
(664 2.5679e-08 0)
(664 4.29173e-08 0)
(664 7.17875e-08 0)
(664 1.20183e-07 0)
(664 2.01389e-07 0)
(664 3.37787e-07 0)
(664 5.67129e-07 0)
(664 9.53175e-07 0)
(664 1.60374e-06 0)
(664 2.7014e-06 0)
(664 4.55573e-06 0)
(664 7.69239e-06 0)
(664 1.30054e-05 0)
(663.999 2.20174e-05 0)
(663.999 3.73262e-05 0)
(663.999 6.3371e-05 0)
(663.998 0.000107751 0)
(663.996 0.000183495 0)
(663.994 0.000312991 0)
(663.99 0.000534763 0)
(663.983 0.000915249 0)
(663.972 0.00156923 0)
(663.954 0.00269543 0)
(663.924 0.00463853 0)
(663.874 0.00799774 0)
(663.793 0.0138167 0)
(663.659 0.0239173 0)
(663.437 0.041486 0)
(663.071 0.0721106 0)
(662.464 0.125604 0)
(661.459 0.219265 0)
(659.791 0.383574 0)
(657.026 0.672683 0)
(652.435 1.18203 0)
(644.831 2.08359 0)
(632.263 3.67574 0)
(611.82 6.51259 0)
(579.74 11.4668 0)
(664 2.60493e-14 0)
(664 4.72084e-14 0)
(664 4.28642e-14 0)
(664 2.36013e-16 0)
(664 -1.99183e-14 0)
(664 -2.75311e-14 0)
(664 -3.78117e-14 0)
(664 -3.16503e-14 0)
(664 -6.54909e-14 0)
(664 -1.14092e-13 0)
(664 -1.20882e-13 0)
(664 -9.73022e-14 0)
(664 -1.0937e-13 0)
(664 -1.70553e-13 0)
(664 -2.99327e-13 0)
(664 -4.54751e-13 0)
(664 -5.39054e-13 0)
(664 -6.11809e-13 0)
(664 -6.72408e-13 0)
(664 -7.43936e-13 0)
(664 -7.95054e-13 0)
(664 -8.01716e-13 0)
(664 -6.90175e-13 0)
(664 -5.9993e-13 0)
(664 -6.15072e-13 0)
(664 -7.28509e-13 0)
(664 -8.66617e-13 0)
(664 -9.69715e-13 0)
(664 -1.03932e-12 0)
(664 -1.04013e-12 0)
(664 -9.9098e-13 0)
(664 -8.8668e-13 0)
(664 -8.38092e-13 0)
(664 -8.30833e-13 0)
(664 -7.87352e-13 0)
(664 -7.42464e-13 0)
(664 -6.49514e-13 0)
(664 -6.20638e-13 0)
(664 -6.88325e-13 0)
(664 -7.67013e-13 0)
(664 -8.13092e-13 0)
(664 -8.08742e-13 0)
(664 -7.93795e-13 0)
(664 -7.84375e-13 0)
(664 -8.21499e-13 0)
(664 -8.76276e-13 0)
(664 -8.71053e-13 0)
(664 -8.07948e-13 0)
(664 -7.64132e-13 0)
(664 -7.51287e-13 0)
(664 -7.80563e-13 0)
(664 -7.4699e-13 0)
(664 -6.75812e-13 0)
(664 -6.08132e-13 0)
(664 -4.88835e-13 0)
(664 -4.28479e-13 0)
(664 -4.18705e-13 0)
(664 -4.24606e-13 0)
(664 -4.44974e-13 0)
(664 -4.91786e-13 0)
(664 -5.96322e-13 0)
(664 -7.07924e-13 0)
(664 -7.71635e-13 0)
(664 -8.57822e-13 0)
(664 -1.00988e-12 0)
(664 -1.22053e-12 0)
(664 -1.35184e-12 0)
(664 -1.33241e-12 0)
(664 -1.22086e-12 0)
(664 -1.10901e-12 0)
(664 -1.04202e-12 0)
(664 -9.58593e-13 0)
(664 -9.10851e-13 0)
(664 -9.12629e-13 0)
(664 -9.21822e-13 0)
(664 -9.1616e-13 0)
(664 -9.4747e-13 0)
(664 -9.74729e-13 0)
(664 -9.55507e-13 0)
(664 -9.46795e-13 0)
(664 -1.05915e-12 0)
(664 -1.18281e-12 0)
(664 -1.26618e-12 0)
(664 -1.27389e-12 0)
(664 -1.16319e-12 0)
(664 -1.03722e-12 0)
(664 -9.33099e-13 0)
(664 -7.93078e-13 0)
(664 -6.24783e-13 0)
(664 -5.06578e-13 0)
(664 -4.53074e-13 0)
(664 -3.64217e-13 0)
(664 -2.30222e-13 0)
(664 -1.04135e-13 0)
(664 -1.63225e-14 0)
(664 -1.61057e-14 0)
(664 -1.0478e-13 0)
(664 -2.88994e-13 0)
(664 -5.27815e-13 0)
(664 -7.36701e-13 0)
(664 -8.10442e-13 0)
(664 -8.4275e-13 0)
(664 -9.27956e-13 0)
(664 -1.08597e-12 0)
(664 -1.25573e-12 0)
(664 -1.35857e-12 0)
(664 -1.36347e-12 0)
(664 -1.28149e-12 0)
(664 -1.14543e-12 0)
(664 -1.07404e-12 0)
(664 -1.04154e-12 0)
(664 -9.93045e-13 0)
(664 -9.34875e-13 0)
(664 -9.02115e-13 0)
(664 -9.00093e-13 0)
(664 -9.34298e-13 0)
(664 -9.32325e-13 0)
(664 -9.22415e-13 0)
(664 -9.52504e-13 0)
(664 -9.62729e-13 0)
(664 -9.53848e-13 0)
(664 -9.25873e-13 0)
(664 -9.26957e-13 0)
(664 -1.05581e-12 0)
(664 -1.21814e-12 0)
(664 -1.26296e-12 0)
(664 -1.18071e-12 0)
(664 -1.14428e-12 0)
(664 -1.2414e-12 0)
(664 -1.33672e-12 0)
(664 -1.35066e-12 0)
(664 -1.22927e-12 0)
(664 -1.06972e-12 0)
(664 -9.21199e-13 0)
(664 -8.40457e-13 0)
(664 -7.959e-13 0)
(664 -7.92715e-13 0)
(664 -8.20413e-13 0)
(664 -9.39355e-13 0)
(664 -1.10551e-12 0)
(664 -1.25935e-12 0)
(664 -1.37467e-12 0)
(664 -1.40104e-12 0)
(664 -1.35095e-12 0)
(664 -1.26076e-12 0)
(664 -1.18808e-12 0)
(664 -1.12087e-12 0)
(664 -1.06265e-12 0)
(664 -9.74573e-13 0)
(664 -9.42888e-13 0)
(664 -9.90863e-13 0)
(664 -1.0453e-12 0)
(664 -1.12558e-12 0)
(664 -1.14441e-12 0)
(664 -1.16675e-12 0)
(664 -1.22934e-12 0)
(664 -1.32072e-12 0)
(664 -1.32173e-12 0)
(664 -1.2145e-12 0)
(664 -1.13059e-12 0)
(664 -1.09489e-12 0)
(664 -1.11894e-12 0)
(664 -1.08846e-12 0)
(664 -1.11287e-12 0)
(664 -1.17366e-12 0)
(664 -1.1419e-12 0)
(664 -1.06746e-12 0)
(664 -1.07583e-12 0)
(664 -1.08505e-12 0)
(664 -1.08146e-12 0)
(664 -1.18513e-12 0)
(664 -1.33331e-12 0)
(664 -1.47221e-12 0)
(664 -1.62076e-12 0)
(664 -1.75542e-12 0)
(664 -1.85999e-12 0)
(664 -1.93401e-12 0)
(664 -1.95425e-12 0)
(664 -1.90112e-12 0)
(664 -1.77499e-12 0)
(664 -1.60173e-12 0)
(664 -1.39306e-12 0)
(664 -1.25919e-12 0)
(664 -1.2295e-12 0)
(664 -1.20218e-12 0)
(664 -1.17385e-12 0)
(664 -1.16282e-12 0)
(664 -1.16633e-12 0)
(664 -1.14876e-12 0)
(664 -1.07785e-12 0)
(664 -1.09209e-12 0)
(664 -1.19804e-12 0)
(664 -1.40434e-12 0)
(664 -1.67791e-12 0)
(664 -1.88675e-12 0)
(664 -2.02914e-12 0)
(664 -2.05937e-12 0)
(664 -1.99251e-12 0)
(664 -1.91114e-12 0)
(664 -1.87061e-12 0)
(664 -1.83312e-12 0)
(664 -1.74751e-12 0)
(664 -1.61528e-12 0)
(664 -1.49686e-12 0)
(664 -1.39232e-12 0)
(664 -1.27231e-12 0)
(664 -1.1166e-12 0)
(664 -9.06541e-13 0)
(664 -7.24111e-13 0)
(664 -5.84748e-13 0)
(664 -5.53108e-13 0)
(664 -5.70307e-13 0)
(664 -5.50912e-13 0)
(664 -5.68208e-13 0)
(664 -6.29617e-13 0)
(664 -6.83565e-13 0)
(664 -7.00166e-13 0)
(664 -6.91279e-13 0)
(664 -7.16029e-13 0)
(664 -7.59526e-13 0)
(664 -7.37202e-13 0)
(664 -7.69796e-13 0)
(664 -8.69665e-13 0)
(664 -1.03984e-12 0)
(664 -1.33362e-12 0)
(664 -1.67657e-12 0)
(664 -1.84744e-12 0)
(664 -1.82764e-12 0)
(664 -1.71777e-12 0)
(664 -1.58765e-12 0)
(664 -1.4994e-12 0)
(664 -1.42472e-12 0)
(664 -1.35748e-12 0)
(664 -1.23913e-12 0)
(664 -1.03752e-12 0)
(664 -8.19002e-13 0)
(664 -6.7539e-13 0)
(664 -5.33548e-13 0)
(664 -3.29546e-13 0)
(664 -5.94589e-14 0)
(664 3.36771e-13 0)
(664 9.65832e-13 0)
(664 2.073e-12 0)
(664 3.91538e-12 0)
(664 6.95131e-12 0)
(664 1.1955e-11 0)
(664 2.02954e-11 0)
(664 3.41542e-11 0)
(664 5.70178e-11 0)
(664 9.48032e-11 0)
(664 1.5729e-10 0)
(664 2.60918e-10 0)
(664 4.32761e-10 0)
(664 7.17695e-10 0)
(664 1.1902e-09 0)
(664 1.97398e-09 0)
(664 3.27487e-09 0)
(664 5.43522e-09 0)
(664 9.02468e-09 0)
(664 1.49913e-08 0)
(664 2.49148e-08 0)
(664 4.14285e-08 0)
(664 6.89249e-08 0)
(664 1.14736e-07 0)
(664 1.91107e-07 0)
(664 3.18506e-07 0)
(664 5.31166e-07 0)
(664 8.86388e-07 0)
(664 1.48016e-06 0)
(664 2.4734e-06 0)
(664 4.13609e-06 0)
(664 6.9216e-06 0)
(664 1.15919e-05 0)
(664 1.94287e-05 0)
(664 3.25902e-05 0)
(664 5.47135e-05 0)
(663.999 9.19343e-05 0)
(663.999 0.000154614 0)
(663.998 0.000260266 0)
(663.997 0.000438527 0)
(663.995 0.000739604 0)
(663.991 0.00124864 0)
(663.985 0.00211018 0)
(663.976 0.00356993 0)
(663.961 0.00604604 0)
(663.937 0.0102509 0)
(663.898 0.0173998 0)
(663.833 0.0295684 0)
(663.729 0.0503065 0)
(663.559 0.0856912 0)
(663.283 0.146142 0)
(662.835 0.249539 0)
(662.109 0.426614 0)
(660.934 0.730167 0)
(659.037 1.25122 0)
(655.986 2.14565 0)
(651.101 3.68281 0)
(643.372 6.31381 0)
(631.265 10.8134 0)
(613.646 18.3317 0)
(664 -2.37629e-15 0)
(664 -3.00109e-14 0)
(664 -3.46768e-14 0)
(664 2.54721e-14 0)
(664 4.9299e-14 0)
(664 3.29372e-14 0)
(664 2.70075e-14 0)
(664 1.17311e-14 0)
(664 -1.35764e-14 0)
(664 -2.90134e-14 0)
(664 3.96703e-14 0)
(664 1.44661e-13 0)
(664 1.75843e-13 0)
(664 9.81274e-14 0)
(664 3.37189e-14 0)
(664 -3.76617e-14 0)
(664 -1.36774e-13 0)
(664 -1.70456e-13 0)
(664 -1.87188e-13 0)
(664 -2.36964e-13 0)
(664 -2.998e-13 0)
(664 -3.61243e-13 0)
(664 -4.50809e-13 0)
(664 -5.32242e-13 0)
(664 -5.22486e-13 0)
(664 -4.51105e-13 0)
(664 -4.10781e-13 0)
(664 -4.36179e-13 0)
(664 -5.15252e-13 0)
(664 -5.88686e-13 0)
(664 -6.26941e-13 0)
(664 -6.33834e-13 0)
(664 -5.46265e-13 0)
(664 -4.05041e-13 0)
(664 -2.83134e-13 0)
(664 -2.12607e-13 0)
(664 -1.75048e-13 0)
(664 -1.92188e-13 0)
(664 -2.14698e-13 0)
(664 -2.26302e-13 0)
(664 -2.25043e-13 0)
(664 -2.53972e-13 0)
(664 -2.86247e-13 0)
(664 -3.29269e-13 0)
(664 -4.07955e-13 0)
(664 -4.93899e-13 0)
(664 -5.19406e-13 0)
(664 -5.00805e-13 0)
(664 -5.79324e-13 0)
(664 -7.6281e-13 0)
(664 -9.4584e-13 0)
(664 -1.10686e-12 0)
(664 -1.18174e-12 0)
(664 -1.08182e-12 0)
(664 -9.06899e-13 0)
(664 -7.56373e-13 0)
(664 -7.24383e-13 0)
(664 -8.30288e-13 0)
(664 -9.70175e-13 0)
(664 -1.05037e-12 0)
(664 -1.11463e-12 0)
(664 -1.18745e-12 0)
(664 -1.22459e-12 0)
(664 -1.25643e-12 0)
(664 -1.24966e-12 0)
(664 -1.19323e-12 0)
(664 -1.15553e-12 0)
(664 -1.03741e-12 0)
(664 -8.57638e-13 0)
(664 -6.39981e-13 0)
(664 -5.44473e-13 0)
(664 -5.72026e-13 0)
(664 -5.82396e-13 0)
(664 -5.90283e-13 0)
(664 -6.16473e-13 0)
(664 -6.02273e-13 0)
(664 -5.98641e-13 0)
(664 -6.22278e-13 0)
(664 -6.62172e-13 0)
(664 -6.5638e-13 0)
(664 -6.61213e-13 0)
(664 -7.81048e-13 0)
(664 -9.86468e-13 0)
(664 -1.15827e-12 0)
(664 -1.25897e-12 0)
(664 -1.28638e-12 0)
(664 -1.2133e-12 0)
(664 -1.07442e-12 0)
(664 -1.02433e-12 0)
(664 -1.03521e-12 0)
(664 -1.03598e-12 0)
(664 -9.94181e-13 0)
(664 -9.5376e-13 0)
(664 -9.22397e-13 0)
(664 -8.92389e-13 0)
(664 -8.11724e-13 0)
(664 -7.29684e-13 0)
(664 -7.11478e-13 0)
(664 -6.52326e-13 0)
(664 -6.01201e-13 0)
(664 -5.5161e-13 0)
(664 -4.89484e-13 0)
(664 -4.64561e-13 0)
(664 -5.16155e-13 0)
(664 -5.93176e-13 0)
(664 -6.9843e-13 0)
(664 -8.72479e-13 0)
(664 -1.09852e-12 0)
(664 -1.25585e-12 0)
(664 -1.32426e-12 0)
(664 -1.32803e-12 0)
(664 -1.33663e-12 0)
(664 -1.35182e-12 0)
(664 -1.3297e-12 0)
(664 -1.26376e-12 0)
(664 -1.10512e-12 0)
(664 -9.34689e-13 0)
(664 -8.2263e-13 0)
(664 -7.48712e-13 0)
(664 -7.57921e-13 0)
(664 -7.66443e-13 0)
(664 -8.16355e-13 0)
(664 -9.17302e-13 0)
(664 -9.80209e-13 0)
(664 -1.03318e-12 0)
(664 -1.04771e-12 0)
(664 -1.02988e-12 0)
(664 -9.838e-13 0)
(664 -9.89207e-13 0)
(664 -1.08906e-12 0)
(664 -1.18091e-12 0)
(664 -1.20947e-12 0)
(664 -1.15374e-12 0)
(664 -1.05807e-12 0)
(664 -9.31829e-13 0)
(664 -8.25274e-13 0)
(664 -7.00098e-13 0)
(664 -6.22873e-13 0)
(664 -5.98007e-13 0)
(664 -6.27659e-13 0)
(664 -7.18516e-13 0)
(664 -8.38615e-13 0)
(664 -1.03445e-12 0)
(664 -1.24803e-12 0)
(664 -1.4257e-12 0)
(664 -1.47615e-12 0)
(664 -1.35667e-12 0)
(664 -1.2223e-12 0)
(664 -1.09548e-12 0)
(664 -1.03027e-12 0)
(664 -1.03947e-12 0)
(664 -1.04428e-12 0)
(664 -1.00849e-12 0)
(664 -9.22523e-13 0)
(664 -7.98622e-13 0)
(664 -6.61703e-13 0)
(664 -5.64459e-13 0)
(664 -5.37596e-13 0)
(664 -5.35791e-13 0)
(664 -5.7188e-13 0)
(664 -7.05746e-13 0)
(664 -9.3123e-13 0)
(664 -1.20105e-12 0)
(664 -1.42474e-12 0)
(664 -1.63639e-12 0)
(664 -1.7263e-12 0)
(664 -1.76052e-12 0)
(664 -1.74497e-12 0)
(664 -1.71366e-12 0)
(664 -1.6228e-12 0)
(664 -1.52155e-12 0)
(664 -1.43502e-12 0)
(664 -1.30145e-12 0)
(664 -1.07096e-12 0)
(664 -9.07935e-13 0)
(664 -8.45474e-13 0)
(664 -8.67268e-13 0)
(664 -9.78851e-13 0)
(664 -1.0983e-12 0)
(664 -1.19791e-12 0)
(664 -1.24637e-12 0)
(664 -1.25005e-12 0)
(664 -1.23915e-12 0)
(664 -1.22079e-12 0)
(664 -1.20359e-12 0)
(664 -1.18738e-12 0)
(664 -1.18917e-12 0)
(664 -1.2061e-12 0)
(664 -1.20744e-12 0)
(664 -1.1917e-12 0)
(664 -1.16516e-12 0)
(664 -1.13976e-12 0)
(664 -1.15969e-12 0)
(664 -1.22478e-12 0)
(664 -1.33381e-12 0)
(664 -1.45021e-12 0)
(664 -1.46863e-12 0)
(664 -1.33322e-12 0)
(664 -1.09476e-12 0)
(664 -8.11834e-13 0)
(664 -5.26259e-13 0)
(664 -3.14451e-13 0)
(664 -1.56226e-13 0)
(664 -2.01183e-13 0)
(664 -4.0999e-13 0)
(664 -6.4566e-13 0)
(664 -8.70808e-13 0)
(664 -1.08195e-12 0)
(664 -1.14119e-12 0)
(664 -1.10207e-12 0)
(664 -1.08826e-12 0)
(664 -1.11511e-12 0)
(664 -1.1646e-12 0)
(664 -1.1759e-12 0)
(664 -1.17956e-12 0)
(664 -1.23427e-12 0)
(664 -1.29917e-12 0)
(664 -1.2336e-12 0)
(664 -1.05751e-12 0)
(664 -8.87826e-13 0)
(664 -7.51918e-13 0)
(664 -6.64258e-13 0)
(664 -6.35829e-13 0)
(664 -6.95662e-13 0)
(664 -7.85545e-13 0)
(664 -8.91855e-13 0)
(664 -1.00868e-12 0)
(664 -1.07123e-12 0)
(664 -1.02754e-12 0)
(664 -9.64723e-13 0)
(664 -9.35466e-13 0)
(664 -9.54956e-13 0)
(664 -1.07463e-12 0)
(664 -1.32267e-12 0)
(664 -1.58633e-12 0)
(664 -1.75327e-12 0)
(664 -1.72449e-12 0)
(664 -1.53919e-12 0)
(664 -1.10763e-12 0)
(664 -4.68645e-13 0)
(664 3.34095e-13 0)
(664 1.42881e-12 0)
(664 3.07659e-12 0)
(664 5.76563e-12 0)
(664 1.02042e-11 0)
(664 1.75332e-11 0)
(664 2.96112e-11 0)
(664 4.95536e-11 0)
(664 8.25402e-11 0)
(664 1.37054e-10 0)
(664 2.26938e-10 0)
(664 3.75167e-10 0)
(664 6.19816e-10 0)
(664 1.02362e-09 0)
(664 1.69038e-09 0)
(664 2.79181e-09 0)
(664 4.61171e-09 0)
(664 7.61971e-09 0)
(664 1.2593e-08 0)
(664 2.08181e-08 0)
(664 3.44247e-08 0)
(664 5.69405e-08 0)
(664 9.42091e-08 0)
(664 1.55915e-07 0)
(664 2.58109e-07 0)
(664 4.27411e-07 0)
(664 7.07964e-07 0)
(664 1.17301e-06 0)
(664 1.94408e-06 0)
(664 3.22292e-06 0)
(664 5.34448e-06 0)
(664 8.86501e-06 0)
(664 1.47085e-05 0)
(664 2.44102e-05 0)
(664 4.0521e-05 0)
(664 6.72809e-05 0)
(663.999 0.000111738 0)
(663.999 0.000185609 0)
(663.998 0.000308375 0)
(663.997 0.000512426 0)
(663.996 0.000851615 0)
(663.993 0.00141548 0)
(663.989 0.00235286 0)
(663.982 0.00391116 0)
(663.971 0.00650147 0)
(663.952 0.0108067 0)
(663.923 0.0179606 0)
(663.876 0.0298447 0)
(663.8 0.0495789 0)
(663.679 0.0823324 0)
(663.484 0.136659 0)
(663.171 0.226694 0)
(662.67 0.375749 0)
(661.871 0.622191 0)
(660.599 1.02888 0)
(658.581 1.69849 0)
(655.393 2.79669 0)
(650.413 4.58913 0)
(642.67 7.48401 0)
(631.405 12.1008 0)
(664 -1.52386e-14 0)
(664 -1.39409e-14 0)
(664 -2.8186e-14 0)
(664 -4.05776e-14 0)
(664 -2.88396e-14 0)
(664 -5.6e-14 0)
(664 -6.90898e-14 0)
(664 -9.28941e-14 0)
(664 -1.51451e-13 0)
(664 -1.80032e-13 0)
(664 -2.01392e-13 0)
(664 -3.22117e-13 0)
(664 -4.47986e-13 0)
(664 -5.02437e-13 0)
(664 -5.55099e-13 0)
(664 -5.75334e-13 0)
(664 -5.93958e-13 0)
(664 -5.71152e-13 0)
(664 -5.23617e-13 0)
(664 -5.10224e-13 0)
(664 -5.1538e-13 0)
(664 -6.0735e-13 0)
(664 -6.8252e-13 0)
(664 -6.61702e-13 0)
(664 -5.5658e-13 0)
(664 -4.55297e-13 0)
(664 -4.67331e-13 0)
(664 -5.61338e-13 0)
(664 -6.22913e-13 0)
(664 -6.95851e-13 0)
(664 -7.50363e-13 0)
(664 -8.03491e-13 0)
(664 -8.11368e-13 0)
(664 -7.72211e-13 0)
(664 -6.50051e-13 0)
(664 -5.48519e-13 0)
(664 -5.30388e-13 0)
(664 -5.17432e-13 0)
(664 -4.57844e-13 0)
(664 -4.51096e-13 0)
(664 -5.31362e-13 0)
(664 -6.21435e-13 0)
(664 -6.67734e-13 0)
(664 -6.72118e-13 0)
(664 -6.55156e-13 0)
(664 -6.09774e-13 0)
(664 -6.48719e-13 0)
(664 -7.10847e-13 0)
(664 -7.84432e-13 0)
(664 -8.05304e-13 0)
(664 -7.68881e-13 0)
(664 -6.96385e-13 0)
(664 -5.79786e-13 0)
(664 -4.53448e-13 0)
(664 -3.26475e-13 0)
(664 -1.96565e-13 0)
(664 -9.17163e-14 0)
(664 -1.17735e-13 0)
(664 -2.55449e-13 0)
(664 -3.93004e-13 0)
(664 -4.90902e-13 0)
(664 -4.9832e-13 0)
(664 -4.56212e-13 0)
(664 -3.81879e-13 0)
(664 -2.79627e-13 0)
(664 -2.12186e-13 0)
(664 -2.04041e-13 0)
(664 -3.03071e-13 0)
(664 -4.16735e-13 0)
(664 -5.13235e-13 0)
(664 -5.66128e-13 0)
(664 -5.65431e-13 0)
(664 -5.08875e-13 0)
(664 -4.37203e-13 0)
(664 -4.03892e-13 0)
(664 -4.51008e-13 0)
(664 -5.37732e-13 0)
(664 -5.75223e-13 0)
(664 -5.53128e-13 0)
(664 -4.97404e-13 0)
(664 -4.38903e-13 0)
(664 -4.21392e-13 0)
(664 -4.62612e-13 0)
(664 -5.91624e-13 0)
(664 -7.50382e-13 0)
(664 -8.55488e-13 0)
(664 -7.90396e-13 0)
(664 -7.14927e-13 0)
(664 -6.10681e-13 0)
(664 -4.00313e-13 0)
(664 -1.9671e-13 0)
(664 -1.31245e-13 0)
(664 -2.33767e-13 0)
(664 -4.29024e-13 0)
(664 -6.76171e-13 0)
(664 -9.23201e-13 0)
(664 -1.14236e-12 0)
(664 -1.21241e-12 0)
(664 -1.18772e-12 0)
(664 -1.12636e-12 0)
(664 -1.09359e-12 0)
(664 -1.07216e-12 0)
(664 -9.83166e-13 0)
(664 -8.90216e-13 0)
(664 -8.27784e-13 0)
(664 -8.06475e-13 0)
(664 -8.46234e-13 0)
(664 -9.59574e-13 0)
(664 -1.09125e-12 0)
(664 -1.17164e-12 0)
(664 -1.21839e-12 0)
(664 -1.19851e-12 0)
(664 -1.10836e-12 0)
(664 -1.04568e-12 0)
(664 -1.01083e-12 0)
(664 -1.02129e-12 0)
(664 -1.03571e-12 0)
(664 -1.04865e-12 0)
(664 -1.06755e-12 0)
(664 -1.08202e-12 0)
(664 -1.11279e-12 0)
(664 -1.1669e-12 0)
(664 -1.23079e-12 0)
(664 -1.26418e-12 0)
(664 -1.24141e-12 0)
(664 -1.24704e-12 0)
(664 -1.27559e-12 0)
(664 -1.24217e-12 0)
(664 -1.12213e-12 0)
(664 -1.00881e-12 0)
(664 -9.76639e-13 0)
(664 -1.03256e-12 0)
(664 -1.1498e-12 0)
(664 -1.29915e-12 0)
(664 -1.39323e-12 0)
(664 -1.46356e-12 0)
(664 -1.50957e-12 0)
(664 -1.51417e-12 0)
(664 -1.44815e-12 0)
(664 -1.32193e-12 0)
(664 -1.22857e-12 0)
(664 -1.18896e-12 0)
(664 -1.23496e-12 0)
(664 -1.36243e-12 0)
(664 -1.48125e-12 0)
(664 -1.51903e-12 0)
(664 -1.49854e-12 0)
(664 -1.36854e-12 0)
(664 -1.22836e-12 0)
(664 -1.07934e-12 0)
(664 -9.77404e-13 0)
(664 -9.41899e-13 0)
(664 -9.18972e-13 0)
(664 -9.52736e-13 0)
(664 -1.0421e-12 0)
(664 -1.20109e-12 0)
(664 -1.35009e-12 0)
(664 -1.46632e-12 0)
(664 -1.57539e-12 0)
(664 -1.6923e-12 0)
(664 -1.77666e-12 0)
(664 -1.78894e-12 0)
(664 -1.7865e-12 0)
(664 -1.76622e-12 0)
(664 -1.70653e-12 0)
(664 -1.66515e-12 0)
(664 -1.66644e-12 0)
(664 -1.65343e-12 0)
(664 -1.6072e-12 0)
(664 -1.55528e-12 0)
(664 -1.51106e-12 0)
(664 -1.44744e-12 0)
(664 -1.38803e-12 0)
(664 -1.37462e-12 0)
(664 -1.42452e-12 0)
(664 -1.48179e-12 0)
(664 -1.51928e-12 0)
(664 -1.53828e-12 0)
(664 -1.58303e-12 0)
(664 -1.63091e-12 0)
(664 -1.64751e-12 0)
(664 -1.58946e-12 0)
(664 -1.56995e-12 0)
(664 -1.55247e-12 0)
(664 -1.5016e-12 0)
(664 -1.49622e-12 0)
(664 -1.63111e-12 0)
(664 -1.80597e-12 0)
(664 -1.94919e-12 0)
(664 -2.03807e-12 0)
(664 -2.00573e-12 0)
(664 -1.83855e-12 0)
(664 -1.57451e-12 0)
(664 -1.23252e-12 0)
(664 -9.80004e-13 0)
(664 -8.68552e-13 0)
(664 -8.9043e-13 0)
(664 -1.04412e-12 0)
(664 -1.24002e-12 0)
(664 -1.41627e-12 0)
(664 -1.52389e-12 0)
(664 -1.52196e-12 0)
(664 -1.4158e-12 0)
(664 -1.13912e-12 0)
(664 -7.90854e-13 0)
(664 -5.20418e-13 0)
(664 -3.49978e-13 0)
(664 -3.19955e-13 0)
(664 -4.69857e-13 0)
(664 -7.41721e-13 0)
(664 -1.05072e-12 0)
(664 -1.32155e-12 0)
(664 -1.49907e-12 0)
(664 -1.53132e-12 0)
(664 -1.44839e-12 0)
(664 -1.33021e-12 0)
(664 -1.21567e-12 0)
(664 -1.10969e-12 0)
(664 -1.01786e-12 0)
(664 -9.48264e-13 0)
(664 -8.8887e-13 0)
(664 -8.36307e-13 0)
(664 -8.17504e-13 0)
(664 -8.31834e-13 0)
(664 -7.43029e-13 0)
(664 -4.93824e-13 0)
(664 -2.95893e-13 0)
(664 -2.64263e-13 0)
(664 -3.61895e-13 0)
(664 -4.90702e-13 0)
(664 -5.8856e-13 0)
(664 -7.11144e-13 0)
(664 -8.28655e-13 0)
(664 -9.7072e-13 0)
(664 -1.12582e-12 0)
(664 -1.15866e-12 0)
(664 -1.11782e-12 0)
(664 -1.11334e-12 0)
(664 -1.0547e-12 0)
(664 -6.93449e-13 0)
(664 6.105e-14 0)
(664 1.3491e-12 0)
(664 3.40654e-12 0)
(664 6.72781e-12 0)
(664 1.20613e-11 0)
(664 2.07326e-11 0)
(664 3.4796e-11 0)
(664 5.77047e-11 0)
(664 9.52698e-11 0)
(664 1.57089e-10 0)
(664 2.58849e-10 0)
(664 4.26138e-10 0)
(664 7.01061e-10 0)
(664 1.15296e-09 0)
(664 1.89582e-09 0)
(664 3.11708e-09 0)
(664 5.12505e-09 0)
(664 8.42683e-09 0)
(664 1.38563e-08 0)
(664 2.27856e-08 0)
(664 3.74715e-08 0)
(664 6.16269e-08 0)
(664 1.0136e-07 0)
(664 1.6672e-07 0)
(664 2.74241e-07 0)
(664 4.51121e-07 0)
(664 7.4211e-07 0)
(664 1.22082e-06 0)
(664 2.00836e-06 0)
(664 3.30391e-06 0)
(664 5.43507e-06 0)
(664 8.94058e-06 0)
(664 1.47063e-05 0)
(664 2.41883e-05 0)
(664 3.97799e-05 0)
(664 6.54137e-05 0)
(664 0.000107549 0)
(663.999 0.000176794 0)
(663.999 0.000290558 0)
(663.998 0.000477406 0)
(663.997 0.00078418 0)
(663.995 0.00128765 0)
(663.992 0.00211354 0)
(663.987 0.00346763 0)
(663.979 0.0056864 0)
(663.966 0.00931956 0)
(663.946 0.0152642 0)
(663.913 0.0249827 0)
(663.861 0.0408551 0)
(663.778 0.06675 0)
(663.647 0.108943 0)
(663.437 0.177591 0)
(663.105 0.289094 0)
(662.58 0.469852 0)
(661.749 0.762132 0)
(660.442 1.23341 0)
(658.389 1.98986 0)
(655.191 3.19852 0)
(650.21 5.1095 0)
(642.9 8.10681 0)
(664 3.23471e-14 0)
(664 6.74239e-14 0)
(664 6.67737e-14 0)
(664 5.42432e-14 0)
(664 8.63165e-14 0)
(664 1.43036e-13 0)
(664 1.46438e-13 0)
(664 1.26206e-13 0)
(664 9.22244e-14 0)
(664 9.39659e-14 0)
(664 7.82795e-14 0)
(664 1.81581e-14 0)
(664 -6.88032e-15 0)
(664 6.61645e-15 0)
(664 1.73059e-14 0)
(664 -2.03068e-15 0)
(664 -1.767e-14 0)
(664 -5.75942e-14 0)
(664 -8.4817e-14 0)
(664 -1.22674e-13 0)
(664 -2.65618e-13 0)
(664 -4.34965e-13 0)
(664 -5.50528e-13 0)
(664 -5.68852e-13 0)
(664 -5.44976e-13 0)
(664 -5.37899e-13 0)
(664 -4.77758e-13 0)
(664 -3.7456e-13 0)
(664 -2.34779e-13 0)
(664 -1.12138e-13 0)
(664 -4.04499e-14 0)
(664 2.41224e-14 0)
(664 2.83826e-14 0)
(664 -3.32417e-14 0)
(664 -1.50792e-13 0)
(664 -2.69093e-13 0)
(664 -3.98724e-13 0)
(664 -5.53656e-13 0)
(664 -7.04833e-13 0)
(664 -8.10351e-13 0)
(664 -9.11971e-13 0)
(664 -9.38927e-13 0)
(664 -9.5084e-13 0)
(664 -9.41148e-13 0)
(664 -9.02602e-13 0)
(664 -8.97246e-13 0)
(664 -8.94487e-13 0)
(664 -8.94914e-13 0)
(664 -8.77292e-13 0)
(664 -8.36637e-13 0)
(664 -7.39069e-13 0)
(664 -6.36067e-13 0)
(664 -5.35173e-13 0)
(664 -5.62166e-13 0)
(664 -6.46587e-13 0)
(664 -6.99285e-13 0)
(664 -7.91311e-13 0)
(664 -8.80646e-13 0)
(664 -8.9625e-13 0)
(664 -8.36698e-13 0)
(664 -7.50533e-13 0)
(664 -6.79354e-13 0)
(664 -6.4319e-13 0)
(664 -5.92159e-13 0)
(664 -5.158e-13 0)
(664 -5.24251e-13 0)
(664 -6.15794e-13 0)
(664 -7.31612e-13 0)
(664 -7.97413e-13 0)
(664 -8.83111e-13 0)
(664 -9.11281e-13 0)
(664 -8.45649e-13 0)
(664 -8.43287e-13 0)
(664 -9.46227e-13 0)
(664 -1.0409e-12 0)
(664 -1.09525e-12 0)
(664 -1.05357e-12 0)
(664 -9.65035e-13 0)
(664 -8.11265e-13 0)
(664 -6.89306e-13 0)
(664 -6.15594e-13 0)
(664 -4.97937e-13 0)
(664 -3.44434e-13 0)
(664 -3.33224e-13 0)
(664 -4.85778e-13 0)
(664 -6.33559e-13 0)
(664 -8.21672e-13 0)
(664 -1.01812e-12 0)
(664 -1.15896e-12 0)
(664 -1.21803e-12 0)
(664 -1.1133e-12 0)
(664 -9.17816e-13 0)
(664 -7.11014e-13 0)
(664 -5.59733e-13 0)
(664 -4.63094e-13 0)
(664 -4.65599e-13 0)
(664 -5.51901e-13 0)
(664 -6.11179e-13 0)
(664 -6.62912e-13 0)
(664 -7.50048e-13 0)
(664 -8.78067e-13 0)
(664 -9.90034e-13 0)
(664 -1.11147e-12 0)
(664 -1.19434e-12 0)
(664 -1.31635e-12 0)
(664 -1.36098e-12 0)
(664 -1.26313e-12 0)
(664 -1.09683e-12 0)
(664 -9.25154e-13 0)
(664 -8.23723e-13 0)
(664 -7.47905e-13 0)
(664 -6.58296e-13 0)
(664 -6.26079e-13 0)
(664 -6.31395e-13 0)
(664 -6.25013e-13 0)
(664 -6.53992e-13 0)
(664 -6.91823e-13 0)
(664 -7.03005e-13 0)
(664 -7.47676e-13 0)
(664 -7.36887e-13 0)
(664 -6.59046e-13 0)
(664 -5.35501e-13 0)
(664 -4.19905e-13 0)
(664 -3.63004e-13 0)
(664 -4.16067e-13 0)
(664 -5.40832e-13 0)
(664 -6.93961e-13 0)
(664 -8.32249e-13 0)
(664 -8.94022e-13 0)
(664 -8.62018e-13 0)
(664 -8.56518e-13 0)
(664 -8.73434e-13 0)
(664 -8.65126e-13 0)
(664 -8.97933e-13 0)
(664 -9.6028e-13 0)
(664 -9.86088e-13 0)
(664 -9.66236e-13 0)
(664 -8.86729e-13 0)
(664 -8.05768e-13 0)
(664 -8.41635e-13 0)
(664 -9.83671e-13 0)
(664 -1.1649e-12 0)
(664 -1.29406e-12 0)
(664 -1.37193e-12 0)
(664 -1.41297e-12 0)
(664 -1.42594e-12 0)
(664 -1.43138e-12 0)
(664 -1.36342e-12 0)
(664 -1.22798e-12 0)
(664 -9.6384e-13 0)
(664 -6.94506e-13 0)
(664 -5.37172e-13 0)
(664 -4.66579e-13 0)
(664 -4.53189e-13 0)
(664 -5.70466e-13 0)
(664 -7.72322e-13 0)
(664 -9.51548e-13 0)
(664 -1.06591e-12 0)
(664 -1.20477e-12 0)
(664 -1.35839e-12 0)
(664 -1.50255e-12 0)
(664 -1.64773e-12 0)
(664 -1.68947e-12 0)
(664 -1.68893e-12 0)
(664 -1.57774e-12 0)
(664 -1.50703e-12 0)
(664 -1.46317e-12 0)
(664 -1.41287e-12 0)
(664 -1.40066e-12 0)
(664 -1.42134e-12 0)
(664 -1.47767e-12 0)
(664 -1.56582e-12 0)
(664 -1.64094e-12 0)
(664 -1.78981e-12 0)
(664 -1.97404e-12 0)
(664 -2.13897e-12 0)
(664 -2.16871e-12 0)
(664 -2.07012e-12 0)
(664 -1.95516e-12 0)
(664 -1.89067e-12 0)
(664 -1.84852e-12 0)
(664 -1.7173e-12 0)
(664 -1.4801e-12 0)
(664 -1.24088e-12 0)
(664 -1.10045e-12 0)
(664 -1.02685e-12 0)
(664 -9.35296e-13 0)
(664 -8.83873e-13 0)
(664 -9.41441e-13 0)
(664 -1.1138e-12 0)
(664 -1.31502e-12 0)
(664 -1.46089e-12 0)
(664 -1.50705e-12 0)
(664 -1.44623e-12 0)
(664 -1.2884e-12 0)
(664 -1.17712e-12 0)