/*--------------------------------*- C++ -*----------------------------------*\
| =========                 |                                                 |
| \\      /  F ield         | OpenFOAM: The Open Source CFD Toolbox           |
|  \\    /   O peration     | Version:  2412                                  |
|   \\  /    A nd           | Website:  www.openfoam.com                      |
|    \\/     M anipulation  |                                                 |
\*---------------------------------------------------------------------------*/
FoamFile
{
    version     2.0;
    format      ascii;
    arch        "LSB;label=32;scalar=64";
    class       volScalarField;
    location    "4.5";
    object      p;
}
// * * * * * * * * * * * * * * * * * * * * * * * * * * * * * * * * * * * * * //

dimensions      [1 -1 -2 0 0 0 0];

internalField   nonuniform List<scalar> 
200
(
1.18328
0.874989
1.07608
0.929874
1.03944
0.981301
1.00844
1.00084
1.00123
1.0019
1.18048
0.85038
1.05337
0.988924
0.998534
0.997148
0.997418
0.998303
0.999351
1.00027
1.17543
0.854418
1.04088
0.98479
0.998972
0.997206
0.997584
0.998741
0.999802
1.00073
1.17342
0.88554
1.04792
0.953238
0.998645
0.981839
0.989071
0.99183
0.995123
0.997616
1.21086
0.932769
1.01513
0.986484
0.996323
0.995324
0.996542
0.997412
0.998425
0.999393
1.17562
0.882281
1.05927
0.957232
1.00675
0.988
0.993505
0.993602
0.995288
0.997034
1.1776
0.848745
1.04372
0.99396
0.998165
0.997841
0.997853
0.998227
0.998698
0.999183
1.18479
0.862433
1.08757
0.9796
1.00579
1.00139
0.999852
0.999642
1.00049
1.001
1.18408
0.880142
1.06364
0.902932
1.03533
0.982551
1.00657
0.998694
1.00185
1.00115
1.18367
0.87517
1.07618
0.951852
1.02264
0.983198
1.01156
0.991086
1.00806
0.997368
1.00231
1.00217
1.00231
1.00238
1.00242
1.00246
1.00249
1.00249
1.00249
1.0025
1.00111
1.00172
1.00195
1.00204
1.00224
1.00235
1.00243
1.00248
1.00249
1.00251
1.00143
1.00195
1.00213
1.00226
1.00235
1.0024
1.00245
1.00248
1.00249
1.00249
0.999868
1.00115
1.00168
1.0019
1.00215
1.0023
1.00241
1.00247
1.00249
1.00248
1.00043
1.00101
1.00146
1.00191
1.00219
1.00234
1.00242
1.00246
1.00247
1.00245
0.999127
1.00033
1.00139
1.00183
1.00211
1.00227
1.00235
1.00239
1.00239
1.00236
1.00014
1.00067
1.00135
1.00173
1.00195
1.00209
1.00217
1.00223
1.00227
1.0023
1.00173
1.00127
1.00168
1.00169
1.00183
1.00192
1.00196
1.00201
1.00214
1.00225
1.00195
1.001
1.00165
1.00142
1.00168
1.0018
1.00189
1.0019
1.00208
1.00225
1.00479
1.00023
1.00216
1.00171
1.00184
1.00191
1.00196
1.00202
1.00211
1.00226
)
;

boundaryField
{
    inlet
    {
        type            fixedValue;
        value           uniform 1;
    }
    sym
    {
        type            slip;
    }
    wedge
    {
        type            slip;
    }
    top
    {
        type            slip;
    }
    back
    {
        type            empty;
    }
    front
    {
        type            empty;
    }
    outlet
    {
        type            zeroGradient;
    }
}


// ************************************************************************* //
