/*--------------------------------*- C++ -*----------------------------------*\
| =========                 |                                                 |
| \\      /  F ield         | OpenFOAM: The Open Source CFD Toolbox           |
|  \\    /   O peration     | Version:  2412                                  |
|   \\  /    A nd           | Website:  www.openfoam.com                      |
|    \\/     M anipulation  |                                                 |
\*---------------------------------------------------------------------------*/
FoamFile
{
    version     2.0;
    format      ascii;
    arch        "LSB;label=32;scalar=64";
    class       surfaceScalarField;
    location    "4.5";
    object      phi;
}
// * * * * * * * * * * * * * * * * * * * * * * * * * * * * * * * * * * * * * //

dimensions      [1 0 -1 0 0 0 0];

oriented        oriented;

internalField   nonuniform List<scalar> 
370
(
5.62011e-05
9.1556e-05
-0.000171092
0.000227201
-0.000184833
1.35713e-05
0.000315641
-0.000500436
0.000288664
2.69209e-05
0.000424177
-0.000135519
0.000431394
-7.24427e-06
0.000421875
9.49673e-06
0.000399042
2.28081e-05
3.32091e-05
0.000365805
0.000353535
-0.00013155
0.000799344
-0.00021848
0.00099231
-0.000179462
0.000643605
-0.000151712
0.000749995
-7.94679e-05
0.000637381
-2.28905e-05
0.000573012
5.71391e-05
0.0004747
0.000107823
0.000367987
0.000129532
0.000129593
0.000271613
0.000344526
-0.000354871
0.00070493
-0.000578753
0.000602159
-7.67014e-05
0.000469338
-1.88378e-05
0.000415352
-2.5455e-05
0.000317719
7.47781e-05
0.000237831
0.000137067
0.000157025
0.00018867
8.53452e-05
0.000201243
0.000184156
3.08148e-05
0.000117336
-0.000365131
-7.70147e-05
-0.000384291
-0.00042946
0.000275738
-0.00049404
4.59334e-05
-0.000633414
0.000114007
-0.000636024
7.7424e-05
-0.000601489
0.000102576
-0.000532455
0.000119657
-0.000453677
0.000122481
0.00010984
-0.000379367
-0.00084827
0.000281639
-0.00159041
0.000357915
-0.000995136
-0.000319374
-0.000924648
-2.38517e-05
-0.000785365
-2.51342e-05
-0.000726702
1.87697e-05
-0.000663412
3.92756e-05
-0.000594602
5.08299e-05
-0.000517245
4.51054e-05
3.0975e-05
-0.000438401
6.18512e-05
0.00032404
-0.00012064
0.000540503
-0.00044682
6.65489e-06
-0.000501248
3.05643e-05
-0.000622889
9.65155e-05
-0.000621017
1.69181e-05
-0.000585728
4.01946e-06
-0.00050847
-2.63961e-05
-0.000408693
-5.46279e-05
-7.37469e-05
-0.000303921
0.000344891
9.43486e-05
0.000789349
9.62403e-05
0.000793825
2.001e-06
0.000609404
0.000214323
0.00059137
0.000114431
0.000528581
7.97399e-05
0.00048319
4.94707e-05
0.000442625
1.42367e-05
0.000407086
-1.9019e-05
-4.4814e-05
0.000378226
0.000246287
-1.28553e-05
0.000599264
-0.000256593
0.000754637
-0.000153512
0.000726205
0.000242804
0.000880065
-3.94248e-05
0.000798599
0.000161228
0.000818169
2.99296e-05
0.000762469
6.9973e-05
0.000745319
-1.83336e-06
2.14447e-05
0.000679096
0.000116232
3.38766e-05
-0.000111908
-2.84956e-05
-3.20873e-05
-0.000233609
0.000464337
-0.000253551
0.000310328
0.000114534
0.000372791
9.87854e-05
0.000381449
2.12705e-05
0.000238458
0.000212963
0.00022886
7.76072e-06
9.09039e-05
0.000159398
0.000195087
0.000166643
-6.71042e-05
-0.000320634
-0.000206188
-0.00010741
-8.61813e-05
0.000126783
0.00013451
0.000225378
0.000324198
4.15515e-05
0.000278878
4.52464e-05
0.000256706
2.20653e-05
0.000239204
1.73937e-05
0.000227001
1.2128e-05
0.000224329
2.62486e-06
0.000225322
-1.03147e-06
0.000227921
-2.6471e-06
0.000228212
-3.86149e-07
3.15696e-06
9.44744e-05
0.000218695
-1.87751e-05
0.000158455
-6.47429e-05
6.80974e-05
-6.40341e-05
1.67497e-05
-4.35751e-05
-8.31351e-06
-1.12702e-05
-2.96987e-05
2.23102e-05
-3.46647e-05
5.01696e-05
-3.05914e-05
7.01909e-05
-2.05045e-05
-6.90744e-06
-7.37731e-05
0.000323368
-0.000105585
0.000190178
-0.000103556
6.60555e-05
-6.88761e-05
-1.79418e-05
-3.4569e-05
-4.2648e-05
-1.04522e-05
-5.38558e-05
8.4382e-06
-5.35714e-05
2.32791e-05
-4.54427e-05
3.39796e-05
-3.12425e-05
-1.2412e-05
-0.000294096
0.000238048
-0.000214737
0.000110709
-0.000123156
-2.561e-05
-5.89311e-05
-8.22557e-05
-1.48592e-05
-8.68261e-05
1.16159e-05
-8.04753e-05
2.44619e-05
-6.65177e-05
2.93373e-05
-5.03293e-05
3.11397e-05
-3.3013e-05
-1.28234e-05
-0.000278536
7.81424e-05
-0.000112853
-5.49742e-05
3.33195e-06
-0.000141744
5.64218e-05
-0.000135302
8.38386e-05
-0.00011422
9.36878e-05
-9.03396e-05
9.09849e-05
-6.39915e-05
8.09017e-05
-4.04945e-05
6.90678e-05
-2.12229e-05
-4.26738e-06
-4.91838e-05
-0.000176471
0.00010861
-0.000212666
0.000150496
-0.000183572
0.000170295
-0.000155047
0.000176376
-0.000120221
0.000171351
-8.52053e-05
0.000157937
-5.04655e-05
0.000137253
-1.98466e-05
0.000115429
2.32401e-07
1.06936e-05
0.000390626
-0.000188739
0.00035384
-0.000175767
0.000329122
-0.000158802
0.000298592
-0.000124495
0.000270313
-9.19791e-05
0.000246292
-6.11876e-05
0.000225532
-2.96723e-05
0.000205393
4.27775e-07
0.000185439
2.03175e-05
2.38812e-05
0.000605025
-0.000114624
0.000481105
-5.18192e-05
0.000410158
-8.78404e-05
0.000332787
-4.71231e-05
0.000281216
-4.0344e-05
0.000251006
-3.08847e-05
0.000232915
-1.15465e-05
0.00021218
2.11224e-05
0.000197364
3.51001e-05
3.10449e-05
0.000129477
-8.47718e-05
4.33056e-05
3.416e-05
-1.11191e-05
-3.34449e-05
-3.70622e-05
-2.11122e-05
-4.1181e-05
-3.60193e-05
-2.45535e-05
-4.72657e-05
4.60611e-06
-4.05738e-05
3.78354e-05
-1.207e-05
5.33911e-05
1.95664e-05
1.84494e-05
0.000140536
0.0001746
0.000140961
0.000119603
8.3541e-05
3.64417e-05
-3.96768e-06
-1.60539e-05
3.4942e-06
)
;

boundaryField
{
    inlet
    {
        type            calculated;
        value           nonuniform List<scalar> 10(-0.000148613 -0.000131208 -0.000121738 -0.000107418 0.000201261 -0.000104777 -0.000115939 -0.00014006 -0.000163921 -0.000162172);
    }
    sym
    {
        type            calculated;
        value           uniform 0;
    }
    wedge
    {
        type            calculated;
        value           nonuniform List<scalar> 10(1.20068e-20 1.20014e-20 1.19987e-20 0 -4.25595e-39 1.19857e-20 0 1.19824e-20 0 1.1974e-20);
    }
    top
    {
        type            calculated;
        value           uniform 0;
    }
    back
    {
        type            empty;
    }
    front
    {
        type            empty;
    }
    outlet
    {
        type            calculated;
        value           nonuniform List<scalar> 10(0.000225008 8.02253e-05 3.946e-05 3.15496e-05 6.05606e-05 0.000100374 0.000172131 0.000190158 6.59965e-05 2.19461e-05);
    }
}


// ************************************************************************* //
