/*--------------------------------*- C++ -*----------------------------------*\
| =========                 |                                                 |
| \\      /  F ield         | OpenFOAM: The Open Source CFD Toolbox           |
|  \\    /   O peration     | Version:  2412                                  |
|   \\  /    A nd           | Website:  www.openfoam.com                      |
|    \\/     M anipulation  |                                                 |
\*---------------------------------------------------------------------------*/
FoamFile
{
    version     2.0;
    format      ascii;
    arch        "LSB;label=32;scalar=64";
    class       volVectorField;
    location    "4.5";
    object      U;
}
// * * * * * * * * * * * * * * * * * * * * * * * * * * * * * * * * * * * * * //

dimensions      [0 1 -1 0 0 0 0];

internalField   nonuniform List<vector> 
200
(
(-21.5422 0.478726 0)
(15.6957 2.34215 0)
(-11.4806 -0.633387 0)
(7.1792 -3.7099 0)
(-3.07905 -0.468024 0)
(3.00256 -1.24775 0)
(0.124928 -0.580226 0)
(1.17719 -0.432268 0)
(1.01846 -0.319503 0)
(0.869911 -0.215019 0)
(-15.5576 0.245431 0)
(10.4185 0.427831 0)
(-0.896775 0.704663 0)
(2.57546 -0.76224 0)
(1.47722 0.550129 0)
(1.54991 0.01025 0)
(1.43668 0.434084 0)
(1.22563 0.508113 0)
(0.971463 0.540108 0)
(0.736869 0.549048 0)
(-15.2801 -1.16159 0)
(10.3431 -3.62105 0)
(-1.87299 -2.85838 0)
(2.52037 -1.30731 0)
(0.635431 -1.19575 0)
(0.848777 -0.276709 0)
(0.685374 0.381554 0)
(0.456575 0.881441 0)
(0.260814 1.08971 0)
(0.15063 1.0695 0)
(-16.3018 -2.05981 0)
(10.9601 -3.56935 0)
(-7.0898 2.35481 0)
(2.83641 0.863329 0)
(-3.45152 0.955611 0)
(-0.608526 0.855832 0)
(-1.73278 0.918523 0)
(-1.23823 1.00179 0)
(-1.1252 0.986444 0)
(-0.938558 0.868366 0)
(-11.8433 -0.245494 0)
(2.33923 -0.12315 0)
(-5.41546 -0.174012 0)
(-0.872457 0.0927144 0)
(-2.44565 0.184957 0)
(-1.55924 0.348909 0)
(-1.64398 0.5087 0)
(-1.43386 0.615001 0)
(-1.27585 0.614715 0)
(-1.07253 0.537625 0)
(-17.1985 1.97155 0)
(11.4484 3.514 0)
(-7.53 -2.29993 0)
(3.02626 -0.706018 0)
(-3.57592 -0.336508 0)
(-0.465477 -0.262507 0)
(-1.77937 -0.177306 0)
(-1.18611 -0.164192 0)
(-1.05992 -0.203752 0)
(-0.77962 -0.255524 0)
(-15.584 0.930545 0)
(10.4344 3.06627 0)
(-1.2007 2.13085 0)
(2.43437 1.34783 0)
(1.26446 1.15029 0)
(1.24959 0.559694 0)
(1.18323 0.255219 0)
(1.07483 -0.0585422 0)
(0.97292 -0.334172 0)
(0.884028 -0.516462 0)
(-17.2903 -0.292469 0)
(11.7053 -1.44588 0)
(-2.92079 -1.84992 0)
(3.57845 1.20327 0)
(1.43677 0.0728018 0)
(1.81062 0.509709 0)
(1.90352 0.236064 0)
(1.84115 0.215531 0)
(1.72568 0.109952 0)
(1.64144 0.0430029 0)
(-21.5022 0.169125 0)
(16.1791 -1.18937 0)
(-11.9827 -0.239109 0)
(8.09772 0.634034 0)
(-2.6999 -0.275007 0)
(2.68106 0.955357 0)
(0.0950441 0.172027 0)
(1.02255 0.65121 0)
(0.367729 -0.147142 0)
(0.517384 0.233435 0)
(-20.0062 0.0787021 0)
(14.6507 0.716074 0)
(-8.64213 -1.57911 0)
(5.40899 -2.6433 0)
(-5.10499 1.17198 0)
(3.13006 0.439948 0)
(-2.9526 0.110907 0)
(2.05751 1.54042 0)
(-0.98928 0.283832 0)
(1.22023 0.683996 0)
(0.748752 -0.046381 -2.98454e-21)
(0.727936 0.0228957 0)
(0.66253 0.084932 0)
(0.624005 0.152057 0)
(0.611024 0.194399 1.13335e-17)
(0.61408 0.226577 0)
(0.632776 0.243528 0)
(0.661883 0.248821 0)
(0.696034 0.255898 0)
(0.727602 0.262385 -6.79158e-18)
(0.358574 0.610801 -4.9735e-18)
(0.081871 0.478072 5.16806e-18)
(-0.179964 0.184023 0)
(-0.160603 0.0850083 0)
(-0.158516 0.014665 -1.96102e-22)
(-0.0807195 -0.0401611 0)
(0.0165302 -0.0384606 0)
(0.109804 -0.0129639 0)
(0.181668 0.0290129 0)
(0.258855 0.0798212 0)
(-0.105455 0.821476 0)
(-0.235685 0.452407 -5.14132e-18)
(-0.29501 0.104502 0)
(-0.221846 -0.0827096 0)
(-0.135027 -0.139254 -1.1376e-17)
(-0.0528158 -0.158138 5.88873e-18)
(-0.00426623 -0.150159 0)
(0.0524157 -0.115313 6.32678e-18)
(0.0838178 -0.0712332 0)
(0.126951 -0.00951561 6.83604e-18)
(-0.805971 0.684225 0)
(-0.631218 0.361273 0)
(-0.438635 0.0608026 0)
(-0.200787 -0.144736 0)
(-0.0949295 -0.184401 5.67577e-18)
(0.0111154 -0.178737 -5.87965e-18)
(0.0538066 -0.155155 0)
(0.0837694 -0.114906 -1.26393e-17)
(0.0880937 -0.0648139 0)
(0.101422 -0.0015076 -6.83171e-18)
(-0.870726 0.423834 2.45849e-18)
(-0.477249 0.071081 2.55764e-18)
(-0.0786892 -0.321273 0)
(0.0971968 -0.329682 2.73822e-18)
(0.19005 -0.274335 2.82374e-18)
(0.248934 -0.211873 0)
(0.265516 -0.147884 0)
(0.253417 -0.0948998 6.29677e-18)
(0.226657 -0.0520669 0)
(0.194752 -0.00509211 0)
(-0.502636 -0.285638 -2.48534e-18)
(0.239012 -0.463907 -2.56726e-18)
(0.310769 -0.439846 0)
(0.415218 -0.362348 -2.71686e-18)
(0.459086 -0.268782 -2.80804e-18)
(0.474982 -0.173675 0)
(0.467236 -0.0819265 0)
(0.435516 -0.00744272 0)
(0.384019 0.0401269 0)
(0.323192 0.0722443 0)
(0.887161 -0.621028 2.46007e-18)
(0.905829 -0.55731 0)
(0.839821 -0.470706 0)
(0.793 -0.36167 0)
(0.74191 -0.257644 2.79454e-18)
(0.69692 -0.155162 0)
(0.662008 -0.049839 0)
(0.627261 0.0449582 0)
(0.593758 0.103321 0)
(0.552667 0.115995 3.37858e-18)
(1.40424 -0.145493 -1.20698e-18)
(1.32939 -0.161119 1.25247e-18)
(1.07291 -0.201006 0)
(0.945356 -0.150157 1.34904e-18)
(0.796471 -0.103865 -1.40045e-18)
(0.704257 -0.0502035 1.45201e-18)
(0.67604 0.0166306 1.50677e-18)
(0.654465 0.0962865 0)
(0.618827 0.140935 1.62374e-18)
(0.611171 0.147019 -1.68897e-18)
(0.206819 -0.464712 -1.87907e-18)
(0.326919 -0.0393647 -1.95164e-18)
(-0.0723792 -0.266042 0)
(0.000739908 -0.0791702 -2.08678e-18)
(-0.175989 -0.0993202 -7.15958e-19)
(-0.0522186 -0.0893261 -2.21649e-18)
(-0.0844023 -0.0397427 -1.52777e-18)
(0.105828 0.0750233 0)
(0.128975 0.114373 -1.63896e-18)
(0.211675 0.0944203 -2.55429e-18)
(-0.294331 0.0497744 6.27072e-19)
(0.753321 0.25324 6.49249e-19)
(0.251491 0.102329 0)
(0.383816 -0.013687 6.93258e-19)
(0.275802 -0.0907969 -7.17941e-19)
(0.16856 -0.163605 7.43227e-19)
(0.0268583 -0.182591 0)
(-0.0511812 -0.133978 0)
(-0.0452806 0.00790446 0)
(0.0700906 0.0248132 8.54638e-19)
)
;

boundaryField
{
    inlet
    {
        type            fixedValue;
        value           uniform (3 0 0);
    }
    sym
    {
        type            slip;
    }
    wedge
    {
        type            slip;
    }
    top
    {
        type            slip;
    }
    back
    {
        type            empty;
    }
    front
    {
        type            empty;
    }
    outlet
    {
        type            inletOutlet;
        inletValue      uniform (3 0 0);
        value           nonuniform List<vector> 10((0.727602 0.262385 -6.79158e-18) (0.258855 0.0798212 0) (0.126951 -0.00951561 6.83604e-18) (0.101422 -0.0015076 -6.83171e-18) (0.194752 -0.00509211 0) (0.323192 0.0722443 0) (0.552667 0.115995 3.37858e-18) (0.611171 0.147019 -1.68897e-18) (0.211675 0.0944203 -2.55429e-18) (0.0700906 0.0248132 8.54638e-19));
    }
}


// ************************************************************************* //
